
 Primary working directories    : /scratch.local/johan406.molpro_temp/molpro.iDZaFbDqoz
 Secondary working directories  : /scratch.local/johan406.molpro_temp/molpro.iDZaFbDqoz
 Wavefunction directory         : /home/goodpast/johan406/wfu/
 Main file repository           : /scratch.local/johan406.molpro_temp/molpro.iDZaFbDqoz/

 id        : roweumn

 Nodes     nprocs
 cn0117       1

 Using customized tuning parameters: mindgm=1; mindgv=20; mindgc=4; mindgr=1; noblas=0; minvec=7
 default implementation of scratch files=df  


 Variables initialized (934), CPU time= 0.00 sec
                                                                                 !leave this line blank
 
 gprint, orbitals=30
 memory, 125., m
 symmetry, nosym
 nelect=16
 basis=6-31g*
 
 geometry={
 C 0.0 -0.0048 0.6691
 C 0.0 0.0048 -0.6691
 H 0.0 0.9435 1.2525
 H -0.0 -0.8863 1.2171
 H 0.0 0.8863 -1.2171
 H 0.0 -0.9435 -1.2525
 }
 
 hf
 {multi,
 closed 7
 occ 9
 wf,spin=0;STATE,3
 }
 
 Commands  initialized (763), CPU time= 0.01 sec, 617 directives.
 Default parameters read. Elapsed time= 0.08 sec

 Checking input...
 Passed
1


                                         ***  PROGRAM SYSTEM MOLPRO  ***
                                       Copyright, TTI GmbH Stuttgart, 2015
                                    Version 2019.2 linked Oct 25 2019 22:50:27


 **********************************************************************************************************************************
 LABEL *                                                                                 
  64 bit serial version                                                                  DATE: 26-Jan-23          TIME: 21:01:26  
 **********************************************************************************************************************************

 SHA1:             8dbd9ae1082e4ce945b0f27595c9eb2d4aa09004
 **********************************************************************************************************************************


 Variable memory set to  125000000 words,  buffer space 

 SETTING NELECT         =        16.00000000                                  
 SETTING BASIS          =    6-31G*
 ZSYMEL=NOSYM


Geometry recognized as XYZ



 Recomputing integrals since basis changed


 Using spherical harmonics

 Library entry C      S 6-31G                selected for orbital group  1
 Library entry C      P 6-31G                selected for orbital group  1
 Library entry C      D 6-31G*               selected for orbital group  1
 Library entry H      S 6-31G                selected for orbital group  2


 PROGRAM * SEWARD (Integral evaluation for generally contracted gaussian basis sets)     Author: Roland Lindh, 1990

 Geometry written to block  1 of record 700


 Point group  C1  



 ATOMIC COORDINATES

 NR  ATOM    CHARGE       X              Y              Z

   1  C       6.00    0.000000000   -0.009070685    1.264415750
   2  C       6.00    0.000000000    0.009070685   -1.264415750
   3  H       1.00    0.000000000    1.782956599    2.366881971
   4  H       1.00    0.000000000   -1.674864264    2.299985666
   5  H       1.00    0.000000000    1.674864264   -2.299985666
   6  H       1.00    0.000000000   -1.782956599   -2.366881971

 Bond lengths in Bohr (Angstrom)

 1-2  2.528896570  1-3  2.103994666  1-4  1.961446736  2-5  1.961446736  2-6  2.103994666
     ( 1.338234434)     ( 1.113386029)     ( 1.037952913)     ( 1.037952913)     ( 1.113386029)

 Bond angles

  1-2-5  122.27890059   1-2-6  121.18906306   2-1-3  121.18906306   2-1-4  122.27890059

  3-1-4  116.53203636   5-2-6  116.53203636

 NUCLEAR CHARGE:                   16
 NUMBER OF PRIMITIVE AOS:          72
 NUMBER OF SYMMETRY AOS:           70
 NUMBER OF CONTRACTIONS:           36   (   36A   )
 NUMBER OF CORE ORBITALS:           2   (    2A   )
 NUMBER OF VALENCE ORBITALS:       12   (   12A   )


 NUCLEAR REPULSION ENERGY   33.42130321

 EXTRA SYMMETRY OF AOS IN SYMMETRY 1:   1 1 1 2 1 1 2 1 1 1   2 2 1 1 1 1 1 2 1 1   2 1 1 1 2 2 1 1 1 1   1 1 1 1 1 1

 Eigenvalues of metric

         1 0.831E-02 0.169E-01 0.382E-01 0.449E-01 0.723E-01 0.192E+00 0.208E+00 0.226E+00


 Contracted 2-electron integrals neglected if value below      1.0D-11
 AO integral compression algorithm  1   Integral accuracy      1.0D-11

     1.049 MB (compressed) written to integral file ( 36.5%)


 NUMBER OF SORTED TWO-ELECTRON INTEGRALS:     222111.     BUFFER LENGTH:  32768
 NUMBER OF SEGMENTS:   1  SEGMENT LENGTH:     222111      RECORD LENGTH: 524288

 Memory used in sort:       0.78 MW

 SORT1 READ      284735. AND WROTE      118707. INTEGRALS IN      1 RECORDS. CPU TIME:     0.00 SEC, REAL TIME:     0.01 SEC
 SORT2 READ      118707. AND WROTE      222111. INTEGRALS IN      4 RECORDS. CPU TIME:     0.03 SEC, REAL TIME:     0.02 SEC

 FILE SIZES:   FILE 1:    31.1 MBYTE,  FILE 4:     4.2 MBYTE,   TOTAL:     35.4 MBYTE

 OPERATOR DM      FOR CENTER  0  COORDINATES:    0.000000    0.000000    0.000000


 **********************************************************************************************************************************
 DATASETS  * FILE   NREC   LENGTH (MB)   RECORD NAMES
              1      19       30.72       500      610      700      900      950      970     1000      129      960     1100   
                                          VAR    BASINP    GEOM    SYMINP    ZMAT    AOBASIS   BASIS     P2S    ABASIS      S 
                                         1400     1410     1200     1210     1080     1600     1650     1300     1700   
                                           T        V       H0       H01     AOSYM     SMH    MOLCAS    ERIS     OPER   

 PROGRAMS   *        TOTAL       INT
 CPU TIMES  *         0.36      0.26
 REAL TIME  *         0.57 SEC
 DISK USED  *        35.71 MB
 **********************************************************************************************************************************


 PROGRAM * RHF-SCF (CLOSED SHELL)       Authors: W. Meyer, H.-J. Werner


 NUMBER OF ELECTRONS:       8+    8-    SPACE SYMMETRY=1    SPIN SYMMETRY: Singlet 
 CONVERGENCE THRESHOLDS:    1.00E-05 (Density)    1.00E-07 (Energy)
 MAX. NUMBER OF ITERATIONS:       60
 INTERPOLATION TYPE:            DIIS
 INTERPOLATION STEPS:              2 (START)      1 (STEP)
 LEVEL SHIFTS:                  0.00 (CLOSED)  0.00 (OPEN) 



 Orbital guess generated from atomic densities. Full valence occupancy:    8

 Molecular orbital dump at record        2100.2

 Initial occupancy:   8

 ITERATION    DDIFF          GRAD             ENERGY        2-EL.EN.            DIPOLE MOMENTS         DIIS   ORB.
    1      0.000D+00      0.000D+00       -78.00225576    118.747004   -0.00000   -0.00000   -0.00000    0    start
    2      0.000D+00      0.862D-02       -78.02442308    116.893633   -0.00000   -0.00000   -0.00000    1    diag
    3      0.825D-02      0.294D-02       -78.02657869    117.527106   -0.00000   -0.00000   -0.00000    2    diag
    4      0.265D-02      0.717D-03       -78.02679236    117.427848    0.00000   -0.00000   -0.00000    3    diag
    5      0.108D-02      0.693D-04       -78.02679458    117.430688   -0.00000   -0.00000   -0.00000    4    diag
    6      0.148D-03      0.838D-05       -78.02679461    117.430248   -0.00000   -0.00000    0.00000    5    diag
    7      0.162D-04      0.132D-05       -78.02679461    117.430256    0.00000    0.00000    0.00000    6    diag
    8      0.248D-05      0.179D-06       -78.02679461    117.430249    0.00000   -0.00000    0.00000    0    orth

 Final occupancy:   8

 !RHF STATE  1.1 Energy               -78.026794610041
 Nuclear energy                        33.42130321
 One-electron energy                 -170.16322253
 Two-electron energy                   58.71512471
 Virial quotient                       -0.99991949
 !RHF STATE  1.1 Dipole moment          0.00000000    -0.00000000     0.00000000
 Dipole moment /Debye                   0.00000000    -0.00000000     0.00000000

 ELECTRON ORBITALS
 =================

  Orbital  Occupation    Energy     Coefficients
    1.1     2.00000   -11.22524     1 1s    0.70418     2 1s    0.70418
    2.1     2.00000   -11.22364     1 1s    0.70454     2 1s   -0.70454
    3.1     2.00000    -1.02742     1 1s    0.30224     2 1s    0.30224
    4.1     2.00000    -0.79438     1 1s    0.23926
    5.1     2.00000    -0.63729     1 2py   0.31981     2 2py   0.31981
    6.1     2.00000    -0.58502     1 2pz   0.40391     2 2pz  -0.40391
    7.1     2.00000    -0.50409     1 2py   0.30101     2 2py  -0.30101
    8.1     2.00000    -0.36941     1 2px   0.37341     1 2px   0.30783     2 2px   0.37341     2 2px   0.30783
    9.1     0.00000     0.17846     1 2px   0.34228     1 2px   0.73360     2 2px  -0.34228     2 2px  -0.73360
   10.1     0.00000     0.26628     1 1s   -1.49724     1 2pz  -0.64711     2 1s   -1.49724     2 2pz   0.64711     3 1s    1.03000
                                    4 1s    1.05181     5 1s    1.05181     6 1s    1.03000
   11.1     0.00000     0.28876     1 1s   -0.74322     1 2py  -0.70669     2 1s    0.74322     2 2py  -0.70669     3 1s    1.39272
                                    4 1s   -0.50955     5 1s    0.50955     6 1s   -1.39272
   12.1     0.00000     0.31478     1 1s   -1.80582     1 2py   0.39569     2 1s    1.80582     2 2py   0.39569     3 1s    0.42092
                                    4 1s    1.55110     5 1s   -1.55110     6 1s   -0.42092
   13.1     0.00000     0.39096     1 2py   1.87979     2 2py  -1.87979     3 1s   -1.50758     4 1s    1.76718     5 1s    1.76718
                                    6 1s   -1.50758
   14.1     0.00000     0.49098     1 1s   -2.97964     1 2pz   2.95896     2 1s    2.97964     2 2pz   2.95896     3 1s   -0.51243
                                    4 1s   -0.68406     5 1s    0.68406     6 1s    0.51243
   15.1     0.00000     0.66934     1 1s    0.25434     1 2pz  -0.55580     1 2pz   1.04052     2 1s    0.25434     2 2pz   0.55580
                                    2 2pz  -1.04052
   16.1     0.00000     0.76194     1 2py  -0.39803     1 2py   0.77727     2 2py  -0.39803     2 2py   0.77727     3 1s   -0.36891
                                    4 1s    0.40063     5 1s   -0.40063     6 1s    0.36891
   17.1     0.00000     0.77710     1 2px  -0.74056     1 2px   0.63959     2 2px  -0.74056     2 2px   0.63959
   18.1     0.00000     0.86266     1 1s   -0.88586     1 1s    1.48015     1 2pz   0.34241     2 1s   -0.88586     2 1s    1.48015
                                    2 2pz  -0.34241     3 1s   -0.40517     4 1s   -0.38612     4 1s   -0.39846     5 1s   -0.38612
                                    5 1s   -0.39846     6 1s   -0.40517
   19.1     0.00000     0.89032     1 2px  -0.81846     1 2px   1.07404     2 2px   0.81846     2 2px  -1.07404
   20.1     0.00000     0.95470     1 1s   -0.85113     1 2pz   0.60046     1 2pz  -0.47001     2 1s    0.85113     2 2pz   0.60046
                                    2 2pz  -0.47001     3 1s    0.42756     4 1s    0.34178     5 1s   -0.34178     6 1s   -0.42756
   21.1     0.00000     1.11017     1 2py   0.66448     1 2py  -1.06001     1 2pz  -0.27756     2 2py   0.66448     2 2py  -1.06001
                                    2 2pz  -0.27756     3 1s   -0.46998     3 1s    1.25066     4 1s    0.26393     4 1s   -0.78923
                                    5 1s   -0.26393     5 1s    0.78923     6 1s    0.46998     6 1s   -1.25066
   22.1     0.00000     1.14889     1 1s    0.43495     1 1s   -0.59272     1 2py   0.83680     1 2py  -2.59492     2 1s    0.43495
                                    2 1s   -0.59272     2 2py  -0.83680     2 2py   2.59492     3 1s   -0.31562     3 1s    1.63397
                                    4 1s   -1.06030     5 1s   -1.06030     6 1s   -0.31562     6 1s    1.63397
   23.1     0.00000     1.22875     1 1s    0.93442     1 1s   -1.64322     1 2py  -0.39664     1 2pz   0.33010     1 2py   1.49421
                                    1 2pz  -0.46641     2 1s    0.93442     2 1s   -1.64322     2 2py   0.39664     2 2pz  -0.33010
                                    2 2py  -1.49421     2 2pz   0.46641     3 1s   -0.41745     4 1s   -0.39937     4 1s    1.54401
                                    5 1s   -0.39937     5 1s    1.54401     6 1s   -0.41745
   24.1     0.00000     1.23265     1 1s   -0.48886     1 1s    0.40981     1 2pz  -0.60734     1 2py  -0.29959     1 2pz   1.22484
                                    2 1s    0.48886     2 1s   -0.40981     2 2pz  -0.60734     2 2py  -0.29959     2 2pz   1.22484
                                    3 1s    0.35788     3 1s   -0.64187     4 1s    0.55950     4 1s   -1.23899     5 1s   -0.55950
                                    5 1s    1.23899     6 1s   -0.35788     6 1s    0.64187
   25.1     0.00000     1.33883     1 1s   -1.59711     1 1s    5.39171     1 2pz   0.25543     1 2pz  -1.89888     2 1s    1.59711
                                    2 1s   -5.39171     2 2pz   0.25543     2 2pz  -1.89888     3 1s   -0.29011     4 1s   -0.39887
                                    5 1s    0.39887     6 1s    0.29011
   26.1     0.00000     1.47820     1 2py   2.47673     2 2py  -2.47673     3 1s   -0.65185     3 1s   -0.65118     4 1s    0.73933
                                    4 1s    0.63569     5 1s    0.73933     5 1s    0.63569     6 1s   -0.65185     6 1s   -0.65118
   27.1     0.00000     1.73875     1 3d1+  0.61896     2 3d1+ -0.61896
   28.1     0.00000     1.82142     1 3d2-  0.68122     2 3d2-  0.68122
   29.1     0.00000     2.12748     1 3d2-  0.73608     2 3d2- -0.73608
   30.1     0.00000     2.20754     1 1s   -0.61203     1 3d2+  0.71275     2 1s   -0.61203     2 3d2+  0.71275     3 1s    0.35289
                                    4 1s    0.39803     5 1s    0.39803     6 1s    0.35289
   31.1     0.00000     2.32918     1 2py   0.27373     1 3d1-  0.68330     2 2py   0.27373     2 3d1- -0.68330     3 1s   -0.53501
                                    4 1s    0.48960     5 1s   -0.48960     6 1s    0.53501
   32.1     0.00000     2.40665     1 1s   -0.50961     1 2pz   0.28259     1 2pz  -0.44548     1 3d0   0.68979     2 1s   -0.50961
                                    2 2pz  -0.28259     2 2pz   0.44548     2 3d0   0.68979
   33.1     0.00000     2.63385     1 1s    0.27830     1 1s   -1.32747     1 2pz   0.26587     1 3d2+  0.79265     2 1s   -0.27830
                                    2 1s    1.32747     2 2pz   0.26587     2 3d2+ -0.79265     3 1s    0.34573     4 1s    0.55061
                                    5 1s   -0.55061     6 1s   -0.34573
   34.1     0.00000     2.70778     1 2px  -0.26446     1 3d1+  0.90266     2 2px   0.26446     2 3d1+  0.90266
   35.1     0.00000     3.06171     1 1s    0.31553     1 1s    2.02624     1 2pz  -0.79622     1 2pz  -1.17951     1 3d0   1.11183
                                    2 1s   -0.31553     2 1s   -2.02624     2 2pz  -0.79622     2 2pz  -1.17951     2 3d0  -1.11183
   36.1     0.00000     3.06946     1 2py   0.57205     1 3d1-  0.97154     2 2py  -0.57205     2 3d1-  0.97154     3 1s   -0.42172
                                    4 1s    0.54397     5 1s    0.54397     6 1s   -0.42172


 HOMO      8.1    -0.369413 =     -10.0522eV
 LUMO      9.1     0.178461 =       4.8562eV
 LUMO-HOMO         0.547874 =      14.9084eV


 **********************************************************************************************************************************
 DATASETS  * FILE   NREC   LENGTH (MB)   RECORD NAMES
              1      19       30.72       500      610      700      900      950      970     1000      129      960     1100   
                                          VAR    BASINP    GEOM    SYMINP    ZMAT    AOBASIS   BASIS     P2S    ABASIS      S 
                                         1400     1410     1200     1210     1080     1600     1650     1300     1700   
                                           T        V       H0       H01     AOSYM     SMH    MOLCAS    ERIS     OPER   

              2       4        2.86       700     1000      520     2100   
                                         GEOM     BASIS   MCVARS     RHF  

 PROGRAMS   *        TOTAL    HF-SCF       INT
 CPU TIMES  *         0.46      0.10      0.26
 REAL TIME  *         0.69 SEC
 DISK USED  *        35.71 MB
 **********************************************************************************************************************************


 PROGRAM * MULTI (Direct Multiconfiguration SCF)       Authors: P.J. Knowles, H.-J. Werner (1984)


 Number of closed-shell orbitals:   7 (   7 )
 Number of active  orbitals:        2 (   2 )
 Number of external orbitals:      27 (  27 )

 State symmetry 1

 Number of electrons:     2    Spin symmetry=Singlet   Space symmetry=1
 Number of states:        3
 Number of CSFs:          3   (4 determinants, 4 intermediate states)

 Molecular orbitals read from record     2100.2  Type=RHF/CANONICAL (state 1.1)

 EXTRA SYMMETRY OF MOS IN SYMMETRY 1:   1 1 1 1 1 1 1 2 2 1   1 1 1 1 1 1 2 1 2 1   1 1 1 1 1 1 2 2 2 1   1 1 1 2 1 1

 Wavefunction dump at record             2140.2

 Convergence thresholds  0.10E-01 (gradient)  0.10E-05 (energy)  0.10E-02 (step length)

 Weight factors for state symmetry  1:    0.33333   0.33333   0.33333

 Number of orbital rotations:      257   (    14 Core/Active    189 Core/Virtual   0 Active/Active     54 Active/Virtual)
 Total number of variables:        269

 Micro-Iterations solved by the two-step solver

 ITER. MIC  NCI  NEG     ENERGY(VAR)     ENERGY(PROJ)   ENERGY CHANGE     GRAD(0)  GRAD(ORB)   GRAD(CI)     STEP       TIME

   1    3    3    0     -77.72561301     -77.73185605   -0.00624303    0.13260063 0.00000154 0.00000000  0.63D-01      0.07
   2    2    3    0     -77.73175753     -77.73176130   -0.00000377    0.00304314 0.00000186 0.00000000  0.16D-02      0.10
   3    2    3    0     -77.73176130     -77.73176130   -0.00000000    0.00000216 0.00000000 0.00000000  0.13D-05      0.14

 ** WVFN ****  CONVERGENCE REACHED, FINAL GRADIENT:  0.13D-11



 Results for state 1.1
 =====================

 !MCSCF STATE  1.1 Energy             -78.044485756691
 Nuclear energy                        33.42130321
 Kinetic energy                        78.10119018
 One electron energy                 -170.29520104
 Two electron energy                   58.82941207
 Virial ratio                           1.99927396

 !MCSCF STATE  1.1 Dipole moment        0.00000000    -0.00000000    -0.00000000
 Dipole moment /Debye                   0.00000000    -0.00000000    -0.00000000

 Results for state 2.1
 =====================

 !MCSCF STATE  2.1 Energy             -77.668473482494
 Nuclear energy                        33.42130321
 Kinetic energy                        78.28163116
 One electron energy                 -169.72219963
 Two electron energy                   58.63242294
 Virial ratio                           1.99216729

 !MCSCF STATE  2.1 Dipole moment        0.00000000    -0.00000000    -0.00000000
 Dipole moment /Debye                   0.00000000    -0.00000000    -0.00000000

 Results for state 3.1
 =====================

 !MCSCF STATE  3.1 Energy             -77.482324666722
 Nuclear energy                        33.42130321
 Kinetic energy                        78.46207214
 One electron energy                 -169.14919823
 Two electron energy                   58.24557035
 Virial ratio                           1.98751311

 !MCSCF STATE  3.1 Dipole moment        0.00000000    -0.00000000    -0.00000000
 Dipole moment /Debye                   0.00000000    -0.00000000    -0.00000000

 State-averaged charge density matrix saved on record  2140.2 (density set 1)

 !MCSCF trans         <2.1|DMY|1.1>     0.013017978594 au =     0.033086234034 Debye
 !MCSCF trans         <3.1|DMY|2.1>     0.019598271532 au =     0.049810574961 Debye

 !MCSCF trans         <2.1|DMZ|1.1>    -1.510192020413 au =    -3.838273835242 Debye
 !MCSCF trans         <3.1|DMZ|2.1>    -2.273559836378 au =    -5.778434208942 Debye


 NATURAL ORBITALS (state averaged)
 =================================

  Orbital  Occupation    Energy     Coefficients
    1.1     2.00000   -11.24096     1 1s    0.70420     2 1s    0.70420
    2.1     2.00000   -11.23963     1 1s    0.70450     2 1s   -0.70450
    3.1     2.00000    -1.04210     1 1s    0.31026     2 1s    0.31026
    4.1     2.00000    -0.80218     1 1s    0.28418     2 1s   -0.28418
    5.1     2.00000    -0.65012     1 2py   0.32541     2 2py   0.32541
    6.1     2.00000    -0.60010     1 2pz   0.40613     2 2pz  -0.40613
    7.1     2.00000    -0.51080     1 2py   0.30798     2 2py  -0.30798
    8.1     1.00000     0.03357     1 2px   0.38025     1 2px   0.68660     2 2px  -0.38025     2 2px  -0.68660
    9.1     1.00000    -0.22552     1 2px   0.35802     1 2px   0.31924     2 2px   0.35802     2 2px   0.31924
   10.1    -0.00000     0.26351     1 1s   -1.49250     1 2pz  -0.65267     2 1s   -1.49250     2 2pz   0.65267     3 1s    1.03431
                                    4 1s    1.04573     5 1s    1.04573     6 1s    1.03431
   11.1    -0.00000     0.28090     1 1s   -0.64361     1 2py  -0.72091     2 1s    0.64361     2 2py  -0.72091     3 1s    1.35403
                                    4 1s   -0.59914     5 1s    0.59914     6 1s   -1.35403
   12.1    -0.00000     0.31114     1 1s   -1.86854     1 2py   0.34775     2 1s    1.86854     2 2py   0.34775     3 1s    0.50477
                                    4 1s    1.50828     5 1s   -1.50828     6 1s   -0.50477
   13.1    -0.00000     0.38684     1 2py   0.25045     1 2py   1.86550     2 2py  -0.25045     2 2py  -1.86550     3 1s   -1.49750
                                    4 1s    1.76387     5 1s    1.76387     6 1s   -1.49750
   14.1    -0.00000     0.48820     1 1s   -2.95757     1 2pz   2.94053     2 1s    2.95757     2 2pz   2.94053     3 1s   -0.52320
                                    4 1s   -0.69141     5 1s    0.69141     6 1s    0.52320
   15.1    -0.00000     0.65795     1 1s    0.25610     1 2pz  -0.54781     1 2pz   1.01679     2 1s    0.25610     2 2pz   0.54781
                                    2 2pz  -1.01679
   16.1    -0.00000     0.75135     1 2py  -0.40921     1 2py   0.78469     2 2py  -0.40921     2 2py   0.78469     3 1s   -0.36200
                                    4 1s    0.39796     5 1s   -0.39796     6 1s    0.36200
   17.1    -0.00000     0.77108     1 2px  -0.74718     1 2px   0.63432     2 2px  -0.74718     2 2px   0.63432
   18.1    -0.00000     0.85982     1 1s   -0.87915     1 1s    1.50481     1 2pz   0.38938     2 1s   -0.87915     2 1s    1.50481
                                    2 2pz  -0.38938     3 1s   -0.40675     4 1s   -0.38799     4 1s   -0.41313     5 1s   -0.38799
                                    5 1s   -0.41313     6 1s   -0.40675
   19.1    -0.00000     0.87270     1 2px  -0.80287     1 2px   1.10450     2 2px   0.80287     2 2px  -1.10450
   20.1    -0.00000     0.93586     1 1s   -0.69293     1 2pz   0.60530     1 2pz  -0.55470     2 1s    0.69293     2 2pz   0.60530
                                    2 2pz  -0.55470     3 1s    0.42751     4 1s    0.34149     5 1s   -0.34149     6 1s   -0.42751
   21.1    -0.00000     1.09553     1 2py   0.65787     1 2py  -1.06909     1 2pz  -0.25295     2 2py   0.65787     2 2py  -1.06909
                                    2 2pz  -0.25295     3 1s   -0.46255     3 1s    1.24061     4 1s    0.27854     4 1s   -0.83269
                                    5 1s   -0.27854     5 1s    0.83269     6 1s    0.46255     6 1s   -1.24061
   22.1    -0.00000     1.13763     1 1s    0.39663     1 1s   -0.52782     1 2py   0.84865     1 2py  -2.65381     2 1s    0.39663
                                    2 1s   -0.52782     2 2py  -0.84865     2 2py   2.65381     3 1s   -0.30175     3 1s    1.63534
                                    4 1s   -1.12646     5 1s   -1.12646     6 1s   -0.30175     6 1s    1.63534
   23.1    -0.00000     1.22412     1 1s    0.94582     1 1s   -1.66114     1 2py  -0.36334     1 2pz   0.33867     1 2py   1.39836
                                    1 2pz  -0.47788     2 1s    0.94582     2 1s   -1.66114     2 2py   0.36334     2 2pz  -0.33867
                                    2 2py  -1.39836     2 2pz   0.47788     3 1s   -0.43041     4 1s   -0.39902     4 1s    1.50486
                                    5 1s   -0.39902     5 1s    1.50486     6 1s   -0.43041
   24.1    -0.00000     1.22916     1 1s   -0.41980     1 2pz  -0.62615     1 2py  -0.27161     1 2pz   1.31789     2 1s    0.41980
                                    2 2pz  -0.62615     2 2py  -0.27161     2 2pz   1.31789     3 1s    0.37474     3 1s   -0.65890
                                    4 1s    0.55376     4 1s   -1.20051     5 1s   -0.55376     5 1s    1.20051     6 1s   -0.37474
                                    6 1s    0.65890
   25.1    -0.00000     1.31924     1 1s   -1.62036     1 1s    5.41881     1 2pz  -1.83853     2 1s    1.62036     2 1s   -5.41881
                                    2 2pz  -1.83853     3 1s   -0.32625     4 1s   -0.45381     5 1s    0.45381     6 1s    0.32625
   26.1    -0.00000     1.46964     1 2py   2.47956     2 2py  -2.47956     3 1s   -0.64993     3 1s   -0.65378     4 1s    0.73863
                                    4 1s    0.63501     5 1s    0.73863     5 1s    0.63501     6 1s   -0.64993     6 1s   -0.65378
   27.1    -0.00000     1.71304     1 3d1+  0.61869     2 3d1+ -0.61869
   28.1    -0.00000     1.80756     1 3d2-  0.68122     2 3d2-  0.68122
   29.1    -0.00000     2.10438     1 3d2-  0.73608     2 3d2- -0.73608
   30.1    -0.00000     2.19213     1 1s   -0.60789     1 3d2+  0.71229     2 1s   -0.60789     2 3d2+  0.71229     3 1s    0.35471
                                    4 1s    0.40006     5 1s    0.40006     6 1s    0.35471
   31.1    -0.00000     2.31286     1 2py   0.28037     1 3d1-  0.68127     2 2py   0.28037     2 3d1- -0.68127     3 1s   -0.53940
                                    4 1s    0.49151     5 1s   -0.49151     6 1s    0.53940
   32.1    -0.00000     2.38654     1 1s   -0.50768     1 2pz   0.28851     1 2pz  -0.44823     1 3d0   0.68959     2 1s   -0.50768
                                    2 2pz  -0.28851     2 2pz   0.44823     2 3d0   0.68959
   33.1    -0.00000     2.61423     1 1s    0.27884     1 1s   -1.33242     1 2pz   0.26448     1 3d2+  0.79164     2 1s   -0.27884
                                    2 1s    1.33242     2 2pz   0.26448     2 3d2+ -0.79164     3 1s    0.34710     4 1s    0.55528
                                    5 1s   -0.55528     6 1s   -0.34710
   34.1    -0.00000     2.68524     1 2px  -0.26522     1 3d1+  0.90305     2 2px   0.26522     2 3d1+  0.90305
   35.1    -0.00000     3.04368     1 1s    0.30843     1 1s    2.05196     1 2pz  -0.78867     1 2pz  -1.19293     1 3d0   1.11347
                                    2 1s   -0.30843     2 1s   -2.05196     2 2pz  -0.78867     2 2pz  -1.19293     2 3d0  -1.11347
   36.1    -0.00000     3.05665     1 2py   0.57214     1 3d1-  0.97116     2 2py  -0.57214     2 3d1-  0.97116     3 1s   -0.42386
                                    4 1s    0.54642     5 1s    0.54642     6 1s   -0.42386


 Natural orbital dump (state averaged) at molpro section  2140.2    (Orbital set 2)



 **********************************************************************************************************************************
 DATASETS  * FILE   NREC   LENGTH (MB)   RECORD NAMES
              1      20       31.45       500      610      700      900      950      970     1000      129      960     1100   
                                          VAR    BASINP    GEOM    SYMINP    ZMAT    AOBASIS   BASIS     P2S    ABASIS      S 
                                         1400     1410     1200     1210     1080     1600     1650     1300     1700     1380   
                                           T        V       H0       H01     AOSYM     SMH    MOLCAS    ERIS     OPER     JKOP   

              2       5        5.42       700     1000      520     2100     2140   
                                         GEOM     BASIS   MCVARS     RHF     MCSCF   

 PROGRAMS   *        TOTAL     MULTI    HF-SCF       INT
 CPU TIMES  *         0.64      0.18      0.10      0.26
 REAL TIME  *         0.89 SEC
 DISK USED  *        38.63 MB
 **********************************************************************************************************************************
 Molecular orbitals read from record     2140.2  Type=MCSCF/NATURAL (state averaged)
 Occupation numbers read from record     2140.2  Type=MCSCF/NATURAL (state averaged)
 Orbital energies read from record       2140.2  Type=MCSCF/NATURAL (state averaged)
 Redundancy group numbers read from rec  2140.2  Type=MCSCF/NATURAL (state averaged)

 MULTI/6-31G* energy=    -77.482324666722

           MULTI          HF-SCF
    -77.48232467    -78.02679461
 **********************************************************************************************************************************
 Molpro calculation terminated
