
 Primary working directories    : /scratch.local/johan406.molpro_temp/molpro.1GVLmZBIUp
 Secondary working directories  : /scratch.local/johan406.molpro_temp/molpro.1GVLmZBIUp
 Wavefunction directory         : /home/goodpast/johan406/wfu/
 Main file repository           : /scratch.local/johan406.molpro_temp/molpro.1GVLmZBIUp/

 id        : roweumn

 Nodes     nprocs
 cn0117       1

 Using customized tuning parameters: mindgm=1; mindgv=20; mindgc=4; mindgr=1; noblas=0; minvec=7
 default implementation of scratch files=df  


 Variables initialized (934), CPU time= 0.00 sec
                                                                                 !leave this line blank
 
 gprint, orbitals=30
 memory, 125., m
 symmetry, nosym
 nelect=16
 basis=6-31g*
 
 geometry={
 C 0.0 -0.0059 0.6691
 C 0.0 0.0059 -0.6691
 H 0.0 0.9502 1.2566
 H -0.0 -0.8796 1.2129
 H 0.0 0.8796 -1.2129
 H 0.0 -0.9502 -1.2566
 }
 
 hf
 {multi,
 closed 7
 occ 9
 wf,spin=0;STATE,3
 }
 
 Commands  initialized (763), CPU time= 0.01 sec, 617 directives.
 Default parameters read. Elapsed time= 0.09 sec

 Checking input...
 Passed
1


                                         ***  PROGRAM SYSTEM MOLPRO  ***
                                       Copyright, TTI GmbH Stuttgart, 2015
                                    Version 2019.2 linked Oct 25 2019 22:50:27


 **********************************************************************************************************************************
 LABEL *                                                                                 
  64 bit serial version                                                                  DATE: 26-Jan-23          TIME: 21:01:49  
 **********************************************************************************************************************************

 SHA1:             8dbd9ae1082e4ce945b0f27595c9eb2d4aa09004
 **********************************************************************************************************************************


 Variable memory set to  125000000 words,  buffer space 

 SETTING NELECT         =        16.00000000                                  
 SETTING BASIS          =    6-31G*
 ZSYMEL=NOSYM


Geometry recognized as XYZ



 Recomputing integrals since basis changed


 Using spherical harmonics

 Library entry C      S 6-31G                selected for orbital group  1
 Library entry C      P 6-31G                selected for orbital group  1
 Library entry C      D 6-31G*               selected for orbital group  1
 Library entry H      S 6-31G                selected for orbital group  2


 PROGRAM * SEWARD (Integral evaluation for generally contracted gaussian basis sets)     Author: Roland Lindh, 1990

 Geometry written to block  1 of record 700


 Point group  C1  



 ATOMIC COORDINATES

 NR  ATOM    CHARGE       X              Y              Z

   1  C       6.00    0.000000000   -0.011149384    1.264415750
   2  C       6.00    0.000000000    0.011149384   -1.264415750
   3  H       1.00    0.000000000    1.795617764    2.374629848
   4  H       1.00    0.000000000   -1.662203099    2.292048816
   5  H       1.00    0.000000000    1.662203099   -2.292048816
   6  H       1.00    0.000000000   -1.795617764   -2.374629848

 Bond lengths in Bohr (Angstrom)

 1-2  2.528929811  1-3  2.120609080  1-4  1.944738566  2-5  1.944738566  2-6  2.120609080
     ( 1.338252024)     ( 1.122177998)     ( 1.029111330)     ( 1.029111330)     ( 1.122177998)

 Bond angles

  1-2-5  122.40377578   1-2-6  121.06449440   2-1-3  121.06449440   2-1-4  122.40377578

  3-1-4  116.53172981   5-2-6  116.53172981

 NUCLEAR CHARGE:                   16
 NUMBER OF PRIMITIVE AOS:          72
 NUMBER OF SYMMETRY AOS:           70
 NUMBER OF CONTRACTIONS:           36   (   36A   )
 NUMBER OF CORE ORBITALS:           2   (    2A   )
 NUMBER OF VALENCE ORBITALS:       12   (   12A   )


 NUCLEAR REPULSION ENERGY   33.42952008

 EXTRA SYMMETRY OF AOS IN SYMMETRY 1:   1 1 1 2 1 1 2 1 1 1   2 2 1 1 1 1 1 2 1 1   2 1 1 1 2 2 1 1 1 1   1 1 1 1 1 1

 Eigenvalues of metric

         1 0.831E-02 0.167E-01 0.385E-01 0.443E-01 0.730E-01 0.193E+00 0.207E+00 0.226E+00


 Contracted 2-electron integrals neglected if value below      1.0D-11
 AO integral compression algorithm  1   Integral accuracy      1.0D-11

     1.049 MB (compressed) written to integral file ( 36.5%)


 NUMBER OF SORTED TWO-ELECTRON INTEGRALS:     222111.     BUFFER LENGTH:  32768
 NUMBER OF SEGMENTS:   1  SEGMENT LENGTH:     222111      RECORD LENGTH: 524288

 Memory used in sort:       0.78 MW

 SORT1 READ      284735. AND WROTE      118713. INTEGRALS IN      1 RECORDS. CPU TIME:     0.01 SEC, REAL TIME:     0.01 SEC
 SORT2 READ      118713. AND WROTE      222111. INTEGRALS IN      4 RECORDS. CPU TIME:     0.01 SEC, REAL TIME:     0.02 SEC

 FILE SIZES:   FILE 1:    31.1 MBYTE,  FILE 4:     4.2 MBYTE,   TOTAL:     35.4 MBYTE

 OPERATOR DM      FOR CENTER  0  COORDINATES:    0.000000    0.000000    0.000000


 **********************************************************************************************************************************
 DATASETS  * FILE   NREC   LENGTH (MB)   RECORD NAMES
              1      19       30.72       500      610      700      900      950      970     1000      129      960     1100   
                                          VAR    BASINP    GEOM    SYMINP    ZMAT    AOBASIS   BASIS     P2S    ABASIS      S 
                                         1400     1410     1200     1210     1080     1600     1650     1300     1700   
                                           T        V       H0       H01     AOSYM     SMH    MOLCAS    ERIS     OPER   

 PROGRAMS   *        TOTAL       INT
 CPU TIMES  *         0.36      0.26
 REAL TIME  *         0.57 SEC
 DISK USED  *        35.71 MB
 **********************************************************************************************************************************


 PROGRAM * RHF-SCF (CLOSED SHELL)       Authors: W. Meyer, H.-J. Werner


 NUMBER OF ELECTRONS:       8+    8-    SPACE SYMMETRY=1    SPIN SYMMETRY: Singlet 
 CONVERGENCE THRESHOLDS:    1.00E-05 (Density)    1.00E-07 (Energy)
 MAX. NUMBER OF ITERATIONS:       60
 INTERPOLATION TYPE:            DIIS
 INTERPOLATION STEPS:              2 (START)      1 (STEP)
 LEVEL SHIFTS:                  0.00 (CLOSED)  0.00 (OPEN) 



 Orbital guess generated from atomic densities. Full valence occupancy:    8

 Molecular orbital dump at record        2100.2

 Initial occupancy:   8

 ITERATION    DDIFF          GRAD             ENERGY        2-EL.EN.            DIPOLE MOMENTS         DIIS   ORB.
    1      0.000D+00      0.000D+00       -78.00002197    118.760478   -0.00000    0.00000   -0.00000    0    start
    2      0.000D+00      0.864D-02       -78.02229873    116.899729    0.00000   -0.00000    0.00000    1    diag
    3      0.828D-02      0.295D-02       -78.02446939    117.534685    0.00000    0.00000   -0.00000    2    diag
    4      0.266D-02      0.719D-03       -78.02468537    117.435140    0.00000    0.00000    0.00000    3    diag
    5      0.108D-02      0.700D-04       -78.02468765    117.437947    0.00000   -0.00000    0.00000    4    diag
    6      0.150D-03      0.852D-05       -78.02468769    117.437501    0.00000    0.00000   -0.00000    5    diag
    7      0.166D-04      0.139D-05       -78.02468769    117.437509    0.00000    0.00000    0.00000    6    diag
    8      0.276D-05      0.194D-06       -78.02468769    117.437503    0.00000    0.00000   -0.00000    0    orth

 Final occupancy:   8

 !RHF STATE  1.1 Energy               -78.024687687484
 Nuclear energy                        33.42952008
 One-electron energy                 -170.17295911
 Two-electron energy                   58.71875135
 Virial quotient                       -0.99982035
 !RHF STATE  1.1 Dipole moment          0.00000000     0.00000000    -0.00000000
 Dipole moment /Debye                   0.00000000     0.00000000    -0.00000000

 ELECTRON ORBITALS
 =================

  Orbital  Occupation    Energy     Coefficients
    1.1     2.00000   -11.22533     1 1s    0.70418     2 1s    0.70418
    2.1     2.00000   -11.22373     1 1s    0.70454     2 1s   -0.70454
    3.1     2.00000    -1.02770     1 1s    0.30228     2 1s    0.30228
    4.1     2.00000    -0.79549     2 1s   -0.23794
    5.1     2.00000    -0.63661     1 2py   0.31884     2 2py   0.31884
    6.1     2.00000    -0.58612     1 2pz   0.40238     2 2pz  -0.40238
    7.1     2.00000    -0.50325     1 2py   0.29893     2 2py  -0.29893
    8.1     2.00000    -0.36950     1 2px   0.37348     1 2px   0.30777     2 2px   0.37348     2 2px   0.30777
    9.1     0.00000     0.17838     1 2px   0.34240     1 2px   0.73342     2 2px  -0.34240     2 2px  -0.73342
   10.1     0.00000     0.26615     1 1s   -1.49708     1 2pz  -0.64682     2 1s   -1.49708     2 2pz   0.64682     3 1s    1.02698
                                    4 1s    1.05381     5 1s    1.05381     6 1s    1.02698
   11.1     0.00000     0.28647     1 1s   -0.79499     1 2py  -0.68383     2 1s    0.79499     2 2py  -0.68383     3 1s    1.39233
                                    4 1s   -0.44096     5 1s    0.44096     6 1s   -1.39233
   12.1     0.00000     0.31668     1 1s   -1.79173     1 2py   0.43376     2 1s    1.79173     2 2py   0.43376     3 1s    0.34911
                                    4 1s    1.59487     5 1s   -1.59487     6 1s   -0.34911
   13.1     0.00000     0.39076     1 1s   -0.27180     1 2py   1.87937     2 1s   -0.27180     2 2py  -1.87937     3 1s   -1.47919
                                    4 1s    1.79965     5 1s    1.79965     6 1s   -1.47919
   14.1     0.00000     0.49109     1 1s   -2.97402     1 2pz   2.95999     2 1s    2.97402     2 2pz   2.95999     3 1s   -0.49537
                                    4 1s   -0.70729     5 1s    0.70729     6 1s    0.49537
   15.1     0.00000     0.66935     1 1s    0.25750     1 2pz  -0.55570     1 2pz   1.04127     2 1s    0.25750     2 2pz   0.55570
                                    2 2pz  -1.04127
   16.1     0.00000     0.76169     1 1s   -0.27160     1 2py  -0.39770     1 2py   0.77982     2 1s    0.27160     2 2py  -0.39770
                                    2 2py   0.77982     3 1s   -0.36437     4 1s    0.40339     5 1s   -0.40339     6 1s    0.36437
   17.1     0.00000     0.77702     1 2px  -0.74054     1 2px   0.63962     2 2px  -0.74054     2 2px   0.63962
   18.1     0.00000     0.86272     1 1s   -0.88482     1 1s    1.48783     1 2py  -0.28740     1 2pz   0.34417     2 1s   -0.88482
                                    2 1s    1.48783     2 2py   0.28740     2 2pz  -0.34417     3 1s   -0.40752     4 1s   -0.38400
                                    4 1s   -0.43976     5 1s   -0.38400     5 1s   -0.43976     6 1s   -0.40752
   19.1     0.00000     0.89021     1 2px  -0.81840     1 2px   1.07416     2 2px   0.81840     2 2px  -1.07416
   20.1     0.00000     0.95490     1 1s   -0.84290     1 2pz   0.59936     1 2pz  -0.47044     2 1s    0.84290     2 2pz   0.59936
                                    2 2pz  -0.47044     3 1s    0.43773     4 1s    0.33207     5 1s   -0.33207     6 1s   -0.43773
   21.1     0.00000     1.10712     1 2py   0.65435     1 2py  -1.04313     1 2pz  -0.32621     2 2py   0.65435     2 2py  -1.04313
                                    2 2pz  -0.32621     3 1s   -0.48134     3 1s    1.27275     4 1s   -0.73128     5 1s    0.73128
                                    6 1s    0.48134     6 1s   -1.27275
   22.1     0.00000     1.14395     1 1s    0.48913     1 1s   -0.66000     1 2py   0.81135     1 2py  -2.48965     2 1s    0.48913
                                    2 1s   -0.66000     2 2py  -0.81135     2 2py   2.48965     3 1s   -0.33661     3 1s    1.61686
                                    4 1s   -0.98013     5 1s   -0.98013     6 1s   -0.33661     6 1s    1.61686
   23.1     0.00000     1.23365     1 1s   -0.90392     1 1s    1.62822     1 2py   0.44666     1 2pz  -0.31901     1 2py  -1.70700
                                    1 2pz   0.45966     2 1s   -0.90392     2 1s    1.62822     2 2py  -0.44666     2 2pz   0.31901
                                    2 2py   1.70700     2 2pz  -0.45966     3 1s    0.41767     4 1s    0.38204     4 1s   -1.63580
                                    5 1s    0.38204     5 1s   -1.63580     6 1s    0.41767
   24.1     0.00000     1.23732     1 1s   -0.47207     1 1s    0.36918     1 2pz  -0.59987     1 2py  -0.35306     1 2pz   1.22389
                                    2 1s    0.47207     2 1s   -0.36918     2 2pz  -0.59987     2 2py  -0.35306     2 2pz   1.22389
                                    3 1s    0.33625     3 1s   -0.57684     4 1s    0.57310     4 1s   -1.28063     5 1s   -0.57310
                                    5 1s    1.28063     6 1s   -0.33625     6 1s    0.57684
   25.1     0.00000     1.33899     1 1s   -1.59939     1 1s    5.39437     1 2pz   0.25198     1 2pz  -1.89176     2 1s    1.59939
                                    2 1s   -5.39437     2 2pz   0.25198     2 2pz  -1.89176     3 1s   -0.28161     4 1s   -0.41832
                                    5 1s    0.41832     6 1s    0.28161
   26.1     0.00000     1.48030     1 2py   2.44315     2 2py  -2.44315     3 1s   -0.64040     3 1s   -0.64024     4 1s    0.74868
                                    4 1s    0.61833     5 1s    0.74868     5 1s    0.61833     6 1s   -0.64040     6 1s   -0.64024
   27.1     0.00000     1.73853     1 3d1+  0.61891     2 3d1+ -0.61891
   28.1     0.00000     1.82125     1 3d2-  0.68122     2 3d2-  0.68122
   29.1     0.00000     2.12731     1 3d2-  0.73602     2 3d2- -0.73602
   30.1     0.00000     2.20714     1 1s   -0.61379     1 3d2+  0.71234     2 1s   -0.61379     2 3d2+  0.71234     3 1s    0.34776
                                    4 1s    0.40376     5 1s    0.40376     6 1s    0.34776
   31.1     0.00000     2.32697     1 2py   0.27162     1 3d1-  0.67888     2 2py   0.27162     2 3d1- -0.67888     3 1s   -0.53618
                                    4 1s    0.48148     5 1s   -0.48148     6 1s    0.53618
   32.1     0.00000     2.40606     1 1s   -0.51036     1 2pz   0.28292     1 2pz  -0.44450     1 3d0   0.68995     2 1s   -0.51036
                                    2 2pz  -0.28292     2 2pz   0.44450     2 3d0   0.68995
   33.1     0.00000     2.63727     1 1s    0.27202     1 1s   -1.31717     1 2pz   0.26247     1 3d2+  0.78939     2 1s   -0.27202
                                    2 1s    1.31717     2 2pz   0.26247     2 3d2+ -0.78939     3 1s    0.32430     4 1s    0.57506
                                    5 1s   -0.57506     6 1s   -0.32430
   34.1     0.00000     2.70756     1 2px  -0.26443     1 3d1+  0.90264     2 2px   0.26443     2 3d1+  0.90264
   35.1     0.00000     3.06144     1 1s    0.31533     1 1s    2.02720     1 2pz  -0.79604     1 2pz  -1.17990     1 3d0   1.11176
                                    2 1s   -0.31533     2 1s   -2.02720     2 2pz  -0.79604     2 2pz  -1.17990     2 3d0  -1.11176
   36.1     0.00000     3.07172     1 2py   0.57389     1 3d1-  0.97169     2 2py  -0.57389     2 3d1-  0.97169     3 1s   -0.40924
                                    4 1s    0.56010     5 1s    0.56010     6 1s   -0.40924


 HOMO      8.1    -0.369500 =     -10.0546eV
 LUMO      9.1     0.178383 =       4.8541eV
 LUMO-HOMO         0.547883 =      14.9087eV


 **********************************************************************************************************************************
 DATASETS  * FILE   NREC   LENGTH (MB)   RECORD NAMES
              1      19       30.72       500      610      700      900      950      970     1000      129      960     1100   
                                          VAR    BASINP    GEOM    SYMINP    ZMAT    AOBASIS   BASIS     P2S    ABASIS      S 
                                         1400     1410     1200     1210     1080     1600     1650     1300     1700   
                                           T        V       H0       H01     AOSYM     SMH    MOLCAS    ERIS     OPER   

              2       4        2.86       700     1000      520     2100   
                                         GEOM     BASIS   MCVARS     RHF  

 PROGRAMS   *        TOTAL    HF-SCF       INT
 CPU TIMES  *         0.46      0.10      0.26
 REAL TIME  *         0.70 SEC
 DISK USED  *        35.71 MB
 **********************************************************************************************************************************


 PROGRAM * MULTI (Direct Multiconfiguration SCF)       Authors: P.J. Knowles, H.-J. Werner (1984)


 Number of closed-shell orbitals:   7 (   7 )
 Number of active  orbitals:        2 (   2 )
 Number of external orbitals:      27 (  27 )

 State symmetry 1

 Number of electrons:     2    Spin symmetry=Singlet   Space symmetry=1
 Number of states:        3
 Number of CSFs:          3   (4 determinants, 4 intermediate states)

 Molecular orbitals read from record     2100.2  Type=RHF/CANONICAL (state 1.1)

 EXTRA SYMMETRY OF MOS IN SYMMETRY 1:   1 1 1 1 1 1 1 2 2 1   1 1 1 1 1 1 2 1 2 1   1 1 1 1 1 1 2 2 2 1   1 1 1 2 1 1

 Wavefunction dump at record             2140.2

 Convergence thresholds  0.10E-01 (gradient)  0.10E-05 (energy)  0.10E-02 (step length)

 Weight factors for state symmetry  1:    0.33333   0.33333   0.33333

 Number of orbital rotations:      257   (    14 Core/Active    189 Core/Virtual   0 Active/Active     54 Active/Virtual)
 Total number of variables:        269

 Micro-Iterations solved by the two-step solver

 ITER. MIC  NCI  NEG     ENERGY(VAR)     ENERGY(PROJ)   ENERGY CHANGE     GRAD(0)  GRAD(ORB)   GRAD(CI)     STEP       TIME

   1    3    3    0     -77.72350467     -77.72974576   -0.00624110    0.13257772 0.00000154 0.00000000  0.63D-01      0.07
   2    2    3    0     -77.72964729     -77.72965106   -0.00000377    0.00304211 0.00000186 0.00000000  0.16D-02      0.10
   3    2    3    0     -77.72965106     -77.72965106   -0.00000000    0.00000216 0.00000000 0.00000000  0.13D-05      0.13

 ** WVFN ****  CONVERGENCE REACHED, FINAL GRADIENT:  0.13D-11



 Results for state 1.1
 =====================

 !MCSCF STATE  1.1 Energy             -78.042389690939
 Nuclear energy                        33.42952008
 Kinetic energy                        78.10670582
 One electron energy                 -170.30482504
 Two electron energy                   58.83291527
 Virial ratio                           1.99917656

 !MCSCF STATE  1.1 Dipole moment        0.00000000     0.00000000    -0.00000000
 Dipole moment /Debye                   0.00000000     0.00000000    -0.00000000

 Results for state 2.1
 =====================

 !MCSCF STATE  2.1 Energy             -77.666344151861
 Nuclear energy                        33.42952008
 Kinetic energy                        78.28729056
 One electron energy                 -169.73212666
 Two electron energy                   58.63626243
 Virial ratio                           1.99206836

 !MCSCF STATE  2.1 Dipole moment        0.00000000     0.00000000    -0.00000000
 Dipole moment /Debye                   0.00000000     0.00000000    -0.00000000

 Results for state 3.1
 =====================

 !MCSCF STATE  3.1 Energy             -77.480219345741
 Nuclear energy                        33.42952008
 Kinetic energy                        78.46787529
 One electron energy                 -169.15942829
 Two electron energy                   58.24968886
 Virial ratio                           1.98741324

 !MCSCF STATE  3.1 Dipole moment        0.00000000     0.00000000     0.00000000
 Dipole moment /Debye                   0.00000000     0.00000000     0.00000000

 State-averaged charge density matrix saved on record  2140.2 (density set 1)

 !MCSCF trans         <2.1|DMY|1.1>     0.016009874913 au =     0.040690377880 Debye
 !MCSCF trans         <3.1|DMY|2.1>     0.024104829893 au =     0.061264353559 Debye

 !MCSCF trans         <2.1|DMZ|1.1>    -1.510061614547 au =    -3.837942398300 Debye
 !MCSCF trans         <3.1|DMZ|2.1>    -2.273582932095 au =    -5.778492908554 Debye


 NATURAL ORBITALS (state averaged)
 =================================

  Orbital  Occupation    Energy     Coefficients
    1.1     2.00000   -11.24102     1 1s    0.70420     2 1s    0.70420
    2.1     2.00000   -11.23970     1 1s    0.70450     2 1s   -0.70450
    3.1     2.00000    -1.04234     1 1s    0.31031     2 1s    0.31031
    4.1     2.00000    -0.80329     1 1s    0.28264     2 1s   -0.28264
    5.1     2.00000    -0.64943     1 2py   0.32439     2 2py   0.32439
    6.1     2.00000    -0.60116     1 2pz   0.40481     2 2pz  -0.40481
    7.1     2.00000    -0.51001     1 2py   0.30609     2 2py  -0.30609
    8.1     1.00000     0.03349     1 2px   0.38037     1 2px   0.68641     2 2px  -0.38037     2 2px  -0.68641
    9.1     1.00000    -0.22560     1 2px   0.35808     1 2px   0.31920     2 2px   0.35808     2 2px   0.31920
   10.1    -0.00000     0.26336     1 1s   -1.49195     1 2pz  -0.65225     2 1s   -1.49195     2 2pz   0.65225     3 1s    1.03227
                                    4 1s    1.04631     5 1s    1.04631     6 1s    1.03227
   11.1    -0.00000     0.27871     1 1s   -0.70527     1 2py  -0.69910     2 1s    0.70527     2 2py  -0.69910     3 1s    1.35977
                                    4 1s   -0.52770     5 1s    0.52770     6 1s   -1.35977
   12.1    -0.00000     0.31297     1 1s   -1.85377     1 2py   0.38963     2 1s    1.85377     2 2py   0.38963     3 1s    0.42820
                                    4 1s    1.55813     5 1s   -1.55813     6 1s   -0.42820
   13.1    -0.00000     0.38666     1 1s   -0.27796     1 2py   0.25010     1 2py   1.86514     2 1s   -0.27796     2 2py  -0.25010
                                    2 2py  -1.86514     3 1s   -1.46840     4 1s    1.79717     5 1s    1.79717     6 1s   -1.46840
   14.1    -0.00000     0.48831     1 1s   -2.95218     1 2pz   2.94149     2 1s    2.95218     2 2pz   2.94149     3 1s   -0.50642
                                    4 1s   -0.71409     5 1s    0.71409     6 1s    0.50642
   15.1    -0.00000     0.65796     1 1s    0.25624     1 2pz  -0.54771     1 2pz   1.01744     2 1s    0.25624     2 2pz   0.54771
                                    2 2pz  -1.01744
   16.1    -0.00000     0.75107     1 1s   -0.25867     1 2py  -0.40879     1 2py   0.78730     2 1s    0.25867     2 2py  -0.40879
                                    2 2py   0.78730     3 1s   -0.35693     4 1s    0.40114     5 1s   -0.40114     6 1s    0.35693
   17.1    -0.00000     0.77101     1 2px  -0.74717     1 2px   0.63435     2 2px  -0.74717     2 2px   0.63435
   18.1    -0.00000     0.85987     1 1s   -0.87807     1 1s    1.51261     1 2py  -0.29421     1 2pz   0.39108     2 1s   -0.87807
                                    2 1s    1.51261     2 2py   0.29421     2 2pz  -0.39108     3 1s   -0.40908     4 1s   -0.38591
                                    4 1s   -0.45528     5 1s   -0.38591     5 1s   -0.45528     6 1s   -0.40908
   19.1    -0.00000     0.87261     1 2px  -0.80280     1 2px   1.10461     2 2px   0.80280     2 2px  -1.10461
   20.1    -0.00000     0.93611     1 1s   -0.68473     1 2pz   0.60430     1 2pz  -0.55521     2 1s    0.68473     2 2pz   0.60430
                                    2 2pz  -0.55521     3 1s    0.43753     4 1s    0.33163     5 1s   -0.33163     6 1s   -0.43753
   21.1    -0.00000     1.09284     1 2py   0.64931     1 2py  -1.05446     1 2pz  -0.29978     2 2py   0.64931     2 2py  -1.05446
                                    2 2pz  -0.29978     3 1s   -0.47398     3 1s    1.26249     4 1s    0.25688     4 1s   -0.77970
                                    5 1s   -0.25688     5 1s    0.77970     6 1s    0.47398     6 1s   -1.26249
   22.1    -0.00000     1.13307     1 1s    0.45223     1 1s   -0.59657     1 2py   0.82494     1 2py  -2.55517     2 1s    0.45223
                                    2 1s   -0.59657     2 2py  -0.82494     2 2py   2.55517     3 1s   -0.32308     3 1s    1.62198
                                    4 1s   -1.04864     5 1s   -1.04864     6 1s   -0.32308     6 1s    1.62198
   23.1    -0.00000     1.22865     1 1s   -0.91717     1 1s    1.64839     1 2py   0.41475     1 2pz  -0.32797     1 2py  -1.61753
                                    1 2pz   0.47155     2 1s   -0.91717     2 1s    1.64839     2 2py  -0.41475     2 2pz   0.32797
                                    2 2py   1.61753     2 2pz  -0.47155     3 1s    0.43137     4 1s    0.38207     4 1s   -1.60077
                                    5 1s    0.38207     5 1s   -1.60077     6 1s    0.43137
   24.1    -0.00000     1.23338     1 1s   -0.39983     1 2pz  -0.62037     1 2py  -0.32255     1 2pz   1.32335     2 1s    0.39983
                                    2 2pz  -0.62037     2 2py  -0.32255     2 2pz   1.32335     3 1s    0.35526     3 1s   -0.59711
                                    4 1s    0.56697     4 1s   -1.23986     5 1s   -0.56697     5 1s    1.23986     6 1s   -0.35526
                                    6 1s    0.59711
   25.1    -0.00000     1.31948     1 1s   -1.62316     1 1s    5.42030     1 2pz  -1.82750     2 1s    1.62316     2 1s   -5.42030
                                    2 2pz  -1.82750     3 1s   -0.31730     4 1s   -0.47823     5 1s    0.47823     6 1s    0.31730
   26.1    -0.00000     1.47177     1 2py   2.44558     2 2py  -2.44558     3 1s   -0.63829     3 1s   -0.64304     4 1s    0.74803
                                    4 1s    0.61711     5 1s    0.74803     5 1s    0.61711     6 1s   -0.63829     6 1s   -0.64304
   27.1    -0.00000     1.71283     1 3d1+  0.61864     2 3d1+ -0.61864
   28.1    -0.00000     1.80741     1 3d2-  0.68122     2 3d2-  0.68122
   29.1    -0.00000     2.10422     1 3d2-  0.73602     2 3d2- -0.73602
   30.1    -0.00000     2.19175     1 1s   -0.60965     1 3d2+  0.71189     2 1s   -0.60965     2 3d2+  0.71189     3 1s    0.34958
                                    4 1s    0.40582     5 1s    0.40582     6 1s    0.34958
   31.1    -0.00000     2.31061     1 1s    0.25263     1 2py   0.27813     1 3d1-  0.67673     2 1s   -0.25263     2 2py   0.27813
                                    2 3d1- -0.67673     3 1s   -0.54069     4 1s    0.48302     5 1s   -0.48302     6 1s    0.54069
   32.1    -0.00000     2.38597     1 1s   -0.50842     1 2pz   0.28885     1 2pz  -0.44724     1 3d0   0.68977     2 1s   -0.50842
                                    2 2pz  -0.28885     2 2pz   0.44724     2 3d0   0.68977
   33.1    -0.00000     2.61772     1 1s    0.27241     1 1s   -1.32163     1 2pz   0.26099     1 3d2+  0.78827     2 1s   -0.27241
                                    2 1s    1.32163     2 2pz   0.26099     2 3d2+ -0.78827     3 1s    0.32532     4 1s    0.58004
                                    5 1s   -0.58004     6 1s   -0.32532
   34.1    -0.00000     2.68504     1 2px  -0.26520     1 3d1+  0.90303     2 2px   0.26520     2 3d1+  0.90303
   35.1    -0.00000     3.04342     1 1s    0.30825     1 1s    2.05294     1 2pz  -0.78848     1 2pz  -1.19332     1 3d0   1.11340
                                    2 1s   -0.30825     2 1s   -2.05294     2 2pz  -0.78848     2 2pz  -1.19332     2 3d0  -1.11340
   36.1    -0.00000     3.05893     1 2py   0.57396     1 3d1-  0.97131     2 2py  -0.57396     2 3d1-  0.97131     3 1s   -0.41134
                                    4 1s    0.56259     5 1s    0.56259     6 1s   -0.41134


 Natural orbital dump (state averaged) at molpro section  2140.2    (Orbital set 2)



 **********************************************************************************************************************************
 DATASETS  * FILE   NREC   LENGTH (MB)   RECORD NAMES
              1      20       31.45       500      610      700      900      950      970     1000      129      960     1100   
                                          VAR    BASINP    GEOM    SYMINP    ZMAT    AOBASIS   BASIS     P2S    ABASIS      S 
                                         1400     1410     1200     1210     1080     1600     1650     1300     1700     1380   
                                           T        V       H0       H01     AOSYM     SMH    MOLCAS    ERIS     OPER     JKOP   

              2       5        5.42       700     1000      520     2100     2140   
                                         GEOM     BASIS   MCVARS     RHF     MCSCF   

 PROGRAMS   *        TOTAL     MULTI    HF-SCF       INT
 CPU TIMES  *         0.63      0.17      0.10      0.26
 REAL TIME  *         0.90 SEC
 DISK USED  *        38.63 MB
 **********************************************************************************************************************************
 Molecular orbitals read from record     2140.2  Type=MCSCF/NATURAL (state averaged)
 Occupation numbers read from record     2140.2  Type=MCSCF/NATURAL (state averaged)
 Orbital energies read from record       2140.2  Type=MCSCF/NATURAL (state averaged)
 Redundancy group numbers read from rec  2140.2  Type=MCSCF/NATURAL (state averaged)

 MULTI/6-31G* energy=    -77.480219345741

           MULTI          HF-SCF
    -77.48021935    -78.02468769
 **********************************************************************************************************************************
 Molpro calculation terminated
