
 Primary working directories    : /scratch.local/johan406.molpro_temp/molpro.dpO6uHN3En
 Secondary working directories  : /scratch.local/johan406.molpro_temp/molpro.dpO6uHN3En
 Wavefunction directory         : /home/goodpast/johan406/wfu/
 Main file repository           : /scratch.local/johan406.molpro_temp/molpro.dpO6uHN3En/

 id        : roweumn

 Nodes     nprocs
 cn0117       1

 Using customized tuning parameters: mindgm=1; mindgv=20; mindgc=4; mindgr=1; noblas=0; minvec=7
 default implementation of scratch files=df  


 Variables initialized (934), CPU time= 0.01 sec
                                                                                 !leave this line blank
 
 gprint, orbitals=30
 memory, 125., m
 symmetry, nosym
 nelect=16
 basis=6-31g*
 
 geometry={
 C 0.0 -0.0064 0.6691
 C 0.0 0.0064 -0.6691
 H 0.0 0.9535 1.2587
 H -0.0 -0.8763 1.2109
 H 0.0 0.8763 -1.2109
 H 0.0 -0.9535 -1.2587
 }
 
 hf
 {multi,
 closed 7
 occ 9
 wf,spin=0;STATE,3
 }
 
 Commands  initialized (763), CPU time= 0.01 sec, 617 directives.
 Default parameters read. Elapsed time= 0.08 sec

 Checking input...
 Passed
1


                                         ***  PROGRAM SYSTEM MOLPRO  ***
                                       Copyright, TTI GmbH Stuttgart, 2015
                                    Version 2019.2 linked Oct 25 2019 22:50:27


 **********************************************************************************************************************************
 LABEL *                                                                                 
  64 bit serial version                                                                  DATE: 26-Jan-23          TIME: 21:02:00  
 **********************************************************************************************************************************

 SHA1:             8dbd9ae1082e4ce945b0f27595c9eb2d4aa09004
 **********************************************************************************************************************************


 Variable memory set to  125000000 words,  buffer space 

 SETTING NELECT         =        16.00000000                                  
 SETTING BASIS          =    6-31G*
 ZSYMEL=NOSYM


Geometry recognized as XYZ



 Recomputing integrals since basis changed


 Using spherical harmonics

 Library entry C      S 6-31G                selected for orbital group  1
 Library entry C      P 6-31G                selected for orbital group  1
 Library entry C      D 6-31G*               selected for orbital group  1
 Library entry H      S 6-31G                selected for orbital group  2


 PROGRAM * SEWARD (Integral evaluation for generally contracted gaussian basis sets)     Author: Roland Lindh, 1990

 Geometry written to block  1 of record 700


 Point group  C1  



 ATOMIC COORDINATES

 NR  ATOM    CHARGE       X              Y              Z

   1  C       6.00    0.000000000   -0.012094247    1.264415750
   2  C       6.00    0.000000000    0.012094247   -1.264415750
   3  H       1.00    0.000000000    1.801853860    2.378598273
   4  H       1.00    0.000000000   -1.655967003    2.288269364
   5  H       1.00    0.000000000    1.655967003   -2.288269364
   6  H       1.00    0.000000000   -1.801853860   -2.378598273

 Bond lengths in Bohr (Angstrom)

 1-2  2.528947180  1-3  2.128804930  1-4  1.936645001  2-5  1.936645001  2-6  2.128804930
     ( 1.338261215)     ( 1.126515055)     ( 1.024828400)     ( 1.024828400)     ( 1.126515055)

 Bond angles

  1-2-5  122.46391994   1-2-6  121.01149872   2-1-3  121.01149872   2-1-4  122.46391994

  3-1-4  116.52458134   5-2-6  116.52458134

 NUCLEAR CHARGE:                   16
 NUMBER OF PRIMITIVE AOS:          72
 NUMBER OF SYMMETRY AOS:           70
 NUMBER OF CONTRACTIONS:           36   (   36A   )
 NUMBER OF CORE ORBITALS:           2   (    2A   )
 NUMBER OF VALENCE ORBITALS:       12   (   12A   )


 NUCLEAR REPULSION ENERGY   33.43348242

 EXTRA SYMMETRY OF AOS IN SYMMETRY 1:   1 1 1 2 1 1 2 1 1 1   2 2 1 1 1 1 1 2 1 1   2 1 1 1 2 2 1 1 1 1   1 1 1 1 1 1

 Eigenvalues of metric

         1 0.831E-02 0.166E-01 0.386E-01 0.440E-01 0.734E-01 0.193E+00 0.206E+00 0.227E+00


 Contracted 2-electron integrals neglected if value below      1.0D-11
 AO integral compression algorithm  1   Integral accuracy      1.0D-11

     1.049 MB (compressed) written to integral file ( 36.5%)


 NUMBER OF SORTED TWO-ELECTRON INTEGRALS:     222111.     BUFFER LENGTH:  32768
 NUMBER OF SEGMENTS:   1  SEGMENT LENGTH:     222111      RECORD LENGTH: 524288

 Memory used in sort:       0.78 MW

 SORT1 READ      284735. AND WROTE      118715. INTEGRALS IN      1 RECORDS. CPU TIME:     0.01 SEC, REAL TIME:     0.01 SEC
 SORT2 READ      118715. AND WROTE      222111. INTEGRALS IN      4 RECORDS. CPU TIME:     0.02 SEC, REAL TIME:     0.02 SEC

 FILE SIZES:   FILE 1:    31.1 MBYTE,  FILE 4:     4.2 MBYTE,   TOTAL:     35.4 MBYTE

 OPERATOR DM      FOR CENTER  0  COORDINATES:    0.000000    0.000000    0.000000


 **********************************************************************************************************************************
 DATASETS  * FILE   NREC   LENGTH (MB)   RECORD NAMES
              1      19       30.72       500      610      700      900      950      970     1000      129      960     1100   
                                          VAR    BASINP    GEOM    SYMINP    ZMAT    AOBASIS   BASIS     P2S    ABASIS      S 
                                         1400     1410     1200     1210     1080     1600     1650     1300     1700   
                                           T        V       H0       H01     AOSYM     SMH    MOLCAS    ERIS     OPER   

 PROGRAMS   *        TOTAL       INT
 CPU TIMES  *         0.34      0.25
 REAL TIME  *         0.56 SEC
 DISK USED  *        35.71 MB
 **********************************************************************************************************************************


 PROGRAM * RHF-SCF (CLOSED SHELL)       Authors: W. Meyer, H.-J. Werner


 NUMBER OF ELECTRONS:       8+    8-    SPACE SYMMETRY=1    SPIN SYMMETRY: Singlet 
 CONVERGENCE THRESHOLDS:    1.00E-05 (Density)    1.00E-07 (Energy)
 MAX. NUMBER OF ITERATIONS:       60
 INTERPOLATION TYPE:            DIIS
 INTERPOLATION STEPS:              2 (START)      1 (STEP)
 LEVEL SHIFTS:                  0.00 (CLOSED)  0.00 (OPEN) 



 Orbital guess generated from atomic densities. Full valence occupancy:    8

 Molecular orbital dump at record        2100.2

 Initial occupancy:   8

 ITERATION    DDIFF          GRAD             ENERGY        2-EL.EN.            DIPOLE MOMENTS         DIIS   ORB.
    1      0.000D+00      0.000D+00       -77.99875808    118.766802   -0.00000    0.00000   -0.00000    0    start
    2      0.000D+00      0.864D-02       -78.02109605    116.901884    0.00000   -0.00000   -0.00000    1    diag
    3      0.829D-02      0.295D-02       -78.02327529    117.537702   -0.00000    0.00000   -0.00000    2    diag
    4      0.266D-02      0.721D-03       -78.02349260    117.437988   -0.00000    0.00000   -0.00000    3    diag
    5      0.108D-02      0.704D-04       -78.02349491    117.440776    0.00000    0.00000    0.00000    4    diag
    6      0.150D-03      0.860D-05       -78.02349495    117.440328    0.00000    0.00000   -0.00000    5    diag
    7      0.168D-04      0.142D-05       -78.02349495    117.440337    0.00000    0.00000   -0.00000    6    diag
    8      0.290D-05      0.200D-06       -78.02349495    117.440330    0.00000    0.00000   -0.00000    0    orth

 Final occupancy:   8

 !RHF STATE  1.1 Energy               -78.023494948537
 Nuclear energy                        33.43348242
 One-electron energy                 -170.17714226
 Two-electron energy                   58.72016489
 Virial quotient                       -0.99976764
 !RHF STATE  1.1 Dipole moment          0.00000000     0.00000000    -0.00000000
 Dipole moment /Debye                   0.00000000     0.00000000    -0.00000000

 ELECTRON ORBITALS
 =================

  Orbital  Occupation    Energy     Coefficients
    1.1     2.00000   -11.22539     1 1s    0.70418     2 1s    0.70418
    2.1     2.00000   -11.22379     1 1s    0.70454     2 1s   -0.70454
    3.1     2.00000    -1.02785     1 1s    0.30231     2 1s    0.30231
    4.1     2.00000    -0.79611     2 1s   -0.23776
    5.1     2.00000    -0.63621     1 2py   0.31830     2 2py   0.31830
    6.1     2.00000    -0.58673     1 2pz   0.40158     2 2pz  -0.40158
    7.1     2.00000    -0.50278     1 2py   0.29781     2 2py  -0.29781
    8.1     2.00000    -0.36955     1 2px   0.37353     1 2px   0.30774     2 2px   0.37353     2 2px   0.30774
    9.1     0.00000     0.17834     1 2px   0.34247     1 2px   0.73331     2 2px  -0.34247     2 2px  -0.73331
   10.1     0.00000     0.26608     1 1s   -1.49695     1 2pz  -0.64670     2 1s   -1.49695     2 2pz   0.64670     3 1s    1.02545
                                    4 1s    1.05475     5 1s    1.05475     6 1s    1.02545
   11.1     0.00000     0.28528     1 1s   -0.81254     1 2py  -0.67379     2 1s    0.81254     2 2py  -0.67379     3 1s    1.38935
                                    4 1s   -0.41341     5 1s    0.41341     6 1s   -1.38935
   12.1     0.00000     0.31762     1 1s   -1.78817     1 2py   0.44891     2 1s    1.78817     2 2py   0.44891     3 1s    0.32050
                                    4 1s    1.61334     5 1s   -1.61334     6 1s   -0.32050
   13.1     0.00000     0.39065     1 1s   -0.29697     1 2py   1.87895     2 1s   -0.29697     2 2py  -1.87895     3 1s   -1.46535
                                    4 1s    1.81544     5 1s    1.81544     6 1s   -1.46535
   14.1     0.00000     0.49116     1 1s   -2.97108     1 2pz   2.96074     2 1s    2.97108     2 2pz   2.96074     3 1s   -0.48740
                                    4 1s   -0.71882     5 1s    0.71882     6 1s    0.48740
   15.1     0.00000     0.66936     1 1s    0.25918     1 2pz  -0.55565     1 2pz   1.04171     2 1s    0.25918     2 2pz   0.55565
                                    2 2pz  -1.04171
   16.1     0.00000     0.76154     1 1s   -0.29680     1 2py  -0.39754     1 2py   0.78113     2 1s    0.29680     2 2py  -0.39754
                                    2 2py   0.78113     3 1s   -0.36216     4 1s    0.40463     5 1s   -0.40463     6 1s    0.36216
   17.1     0.00000     0.77697     1 2px  -0.74053     1 2px   0.63964     2 2px  -0.74053     2 2px   0.63964
   18.1     0.00000     0.86276     1 1s   -0.88420     1 1s    1.49220     1 2py  -0.31416     1 2pz   0.34538     2 1s   -0.88420
                                    2 1s    1.49220     2 2py   0.31416     2 2pz  -0.34538     3 1s   -0.40871     4 1s   -0.38300
                                    4 1s   -0.46035     5 1s   -0.38300     5 1s   -0.46035     6 1s   -0.40871
   19.1     0.00000     0.89015     1 2px  -0.81836     1 2px   1.07423     2 2px   0.81836     2 2px  -1.07423
   20.1     0.00000     0.95499     1 1s   -0.83779     1 2pz   0.59870     1 2pz  -0.47095     2 1s    0.83779     2 2pz   0.59870
                                    2 2pz  -0.47095     3 1s    0.44271     4 1s    0.32741     5 1s   -0.32741     6 1s   -0.44271
   21.1     0.00000     1.10547     1 1s   -0.25260     1 2py   0.64928     1 2py  -1.03461     1 2pz  -0.34737     2 1s    0.25260
                                    2 2py   0.64928     2 2py  -1.03461     2 2pz  -0.34737     3 1s   -0.48571     3 1s    1.28104
                                    4 1s   -0.70483     5 1s    0.70483     6 1s    0.48571     6 1s   -1.28104
   22.1     0.00000     1.14139     1 1s    0.51125     1 1s   -0.68669     1 2py   0.79978     1 2py  -2.44058     2 1s    0.51125
                                    2 1s   -0.68669     2 2py  -0.79978     2 2py   2.44058     3 1s   -0.34523     3 1s    1.60658
                                    4 1s   -0.94524     5 1s   -0.94524     6 1s   -0.34523     6 1s    1.60658
   23.1     0.00000     1.23613     1 1s   -0.88968     1 1s    1.62314     1 2py   0.46712     1 2pz  -0.31372     1 2py  -1.79839
                                    1 2pz   0.45690     2 1s   -0.88968     2 1s    1.62314     2 2py  -0.46712     2 2pz   0.31372
                                    2 2py   1.79839     2 2pz  -0.45690     3 1s    0.41888     4 1s    0.37326     4 1s   -1.67538
                                    5 1s    0.37326     5 1s   -1.67538     6 1s    0.41888
   24.1     0.00000     1.23983     1 1s   -0.46313     1 1s    0.34703     1 2pz  -0.59628     1 2py  -0.37654     1 2pz   1.22425
                                    2 1s    0.46313     2 1s   -0.34703     2 2pz  -0.59628     2 2py  -0.37654     2 2pz   1.22425
                                    3 1s    0.32666     3 1s   -0.54755     4 1s    0.57885     4 1s   -1.29824     5 1s   -0.57885
                                    5 1s    1.29824     6 1s   -0.32666     6 1s    0.54755
   25.1     0.00000     1.33908     1 1s   -1.60063     1 1s    5.39556     1 2pz   0.25005     1 2pz  -1.88762     2 1s    1.60063
                                    2 1s   -5.39556     2 2pz   0.25005     2 2pz  -1.88762     3 1s   -0.27746     4 1s   -0.42854
                                    5 1s    0.42854     6 1s    0.27746
   26.1     0.00000     1.48138     1 2py   2.42401     2 2py  -2.42401     3 1s   -0.63464     3 1s   -0.63408     4 1s    0.75311
                                    4 1s    0.60820     5 1s    0.75311     5 1s    0.60820     6 1s   -0.63464     6 1s   -0.63408
   27.1     0.00000     1.73840     1 3d1+  0.61888     2 3d1+ -0.61888
   28.1     0.00000     1.82116     1 3d2-  0.68122     2 3d2-  0.68122
   29.1     0.00000     2.12722     1 3d2-  0.73599     2 3d2- -0.73599
   30.1     0.00000     2.20687     1 1s   -0.61480     1 3d2+  0.71211     2 1s   -0.61480     2 3d2+  0.71211     3 1s    0.34519
                                    4 1s    0.40666     5 1s    0.40666     6 1s    0.34519
   31.1     0.00000     2.32569     1 1s    0.26471     1 2py   0.27043     1 3d1-  0.67643     2 1s   -0.26471     2 2py   0.27043
                                    2 3d1- -0.67643     3 1s   -0.53640     4 1s    0.47735     5 1s   -0.47735     6 1s    0.53640
   32.1     0.00000     2.40571     1 1s   -0.51077     1 2pz   0.28313     1 2pz  -0.44396     1 3d0   0.69006     2 1s   -0.51077
                                    2 2pz  -0.28313     2 2pz   0.44396     2 3d0   0.69006
   33.1     0.00000     2.63911     1 1s    0.26853     1 1s   -1.31115     1 2pz   0.26037     1 3d2+  0.78758     2 1s   -0.26853
                                    2 1s    1.31115     2 2pz   0.26037     2 3d2+ -0.78758     3 1s    0.31403     4 1s    0.58694
                                    5 1s   -0.58694     6 1s   -0.31403
   34.1     0.00000     2.70744     1 2px  -0.26442     1 3d1+  0.90263     2 2px   0.26442     2 3d1+  0.90263
   35.1     0.00000     3.06129     1 1s    0.31521     1 1s    2.02784     1 2pz  -0.79592     1 2pz  -1.18019     1 3d0   1.11173
                                    2 1s   -0.31521     2 1s   -2.02784     2 2pz  -0.79592     2 2pz  -1.18019     2 3d0  -1.11173
   36.1     0.00000     3.07301     1 2py   0.57474     1 3d1-  0.97178     2 2py  -0.57474     2 3d1-  0.97178     3 1s   -0.40330
                                    4 1s    0.56805     5 1s    0.56805     6 1s   -0.40330


 HOMO      8.1    -0.369552 =     -10.0560eV
 LUMO      9.1     0.178338 =       4.8528eV
 LUMO-HOMO         0.547890 =      14.9088eV


 **********************************************************************************************************************************
 DATASETS  * FILE   NREC   LENGTH (MB)   RECORD NAMES
              1      19       30.72       500      610      700      900      950      970     1000      129      960     1100   
                                          VAR    BASINP    GEOM    SYMINP    ZMAT    AOBASIS   BASIS     P2S    ABASIS      S 
                                         1400     1410     1200     1210     1080     1600     1650     1300     1700   
                                           T        V       H0       H01     AOSYM     SMH    MOLCAS    ERIS     OPER   

              2       4        2.86       700     1000      520     2100   
                                         GEOM     BASIS   MCVARS     RHF  

 PROGRAMS   *        TOTAL    HF-SCF       INT
 CPU TIMES  *         0.45      0.11      0.25
 REAL TIME  *         0.69 SEC
 DISK USED  *        35.71 MB
 **********************************************************************************************************************************


 PROGRAM * MULTI (Direct Multiconfiguration SCF)       Authors: P.J. Knowles, H.-J. Werner (1984)


 Number of closed-shell orbitals:   7 (   7 )
 Number of active  orbitals:        2 (   2 )
 Number of external orbitals:      27 (  27 )

 State symmetry 1

 Number of electrons:     2    Spin symmetry=Singlet   Space symmetry=1
 Number of states:        3
 Number of CSFs:          3   (4 determinants, 4 intermediate states)

 Molecular orbitals read from record     2100.2  Type=RHF/CANONICAL (state 1.1)

 EXTRA SYMMETRY OF MOS IN SYMMETRY 1:   1 1 1 1 1 1 1 2 2 1   1 1 1 1 1 1 2 1 2 1   1 1 1 1 1 1 2 2 2 1   1 1 1 2 1 1

 Wavefunction dump at record             2140.2

 Convergence thresholds  0.10E-01 (gradient)  0.10E-05 (energy)  0.10E-02 (step length)

 Weight factors for state symmetry  1:    0.33333   0.33333   0.33333

 Number of orbital rotations:      257   (    14 Core/Active    189 Core/Virtual   0 Active/Active     54 Active/Virtual)
 Total number of variables:        269

 Micro-Iterations solved by the two-step solver

 ITER. MIC  NCI  NEG     ENERGY(VAR)     ENERGY(PROJ)   ENERGY CHANGE     GRAD(0)  GRAD(ORB)   GRAD(CI)     STEP       TIME

   1    3    3    0     -77.72231043     -77.72855061   -0.00624018    0.13256584 0.00000154 0.00000000  0.63D-01      0.06
   2    2    3    0     -77.72845215     -77.72845592   -0.00000377    0.00304168 0.00000186 0.00000000  0.16D-02      0.10
   3    2    3    0     -77.72845592     -77.72845592   -0.00000000    0.00000216 0.00000000 0.00000000  0.13D-05      0.13

 ** WVFN ****  CONVERGENCE REACHED, FINAL GRADIENT:  0.13D-11



 Results for state 1.1
 =====================

 !MCSCF STATE  1.1 Energy             -78.041202960304
 Nuclear energy                        33.43348242
 Kinetic energy                        78.10956204
 One electron energy                 -170.30895870
 Two electron energy                   58.83427333
 Virial ratio                           1.99912483

 !MCSCF STATE  1.1 Dipole moment        0.00000000    -0.00000000     0.00000000
 Dipole moment /Debye                   0.00000000    -0.00000000     0.00000000

 Results for state 2.1
 =====================

 !MCSCF STATE  2.1 Energy             -77.665138224680
 Nuclear energy                        33.43348242
 Kinetic energy                        78.29022391
 One electron energy                 -169.73643144
 Two electron energy                   58.63781080
 Virial ratio                           1.99201579

 !MCSCF STATE  2.1 Dipole moment        0.00000000    -0.00000000     0.00000000
 Dipole moment /Debye                   0.00000000    -0.00000000     0.00000000

 Results for state 3.1
 =====================

 !MCSCF STATE  3.1 Energy             -77.479026582717
 Nuclear energy                        33.43348242
 Kinetic energy                        78.47088578
 One electron energy                 -169.16390418
 Two electron energy                   58.25139518
 Virial ratio                           1.98736016

 !MCSCF STATE  3.1 Dipole moment        0.00000000    -0.00000000    -0.00000000
 Dipole moment /Debye                   0.00000000    -0.00000000    -0.00000000

 State-averaged charge density matrix saved on record  2140.2 (density set 1)

 !MCSCF trans         <2.1|DMY|1.1>     0.017386870616 au =     0.044190122621 Debye
 !MCSCF trans         <3.1|DMY|2.1>     0.026179489694 au =     0.066537267416 Debye

 !MCSCF trans         <2.1|DMZ|1.1>    -1.509986652120 au =    -3.837751875294 Debye
 !MCSCF trans         <3.1|DMZ|2.1>    -2.273593728798 au =    -5.778520349239 Debye


 NATURAL ORBITALS (state averaged)
 =================================

  Orbital  Occupation    Energy     Coefficients
    1.1     2.00000   -11.24107     1 1s    0.70420     2 1s    0.70420
    2.1     2.00000   -11.23975     1 1s    0.70450     2 1s   -0.70450
    3.1     2.00000    -1.04247     1 1s    0.31034     2 1s    0.31034
    4.1     2.00000    -0.80391     1 1s    0.28179     2 1s   -0.28179
    5.1     2.00000    -0.64901     1 2py   0.32383     2 2py   0.32383
    6.1     2.00000    -0.60175     1 2pz   0.40412     2 2pz  -0.40412
    7.1     2.00000    -0.50955     1 2py   0.30507     2 2py  -0.30507
    8.1     1.00000     0.03345     1 2px   0.38043     1 2px   0.68630     2 2px  -0.38043     2 2px  -0.68630
    9.1     1.00000    -0.22564     1 2px   0.35812     1 2px   0.31917     2 2px   0.35812     2 2px   0.31917
   10.1    -0.00000     0.26328     1 1s   -1.49161     1 2pz  -0.65205     2 1s   -1.49161     2 2pz   0.65205     3 1s    1.03118
                                    4 1s    1.04655     5 1s    1.04655     6 1s    1.03118
   11.1    -0.00000     0.27754     1 1s   -0.72785     1 2py  -0.68914     2 1s    0.72785     2 2py  -0.68914     3 1s    1.35935
                                    4 1s   -0.49798     5 1s    0.49798     6 1s   -1.35935
   12.1    -0.00000     0.31390     1 1s   -1.84910     1 2py   0.40677     2 1s    1.84910     2 2py   0.40677     3 1s    0.39665
                                    4 1s    1.57923     5 1s   -1.57923     6 1s   -0.39665
   13.1    -0.00000     0.38657     1 1s   -0.30368     1 2py   1.86475     2 1s   -0.30368     2 2py  -1.86475     3 1s   -1.45423
                                    4 1s    1.81337     5 1s    1.81337     6 1s   -1.45423
   14.1    -0.00000     0.48838     1 1s   -2.94937     1 2pz   2.94219     2 1s    2.94937     2 2pz   2.94219     3 1s   -0.49857
                                    4 1s   -0.72534     5 1s    0.72534     6 1s    0.49857
   15.1    -0.00000     0.65797     1 1s    0.25643     1 2pz  -0.54765     1 2pz   1.01782     2 1s    0.25643     2 2pz   0.54765
                                    2 2pz  -1.01782
   16.1    -0.00000     0.75090     1 1s   -0.28268     1 2py  -0.40858     1 2py   0.78864     2 1s    0.28268     2 2py  -0.40858
                                    2 2py   0.78864     3 1s   -0.35446     4 1s    0.40258     5 1s   -0.40258     6 1s    0.35446
   17.1    -0.00000     0.77097     1 2px  -0.74717     1 2px   0.63436     2 2px  -0.74717     2 2px   0.63436
   18.1    -0.00000     0.85992     1 1s   -0.87742     1 1s    1.51703     1 2py  -0.32162     1 2pz   0.39225     2 1s   -0.87742
                                    2 1s    1.51703     2 2py   0.32162     2 2pz  -0.39225     3 1s   -0.41026     4 1s   -0.38492
                                    4 1s   -0.47629     5 1s   -0.38492     5 1s   -0.47629     6 1s   -0.41026
   19.1    -0.00000     0.87255     1 2px  -0.80277     1 2px   1.10467     2 2px   0.80277     2 2px  -1.10467
   20.1    -0.00000     0.93624     1 1s   -0.67963     1 2pz   0.60371     1 2pz  -0.55578     2 1s    0.67963     2 2pz   0.60371
                                    2 2pz  -0.55578     3 1s    0.44242     4 1s    0.32689     5 1s   -0.32689     6 1s   -0.44242
   21.1    -0.00000     1.09137     1 2py   0.64493     1 2py  -1.04692     1 2pz  -0.32051     2 2py   0.64493     2 2py  -1.04692
                                    2 2pz  -0.32051     3 1s   -0.47856     3 1s    1.27101     4 1s   -0.75512     5 1s    0.75512
                                    6 1s    0.47856     6 1s   -1.27101
   22.1    -0.00000     1.13067     1 1s    0.47543     1 1s   -0.62465     1 2py   0.81384     1 2py  -2.50800     2 1s    0.47543
                                    2 1s   -0.62465     2 2py  -0.81384     2 2py   2.50800     3 1s   -0.33201     3 1s    1.61322
                                    4 1s   -1.01393     5 1s   -1.01393     6 1s   -0.33201     6 1s    1.61322
   23.1    -0.00000     1.23096     1 1s   -0.90343     1 1s    1.64387     1 2py   0.43623     1 2pz  -0.32274     1 2py  -1.71298
                                    1 2pz   0.46884     2 1s   -0.90343     2 1s    1.64387     2 2py  -0.43623     2 2pz   0.32274
                                    2 2py   1.71298     2 2pz  -0.46884     3 1s    0.43273     4 1s    0.37338     4 1s   -1.64256
                                    5 1s    0.37338     5 1s   -1.64256     6 1s    0.43273
   24.1    -0.00000     1.23566     1 1s   -0.38883     1 2pz  -0.61757     1 2py  -0.34525     1 2pz   1.32713     2 1s    0.38883
                                    2 2pz  -0.61757     2 2py  -0.34525     2 2pz   1.32713     3 1s    0.34654     3 1s   -0.56878
                                    4 1s    0.57265     4 1s   -1.25652     5 1s   -0.57265     5 1s    1.25652     6 1s   -0.34654
                                    6 1s    0.56878
   25.1    -0.00000     1.31961     1 1s   -1.62467     1 1s    5.42074     1 2pz  -1.82107     2 1s    1.62467     2 1s   -5.42074
                                    2 2pz  -1.82107     3 1s   -0.31301     4 1s   -0.49119     5 1s    0.49119     6 1s    0.31301
   26.1    -0.00000     1.47287     1 2py   2.42622     2 2py  -2.42622     3 1s   -0.63243     3 1s   -0.63697     4 1s    0.75248
                                    4 1s    0.60671     5 1s    0.75248     5 1s    0.60671     6 1s   -0.63243     6 1s   -0.63697
   27.1    -0.00000     1.71271     1 3d1+  0.61862     2 3d1+ -0.61862
   28.1    -0.00000     1.80733     1 3d2-  0.68122     2 3d2-  0.68122
   29.1    -0.00000     2.10414     1 3d2-  0.73599     2 3d2- -0.73599
   30.1    -0.00000     2.19149     1 1s   -0.61065     1 3d2+  0.71167     2 1s   -0.61065     2 3d2+  0.71167     3 1s    0.34700
                                    4 1s    0.40873     5 1s    0.40873     6 1s    0.34700
   31.1    -0.00000     2.30931     1 1s    0.27358     1 2py   0.27688     1 3d1-  0.67422     2 1s   -0.27358     2 2py   0.27688
                                    2 3d1- -0.67422     3 1s   -0.54096     4 1s    0.47870     5 1s   -0.47870     6 1s    0.54096
   32.1    -0.00000     2.38563     1 1s   -0.50883     1 2pz   0.28906     1 2pz  -0.44668     1 3d0   0.68989     2 1s   -0.50883
                                    2 2pz  -0.28906     2 2pz   0.44668     2 3d0   0.68989
   33.1    -0.00000     2.61960     1 1s    0.26885     1 1s   -1.31535     1 2pz   0.25884     1 3d2+  0.78639     2 1s   -0.26885
                                    2 1s    1.31535     2 2pz   0.25884     2 3d2+ -0.78639     3 1s    0.31489     4 1s    0.59205
                                    5 1s   -0.59205     6 1s   -0.31489
   34.1    -0.00000     2.68492     1 2px  -0.26519     1 3d1+  0.90302     2 2px   0.26519     2 3d1+  0.90302
   35.1    -0.00000     3.04328     1 1s    0.30813     1 1s    2.05358     1 2pz  -0.78836     1 2pz  -1.19361     1 3d0   1.11337
                                    2 1s   -0.30813     2 1s   -2.05358     2 2pz  -0.78836     2 2pz  -1.19361     2 3d0  -1.11337
   36.1    -0.00000     3.06022     1 2py   0.57481     1 3d1-  0.97140     2 2py  -0.57481     2 3d1-  0.97140     3 1s   -0.40538
                                    4 1s    0.57056     5 1s    0.57056     6 1s   -0.40538


 Natural orbital dump (state averaged) at molpro section  2140.2    (Orbital set 2)



 **********************************************************************************************************************************
 DATASETS  * FILE   NREC   LENGTH (MB)   RECORD NAMES
              1      20       31.45       500      610      700      900      950      970     1000      129      960     1100   
                                          VAR    BASINP    GEOM    SYMINP    ZMAT    AOBASIS   BASIS     P2S    ABASIS      S 
                                         1400     1410     1200     1210     1080     1600     1650     1300     1700     1380   
                                           T        V       H0       H01     AOSYM     SMH    MOLCAS    ERIS     OPER     JKOP   

              2       5        5.42       700     1000      520     2100     2140   
                                         GEOM     BASIS   MCVARS     RHF     MCSCF   

 PROGRAMS   *        TOTAL     MULTI    HF-SCF       INT
 CPU TIMES  *         0.62      0.17      0.11      0.25
 REAL TIME  *         0.89 SEC
 DISK USED  *        38.63 MB
 **********************************************************************************************************************************
 Molecular orbitals read from record     2140.2  Type=MCSCF/NATURAL (state averaged)
 Occupation numbers read from record     2140.2  Type=MCSCF/NATURAL (state averaged)
 Orbital energies read from record       2140.2  Type=MCSCF/NATURAL (state averaged)
 Redundancy group numbers read from rec  2140.2  Type=MCSCF/NATURAL (state averaged)

 MULTI/6-31G* energy=    -77.479026582717

           MULTI          HF-SCF
    -77.47902658    -78.02349495
 **********************************************************************************************************************************
 Molpro calculation terminated
