
 Primary working directories    : /scratch.local/johan406.molpro_temp/molpro.clrYdKGlLB
 Secondary working directories  : /scratch.local/johan406.molpro_temp/molpro.clrYdKGlLB
 Wavefunction directory         : /home/goodpast/johan406/wfu/
 Main file repository           : /scratch.local/johan406.molpro_temp/molpro.clrYdKGlLB/

 id        : roweumn

 Nodes     nprocs
 cn0117       1

 Using customized tuning parameters: mindgm=1; mindgv=20; mindgc=4; mindgr=1; noblas=0; minvec=7
 default implementation of scratch files=df  


 Variables initialized (934), CPU time= 0.00 sec
                                                                                 !leave this line blank
 
 gprint, orbitals=30
 memory, 125., m
 symmetry, nosym
 nelect=16
 basis=6-31g*
 
 geometry={
 C 0.0 -0.0109 0.6691
 C 0.0 0.0109 -0.6691
 H 0.0 0.9804 1.2753
 H -0.0 -0.8494 1.1942
 H 0.0 0.8494 -1.1942
 H 0.0 -0.9804 -1.2753
 }
 
 hf
 {multi,
 closed 7
 occ 9
 wf,spin=0;STATE,3
 }
 
 Commands  initialized (763), CPU time= 0.01 sec, 617 directives.
 Default parameters read. Elapsed time= 0.08 sec

 Checking input...
 Passed
1


                                         ***  PROGRAM SYSTEM MOLPRO  ***
                                       Copyright, TTI GmbH Stuttgart, 2015
                                    Version 2019.2 linked Oct 25 2019 22:50:27


 **********************************************************************************************************************************
 LABEL *                                                                                 
  64 bit serial version                                                                  DATE: 26-Jan-23          TIME: 21:03:33  
 **********************************************************************************************************************************

 SHA1:             8dbd9ae1082e4ce945b0f27595c9eb2d4aa09004
 **********************************************************************************************************************************


 Variable memory set to  125000000 words,  buffer space 

 SETTING NELECT         =        16.00000000                                  
 SETTING BASIS          =    6-31G*
 ZSYMEL=NOSYM


Geometry recognized as XYZ



 Recomputing integrals since basis changed


 Using spherical harmonics

 Library entry C      S 6-31G                selected for orbital group  1
 Library entry C      P 6-31G                selected for orbital group  1
 Library entry C      D 6-31G*               selected for orbital group  1
 Library entry H      S 6-31G                selected for orbital group  2


 PROGRAM * SEWARD (Integral evaluation for generally contracted gaussian basis sets)     Author: Roland Lindh, 1990

 Geometry written to block  1 of record 700


 Point group  C1  



 ATOMIC COORDINATES

 NR  ATOM    CHARGE       X              Y              Z

   1  C       6.00    0.000000000   -0.020598015    1.264415750
   2  C       6.00    0.000000000    0.020598015   -1.264415750
   3  H       1.00    0.000000000    1.852687493    2.409967727
   4  H       1.00    0.000000000   -1.605133370    2.256710938
   5  H       1.00    0.000000000    1.605133370   -2.256710938
   6  H       1.00    0.000000000   -1.852687493   -2.409967727

 Bond lengths in Bohr (Angstrom)

 1-2  2.529167030  1-3  2.195788679  1-4  1.869599431  2-5  1.869599431  2-6  2.195788679
     ( 1.338377555)     ( 1.161961329)     ( 0.989349412)     ( 0.989349412)     ( 1.161961329)

 Bond angles

  1-2-5  122.98963121   1-2-6  120.51333273   2-1-3  120.51333273   2-1-4  122.98963121

  3-1-4  116.49703606   5-2-6  116.49703606

 NUCLEAR CHARGE:                   16
 NUMBER OF PRIMITIVE AOS:          72
 NUMBER OF SYMMETRY AOS:           70
 NUMBER OF CONTRACTIONS:           36   (   36A   )
 NUMBER OF CORE ORBITALS:           2   (    2A   )
 NUMBER OF VALENCE ORBITALS:       12   (   12A   )


 NUCLEAR REPULSION ENERGY   33.48507954

 EXTRA SYMMETRY OF AOS IN SYMMETRY 1:   1 1 1 2 1 1 2 1 1 1   2 2 1 1 1 1 1 2 1 1   2 1 1 1 2 2 1 1 1 1   1 1 1 1 1 1

 Eigenvalues of metric

         1 0.831E-02 0.157E-01 0.403E-01 0.410E-01 0.773E-01 0.193E+00 0.199E+00 0.228E+00


 Contracted 2-electron integrals neglected if value below      1.0D-11
 AO integral compression algorithm  1   Integral accuracy      1.0D-11

     1.049 MB (compressed) written to integral file ( 36.6%)


 NUMBER OF SORTED TWO-ELECTRON INTEGRALS:     222111.     BUFFER LENGTH:  32768
 NUMBER OF SEGMENTS:   1  SEGMENT LENGTH:     222111      RECORD LENGTH: 524288

 Memory used in sort:       0.78 MW

 SORT1 READ      284735. AND WROTE      118721. INTEGRALS IN      1 RECORDS. CPU TIME:     0.01 SEC, REAL TIME:     0.00 SEC
 SORT2 READ      118721. AND WROTE      222111. INTEGRALS IN      4 RECORDS. CPU TIME:     0.02 SEC, REAL TIME:     0.03 SEC

 FILE SIZES:   FILE 1:    31.1 MBYTE,  FILE 4:     4.2 MBYTE,   TOTAL:     35.4 MBYTE

 OPERATOR DM      FOR CENTER  0  COORDINATES:    0.000000    0.000000    0.000000


 **********************************************************************************************************************************
 DATASETS  * FILE   NREC   LENGTH (MB)   RECORD NAMES
              1      19       30.72       500      610      700      900      950      970     1000      129      960     1100   
                                          VAR    BASINP    GEOM    SYMINP    ZMAT    AOBASIS   BASIS     P2S    ABASIS      S 
                                         1400     1410     1200     1210     1080     1600     1650     1300     1700   
                                           T        V       H0       H01     AOSYM     SMH    MOLCAS    ERIS     OPER   

 PROGRAMS   *        TOTAL       INT
 CPU TIMES  *         0.35      0.26
 REAL TIME  *         0.57 SEC
 DISK USED  *        35.71 MB
 **********************************************************************************************************************************


 PROGRAM * RHF-SCF (CLOSED SHELL)       Authors: W. Meyer, H.-J. Werner


 NUMBER OF ELECTRONS:       8+    8-    SPACE SYMMETRY=1    SPIN SYMMETRY: Singlet 
 CONVERGENCE THRESHOLDS:    1.00E-05 (Density)    1.00E-07 (Energy)
 MAX. NUMBER OF ITERATIONS:       60
 INTERPOLATION TYPE:            DIIS
 INTERPOLATION STEPS:              2 (START)      1 (STEP)
 LEVEL SHIFTS:                  0.00 (CLOSED)  0.00 (OPEN) 



 Orbital guess generated from atomic densities. Full valence occupancy:    8

 Molecular orbital dump at record        2100.2

 Initial occupancy:   8

 ITERATION    DDIFF          GRAD             ENERGY        2-EL.EN.            DIPOLE MOMENTS         DIIS   ORB.
    1      0.000D+00      0.000D+00       -77.98390137    118.850494   -0.00000    0.00000    0.00000    0    start
    2      0.000D+00      0.874D-02       -78.00695934    116.937079    0.00000    0.00000    0.00000    1    diag
    3      0.844D-02      0.302D-02       -78.00923815    117.582738    0.00000    0.00000    0.00000    2    diag
    4      0.271D-02      0.737D-03       -78.00947073    117.481145    0.00000    0.00000    0.00000    3    diag
    5      0.112D-02      0.749D-04       -78.00947343    117.483711    0.00000    0.00000   -0.00000    4    diag
    6      0.159D-03      0.934D-05       -78.00947347    117.483241    0.00000   -0.00000    0.00000    5    diag
    7      0.190D-04      0.170D-05       -78.00947347    117.483249   -0.00000    0.00000   -0.00000    6    diag
    8      0.409D-05      0.245D-06       -78.00947347    117.483240   -0.00000   -0.00000   -0.00000    0    orth

 Final occupancy:   8

 !RHF STATE  1.1 Energy               -78.009473474899
 Nuclear energy                        33.48507954
 One-electron energy                 -170.23617325
 Two-electron energy                   58.74162024
 Virial quotient                       -0.99912634
 !RHF STATE  1.1 Dipole moment         -0.00000000    -0.00000000    -0.00000000
 Dipole moment /Debye                  -0.00000000    -0.00000000    -0.00000000

 ELECTRON ORBITALS
 =================

  Orbital  Occupation    Energy     Coefficients
    1.1     2.00000   -11.22600     1 1s    0.70418     2 1s    0.70418
    2.1     2.00000   -11.22440     1 1s    0.70454     2 1s   -0.70454
    3.1     2.00000    -1.02964     1 1s    0.30262     2 1s    0.30262
    4.1     2.00000    -0.80313     2 1s   -0.23622
    5.1     2.00000    -0.63195     1 2py   0.31272     2 2py   0.31272
    6.1     2.00000    -0.59340     1 2pz   0.39429     2 2pz  -0.39429
    7.1     2.00000    -0.49782     1 2py   0.28694     2 2py  -0.28694
    8.1     2.00000    -0.37013     1 2px   0.37399     1 2px   0.30737     2 2px   0.37399     2 2px   0.30737
    9.1     0.00000     0.17782     1 2px   0.34330     1 2px   0.73207     2 2px  -0.34330     2 2px  -0.73207
   10.1     0.00000     0.26520     1 1s   -1.49550     1 2pz  -0.64492     2 1s   -1.49550     2 2pz   0.64492     3 1s    1.01248
                                    4 1s    1.06073     5 1s    1.06073     6 1s    1.01248
   11.1     0.00000     0.27479     1 1s   -0.85553     1 2py  -0.61411     2 1s    0.85553     2 2py  -0.61411     3 1s    1.33823
                                    4 1s   -0.27811     5 1s    0.27811     6 1s   -1.33823
   12.1     0.00000     0.32546     1 1s   -1.81938     1 2py   0.52578     2 1s    1.81938     2 2py   0.52578     4 1s    1.73463
                                    5 1s   -1.73463
   13.1     0.00000     0.38938     1 1s   -0.50756     1 2py   1.87563     2 1s   -0.50756     2 2py  -1.87563     3 1s   -1.35463
                                    4 1s    1.95203     5 1s    1.95203     6 1s   -1.35463
   14.1     0.00000     0.49191     1 1s   -2.93534     1 2pz   2.96815     2 1s    2.93534     2 2pz   2.96815     3 1s   -0.42531
                                    4 1s   -0.82145     5 1s    0.82145     6 1s    0.42531
   15.1     0.00000     0.66944     1 1s    0.27954     1 2pz  -0.55501     1 2pz   1.04668     2 1s    0.27954     2 2pz   0.55501
                                    2 2pz  -1.04668
   16.1     0.00000     0.75987     1 1s   -0.50116     1 2py  -0.39544     1 2py   0.79720     2 1s    0.50116     2 2py  -0.39544
                                    2 2py   0.79720     3 1s   -0.34191     4 1s    0.41359     4 1s    0.28620     5 1s   -0.41359
                                    5 1s   -0.28620     6 1s    0.34191
   17.1     0.00000     0.77644     1 2px  -0.74042     1 2px   0.63984     2 2px  -0.74042     2 2px   0.63984
   18.1     0.00000     0.86319     1 1s   -0.87725     1 1s    1.54306     1 2py  -0.53308     1 2pz   0.35782     2 1s   -0.87725
                                    2 1s    1.54306     2 2py   0.53308     2 2pz  -0.35782     3 1s   -0.41858     4 1s   -0.37489
                                    4 1s   -0.63818     5 1s   -0.37489     5 1s   -0.63818     6 1s   -0.41858
   19.1     0.00000     0.88945     1 2px  -0.81795     1 2px   1.07501     2 2px   0.81795     2 2px  -1.07501
   20.1     0.00000     0.95622     1 1s   -0.78274     1 2pz   0.59136     1 2pz  -0.47455     2 1s    0.78274     2 2pz   0.59136
                                    2 2pz  -0.47455     3 1s    0.48369     4 1s    0.28952     5 1s   -0.28952     6 1s   -0.48369
   21.1     0.00000     1.08996     1 1s    0.26267     1 1s   -0.35183     1 2py   0.61027     1 2pz   0.30224     1 2py  -0.96784
                                    1 2pz  -0.47449     2 1s   -0.26267     2 1s    0.35183     2 2py   0.61027     2 2pz   0.30224
                                    2 2py  -0.96784     2 2pz  -0.47449     3 1s   -0.50220     3 1s    1.30906     4 1s   -0.53070
                                    5 1s    0.53070     6 1s    0.50220     6 1s   -1.30906
   22.1     0.00000     1.11914     1 1s    0.62832     1 1s   -0.81308     1 2py   0.72515     1 2py  -2.11035     1 2pz  -0.25092
                                    2 1s    0.62832     2 1s   -0.81308     2 2py  -0.72515     2 2py   2.11035     2 2pz   0.25092
                                    3 1s   -0.38975     3 1s    1.51054     4 1s   -0.73993     5 1s   -0.73993     6 1s   -0.38975
                                    6 1s    1.51054
   23.1     0.00000     1.25736     1 1s   -0.78687     1 1s    1.63504     1 2py   0.57424     1 2pz  -0.27353     1 2py  -2.36766
                                    1 2pz   0.44820     2 1s   -0.78687     2 1s    1.63504     2 2py  -0.57424     2 2pz   0.27353
                                    2 2py   2.36766     2 2pz  -0.44820     3 1s    0.44900     3 1s    0.26203     4 1s    0.29491
                                    4 1s   -1.93503     5 1s    0.29491     5 1s   -1.93503     6 1s    0.44900     6 1s    0.26203
   24.1     0.00000     1.26543     1 1s   -0.35713     1 2py   0.32194     1 2pz  -0.57397     1 2py  -0.51906     1 2pz   1.27529
                                    2 1s    0.35713     2 2py   0.32194     2 2pz  -0.57397     2 2py  -0.51906     2 2pz   1.27529
                                    3 1s    0.27162     3 1s   -0.35749     4 1s    0.61110     4 1s   -1.38874     5 1s   -0.61110
                                    5 1s    1.38874     6 1s   -0.27162     6 1s    0.35749
   25.1     0.00000     1.34030     1 1s   -1.61779     1 1s    5.40784     1 2pz  -1.82482     2 1s    1.61779     2 1s   -5.40784
                                    2 2pz  -1.82482     3 1s   -0.25163     4 1s   -0.54463     5 1s    0.54463     6 1s    0.25163
   26.1     0.00000     1.49531     1 1s   -0.30644     1 2py   2.20657     2 1s   -0.30644     2 2py  -2.20657     3 1s   -0.58312
                                    3 1s   -0.56647     4 1s    0.78728     4 1s    0.49262     5 1s    0.78728     5 1s    0.49262
                                    6 1s   -0.58312     6 1s   -0.56647
   27.1     0.00000     1.73692     1 3d1+  0.61857     2 3d1+ -0.61857
   28.1     0.00000     1.82009     1 3d2-  0.68122     2 3d2-  0.68122
   29.1     0.00000     2.12615     1 3d2-  0.73560     2 3d2- -0.73560
   30.1     0.00000     2.20419     1 1s   -0.62606     1 3d2+  0.70923     2 1s   -0.62606     2 3d2+  0.70923     3 1s    0.32458
                                    4 1s    0.43119     5 1s    0.43119     6 1s    0.32458
   31.1     0.00000     2.31236     1 1s    0.41636     1 2py   0.25899     1 3d1-  0.65169     2 1s   -0.41636     2 2py   0.25899
                                    2 3d1- -0.65169     3 1s   -0.53051     4 1s    0.44464     5 1s   -0.44464     6 1s    0.53051
   32.1     0.00000     2.40194     1 1s   -0.51525     1 2pz   0.28535     1 2pz  -0.43764     1 3d0   0.69111     2 1s   -0.51525
                                    2 2pz  -0.28535     2 2pz   0.43764     2 3d0   0.69111
   33.1     0.00000     2.66015     1 1s   -1.24873     1 3d2+  0.76994     2 1s    1.24873     2 3d2+ -0.76994     4 1s    0.68212
                                    5 1s   -0.68212
   34.1     0.00000     2.70601     1 2px  -0.26429     1 3d1+  0.90251     2 2px   0.26429     2 3d1+  0.90251
   35.1     0.00000     3.05956     1 1s    0.31403     1 1s    2.03475     1 2pz  -0.79450     1 2pz  -1.18307     1 3d0   1.11125
                                    2 1s   -0.31403     2 1s   -2.03475     2 2pz  -0.79450     2 2pz  -1.18307     2 3d0  -1.11125
   36.1     0.00000     3.08799     1 2py   0.58593     1 3d1-  0.97297     2 2py  -0.58593     2 3d1-  0.97297     3 1s   -0.35729
                                    4 1s    0.63811     5 1s    0.63811     6 1s   -0.35729


 HOMO      8.1    -0.370132 =     -10.0718eV
 LUMO      9.1     0.177822 =       4.8388eV
 LUMO-HOMO         0.547953 =      14.9106eV


 **********************************************************************************************************************************
 DATASETS  * FILE   NREC   LENGTH (MB)   RECORD NAMES
              1      19       30.72       500      610      700      900      950      970     1000      129      960     1100   
                                          VAR    BASINP    GEOM    SYMINP    ZMAT    AOBASIS   BASIS     P2S    ABASIS      S 
                                         1400     1410     1200     1210     1080     1600     1650     1300     1700   
                                           T        V       H0       H01     AOSYM     SMH    MOLCAS    ERIS     OPER   

              2       4        2.86       700     1000      520     2100   
                                         GEOM     BASIS   MCVARS     RHF  

 PROGRAMS   *        TOTAL    HF-SCF       INT
 CPU TIMES  *         0.46      0.10      0.26
 REAL TIME  *         0.69 SEC
 DISK USED  *        35.71 MB
 **********************************************************************************************************************************


 PROGRAM * MULTI (Direct Multiconfiguration SCF)       Authors: P.J. Knowles, H.-J. Werner (1984)


 Number of closed-shell orbitals:   7 (   7 )
 Number of active  orbitals:        2 (   2 )
 Number of external orbitals:      27 (  27 )

 State symmetry 1

 Number of electrons:     2    Spin symmetry=Singlet   Space symmetry=1
 Number of states:        3
 Number of CSFs:          3   (4 determinants, 4 intermediate states)

 Molecular orbitals read from record     2100.2  Type=RHF/CANONICAL (state 1.1)

 EXTRA SYMMETRY OF MOS IN SYMMETRY 1:   1 1 1 1 1 1 1 2 2 1   1 1 1 1 1 1 2 1 2 1   1 1 1 1 1 1 2 2 2 1   1 1 1 2 1 1

 Wavefunction dump at record             2140.2

 Convergence thresholds  0.10E-01 (gradient)  0.10E-05 (energy)  0.10E-02 (step length)

 Weight factors for state symmetry  1:    0.33333   0.33333   0.33333

 Number of orbital rotations:      257   (    14 Core/Active    189 Core/Virtual   0 Active/Active     54 Active/Virtual)
 Total number of variables:        269

 Micro-Iterations solved by the two-step solver

 ITER. MIC  NCI  NEG     ENERGY(VAR)     ENERGY(PROJ)   ENERGY CHANGE     GRAD(0)  GRAD(ORB)   GRAD(CI)     STEP       TIME

   1    3    3    0     -77.70827870     -77.71450677   -0.00622807    0.13241867 0.00000153 0.00000000  0.63D-01      0.06
   2    2    3    0     -77.71440858     -77.71441234   -0.00000376    0.00303540 0.00000185 0.00000000  0.16D-02      0.09
   3    2    3    0     -77.71441234     -77.71441234   -0.00000000    0.00000216 0.00000000 0.00000000  0.13D-05      0.12

 ** WVFN ****  CONVERGENCE REACHED, FINAL GRADIENT:  0.13D-11



 Results for state 1.1
 =====================

 !MCSCF STATE  1.1 Energy             -78.027252695948
 Nuclear energy                        33.48507954
 Kinetic energy                        78.14486593
 One electron energy                 -170.36728918
 Two electron energy                   58.85495694
 Virial ratio                           1.99849493

 !MCSCF STATE  1.1 Dipole moment        0.00000000    -0.00000000     0.00000000
 Dipole moment /Debye                   0.00000000    -0.00000000     0.00000000

 Results for state 2.1
 =====================

 !MCSCF STATE  2.1 Energy             -77.650968961579
 Nuclear energy                        33.48507954
 Kinetic energy                        78.32645810
 One electron energy                 -169.79675959
 Two electron energy                   58.66071109
 Virial ratio                           1.99137598

 !MCSCF STATE  2.1 Dipole moment        0.00000000    -0.00000000     0.00000000
 Dipole moment /Debye                   0.00000000    -0.00000000     0.00000000

 Results for state 3.1
 =====================

 !MCSCF STATE  3.1 Energy             -77.465015366276
 Nuclear energy                        33.48507954
 Kinetic energy                        78.50805027
 One electron energy                 -169.22623000
 Two electron energy                   58.27613509
 Virial ratio                           1.98671429

 !MCSCF STATE  3.1 Dipole moment        0.00000000    -0.00000000     0.00000000
 Dipole moment /Debye                   0.00000000    -0.00000000     0.00000000

 State-averaged charge density matrix saved on record  2140.2 (density set 1)

 !MCSCF trans         <2.1|DMY|1.1>     0.029572940763 au =     0.075161994783 Debye
 !MCSCF trans         <3.1|DMY|2.1>     0.044556498263 au =     0.113243904856 Debye

 !MCSCF trans         <2.1|DMZ|1.1>    -1.509119488850 au =    -3.835547910472 Debye
 !MCSCF trans         <3.1|DMZ|2.1>    -2.273736671100 au =    -5.778883648534 Debye


 NATURAL ORBITALS (state averaged)
 =================================

  Orbital  Occupation    Energy     Coefficients
    1.1     2.00000   -11.24157     1 1s    0.70419     2 1s    0.70419
    2.1     2.00000   -11.24025     1 1s    0.70450     2 1s   -0.70450
    3.1     2.00000    -1.04404     1 1s    0.31064     2 1s    0.31064
    4.1     2.00000    -0.81087     1 1s    0.27267     2 1s   -0.27267
    5.1     2.00000    -0.64468     1 2py   0.31799     2 2py   0.31799
    6.1     2.00000    -0.60824     1 2pz   0.39764     2 2pz  -0.39764
    7.1     2.00000    -0.50477     1 2py   0.29495     2 2py  -0.29495
    8.1     1.00000     0.03292     1 2px   0.38122     1 2px   0.68506     2 2px  -0.38122     2 2px  -0.68506
    9.1     1.00000    -0.22613     1 2px   0.35855     1 2px   0.31884     2 2px   0.35855     2 2px   0.31884
   10.1    -0.00000     0.26231     1 1s   -1.48765     1 2pz  -0.64939     2 1s   -1.48765     2 2pz   0.64939     3 1s    1.02156
                                    4 1s    1.04629     5 1s    1.04629     6 1s    1.02156
   11.1    -0.00000     0.26708     1 1s   -0.80371     1 2py  -0.62644     2 1s    0.80371     2 2py  -0.62644     3 1s    1.32038
                                    4 1s   -0.34320     5 1s    0.34320     6 1s   -1.32038
   12.1    -0.00000     0.32189     1 1s   -1.86621     1 2py   0.49680     2 1s    1.86621     2 2py   0.49680     4 1s    1.71375
                                    5 1s   -1.71375
   13.1    -0.00000     0.38544     1 1s   -0.51880     1 2py   1.86181     2 1s   -0.51880     2 2py  -1.86181     3 1s   -1.34089
                                    4 1s    1.95343     5 1s    1.95343     6 1s   -1.34089
   14.1    -0.00000     0.48909     1 1s   -2.91510     1 2pz   2.94911     2 1s    2.91510     2 2pz   2.94911     3 1s   -0.43726
                                    4 1s   -0.82542     5 1s    0.82542     6 1s    0.43726
   15.1    -0.00000     0.65806     1 1s    0.25781     1 2pz  -0.54698     1 2pz   1.02212     2 1s    0.25781     2 2pz   0.54698
                                    2 2pz  -1.02212
   16.1    -0.00000     0.74902     1 1s   -0.47677     1 2py  -0.40594     1 2py   0.80509     2 1s    0.47677     2 2py  -0.40594
                                    2 2py   0.80509     3 1s   -0.33214     4 1s    0.41295     4 1s    0.29282     5 1s   -0.41295
                                    5 1s   -0.29282     6 1s    0.33214
   17.1    -0.00000     0.77049     1 2px  -0.74709     1 2px   0.63455     2 2px  -0.74709     2 2px   0.63455
   18.1    -0.00000     0.86037     1 1s   -0.87021     1 1s    1.56850     1 2py  -0.54565     1 2pz   0.40427     2 1s   -0.87021
                                    2 1s    1.56850     2 2py   0.54565     2 2pz  -0.40427     3 1s   -0.42004     4 1s   -0.37693
                                    4 1s   -0.65766     5 1s   -0.37693     5 1s   -0.65766     6 1s   -0.42004
   19.1    -0.00000     0.87193     1 2px  -0.80233     1 2px   1.10538     2 2px   0.80233     2 2px  -1.10538
   20.1    -0.00000     0.93783     1 1s   -0.62497     1 2pz   0.59721     1 2pz  -0.55999     2 1s    0.62497     2 2pz   0.59721
                                    2 2pz  -0.55999     3 1s    0.48222     4 1s    0.28834     5 1s   -0.28834     6 1s   -0.48222
   21.1    -0.00000     1.07725     1 1s   -0.30034     1 2py   0.60934     1 2pz   0.28375     1 2py  -0.98463     1 2pz  -0.45015
                                    2 1s    0.30034     2 2py   0.60934     2 2pz   0.28375     2 2py  -0.98463     2 2pz  -0.45015
                                    3 1s   -0.49889     3 1s    1.30406     4 1s   -0.58664     5 1s    0.58664     6 1s    0.49889
                                    6 1s   -1.30406
   22.1    -0.00000     1.10941     1 1s    0.60239     1 1s   -0.76506     1 2py   0.73870     1 2py  -2.17692     2 1s    0.60239
                                    2 1s   -0.76506     2 2py  -0.73870     2 2py   2.17692     3 1s   -0.37960     3 1s    1.52308
                                    4 1s   -0.80097     5 1s   -0.80097     6 1s   -0.37960     6 1s    1.52308
   23.1    -0.00000     1.25116     1 1s   -0.79970     1 1s    1.65376     1 2py   0.55243     1 2pz  -0.28136     1 2py  -2.31493
                                    1 2pz   0.45855     2 1s   -0.79970     2 1s    1.65376     2 2py  -0.55243     2 2pz   0.28136
                                    2 2py   2.31493     2 2pz  -0.45855     3 1s    0.46168     4 1s    0.29463     4 1s   -1.91713
                                    5 1s    0.29463     5 1s   -1.91713     6 1s    0.46168
   24.1    -0.00000     1.25917     1 1s   -0.33339     1 2py   0.29679     1 2pz  -0.60066     1 2py  -0.48610     1 2pz   1.42112
                                    2 1s    0.33339     2 2py   0.29679     2 2pz  -0.60066     2 2py  -0.48610     2 2pz   1.42112
                                    3 1s    0.29602     3 1s   -0.37369     4 1s    0.60432     4 1s   -1.33180     5 1s   -0.60432
                                    5 1s    1.33180     6 1s   -0.29602     6 1s    0.37369
   25.1    -0.00000     1.32150     1 1s   -1.64392     1 1s    5.41321     1 2pz  -1.71924     2 1s    1.64392     2 1s   -5.41321
                                    2 2pz  -1.71924     3 1s   -0.28950     4 1s   -0.64534     5 1s    0.64534     6 1s    0.28950
   26.1    -0.00000     1.48697     1 1s   -0.30975     1 2py   2.20662     2 1s   -0.30975     2 2py  -2.20662     3 1s   -0.58011
                                    3 1s   -0.56977     4 1s    0.78656     4 1s    0.48886     5 1s    0.78656     5 1s    0.48886
                                    6 1s   -0.58011     6 1s   -0.56977
   27.1    -0.00000     1.71131     1 3d1+  0.61830     2 3d1+ -0.61830
   28.1    -0.00000     1.80635     1 3d2-  0.68123     2 3d2-  0.68123
   29.1    -0.00000     2.10316     1 3d2-  0.73559     2 3d2- -0.73559
   30.1    -0.00000     2.18891     1 1s   -0.62186     1 3d2+  0.70883     2 1s   -0.62186     2 3d2+  0.70883     3 1s    0.32635
                                    4 1s    0.43342     5 1s    0.43342     6 1s    0.32635
   31.1    -0.00000     2.29580     1 1s    0.42980     1 2py   0.26483     1 3d1-  0.64891     2 1s   -0.42980     2 2py   0.26483
                                    2 3d1- -0.64891     3 1s   -0.53519     4 1s    0.44467     5 1s   -0.44467     6 1s    0.53519
   32.1    -0.00000     2.38197     1 1s   -0.51331     1 2pz   0.29133     1 2pz  -0.44024     1 3d0   0.69103     2 1s   -0.51331
                                    2 2pz  -0.29133     2 2pz   0.44024     2 3d0   0.69103
   33.1    -0.00000     2.64104     1 1s   -1.25028     1 3d2+  0.76823     2 1s    1.25028     2 3d2+ -0.76823     4 1s    0.68801
                                    5 1s   -0.68801
   34.1    -0.00000     2.68357     1 2px  -0.26505     1 3d1+  0.90290     2 2px   0.26505     2 3d1+  0.90290
   35.1    -0.00000     3.04165     1 1s    0.30701     1 1s    2.06055     1 2pz  -0.78689     1 2pz  -1.19648     1 3d0   1.11287
                                    2 1s   -0.30701     2 1s   -2.06055     2 2pz  -0.78689     2 2pz  -1.19648     2 3d0  -1.11287
   36.1    -0.00000     3.07525     1 2py   0.58592     1 3d1-  0.97261     2 2py  -0.58592     2 3d1-  0.97261     3 1s   -0.35921
                                    4 1s    0.64079     5 1s    0.64079     6 1s   -0.35921


 Natural orbital dump (state averaged) at molpro section  2140.2    (Orbital set 2)



 **********************************************************************************************************************************
 DATASETS  * FILE   NREC   LENGTH (MB)   RECORD NAMES
              1      20       31.45       500      610      700      900      950      970     1000      129      960     1100   
                                          VAR    BASINP    GEOM    SYMINP    ZMAT    AOBASIS   BASIS     P2S    ABASIS      S 
                                         1400     1410     1200     1210     1080     1600     1650     1300     1700     1380   
                                           T        V       H0       H01     AOSYM     SMH    MOLCAS    ERIS     OPER     JKOP   

              2       5        5.42       700     1000      520     2100     2140   
                                         GEOM     BASIS   MCVARS     RHF     MCSCF   

 PROGRAMS   *        TOTAL     MULTI    HF-SCF       INT
 CPU TIMES  *         0.62      0.16      0.10      0.26
 REAL TIME  *         0.89 SEC
 DISK USED  *        38.63 MB
 **********************************************************************************************************************************
 Molecular orbitals read from record     2140.2  Type=MCSCF/NATURAL (state averaged)
 Occupation numbers read from record     2140.2  Type=MCSCF/NATURAL (state averaged)
 Orbital energies read from record       2140.2  Type=MCSCF/NATURAL (state averaged)
 Redundancy group numbers read from rec  2140.2  Type=MCSCF/NATURAL (state averaged)

 MULTI/6-31G* energy=    -77.465015366276

           MULTI          HF-SCF
    -77.46501537    -78.00947347
 **********************************************************************************************************************************
 Molpro calculation terminated
