
 Primary working directories    : /scratch.local/johan406.molpro_temp/molpro.NR5Mt7cv5J
 Secondary working directories  : /scratch.local/johan406.molpro_temp/molpro.NR5Mt7cv5J
 Wavefunction directory         : /home/goodpast/johan406/wfu/
 Main file repository           : /scratch.local/johan406.molpro_temp/molpro.NR5Mt7cv5J/

 id        : roweumn

 Nodes     nprocs
 cn0117       1

 Using customized tuning parameters: mindgm=1; mindgv=20; mindgc=4; mindgr=1; noblas=0; minvec=7
 default implementation of scratch files=df  


 Variables initialized (934), CPU time= 0.01 sec
                                                                                 !leave this line blank
 
 gprint, orbitals=30
 memory, 125., m
 symmetry, nosym
 nelect=16
 basis=6-31g*
 
 geometry={
 C 0.0 -0.0204 0.6691
 C 0.0 0.0204 -0.6691
 H 0.0 1.0375 1.3107
 H -0.0 -0.7923 1.1589
 H 0.0 0.7923 -1.1589
 H 0.0 -1.0375 -1.3107
 }
 
 hf
 {multi,
 closed 7
 occ 9
 wf,spin=0;STATE,3
 }
 
 Commands  initialized (763), CPU time= 0.01 sec, 617 directives.
 Default parameters read. Elapsed time= 0.08 sec

 Checking input...
 Passed
1


                                         ***  PROGRAM SYSTEM MOLPRO  ***
                                       Copyright, TTI GmbH Stuttgart, 2015
                                    Version 2019.2 linked Oct 25 2019 22:50:27


 **********************************************************************************************************************************
 LABEL *                                                                                 
  64 bit serial version                                                                  DATE: 26-Jan-23          TIME: 21:06:52  
 **********************************************************************************************************************************

 SHA1:             8dbd9ae1082e4ce945b0f27595c9eb2d4aa09004
 **********************************************************************************************************************************


 Variable memory set to  125000000 words,  buffer space 

 SETTING NELECT         =        16.00000000                                  
 SETTING BASIS          =    6-31G*
 ZSYMEL=NOSYM


Geometry recognized as XYZ



 Recomputing integrals since basis changed


 Using spherical harmonics

 Library entry C      S 6-31G                selected for orbital group  1
 Library entry C      P 6-31G                selected for orbital group  1
 Library entry C      D 6-31G*               selected for orbital group  1
 Library entry H      S 6-31G                selected for orbital group  2


 PROGRAM * SEWARD (Integral evaluation for generally contracted gaussian basis sets)     Author: Roland Lindh, 1990

 Geometry written to block  1 of record 700


 Point group  C1  



 ATOMIC COORDINATES

 NR  ATOM    CHARGE       X              Y              Z

   1  C       6.00    0.000000000   -0.038550413    1.264415750
   2  C       6.00    0.000000000    0.038550413   -1.264415750
   3  H       1.00    0.000000000    1.960590854    2.476864031
   4  H       1.00    0.000000000   -1.497230008    2.190003606
   5  H       1.00    0.000000000    1.497230008   -2.190003606
   6  H       1.00    0.000000000   -1.960590854   -2.476864031

 Bond lengths in Bohr (Angstrom)

 1-2  2.530006579  1-3  2.338075414  1-4  1.727558694  2-5  1.727558694  2-6  2.338075414
     ( 1.338821825)     ( 1.237256226)     ( 0.914184691)     ( 0.914184691)     ( 1.237256226)

 Bond angles

  1-2-5  124.14301925   1-2-6  119.48983039   2-1-3  119.48983039   2-1-4  124.14301925

  3-1-4  116.36715036   5-2-6  116.36715036

 NUCLEAR CHARGE:                   16
 NUMBER OF PRIMITIVE AOS:          72
 NUMBER OF SYMMETRY AOS:           70
 NUMBER OF CONTRACTIONS:           36   (   36A   )
 NUMBER OF CORE ORBITALS:           2   (    2A   )
 NUMBER OF VALENCE ORBITALS:       12   (   12A   )


 NUCLEAR REPULSION ENERGY   33.68471970

 EXTRA SYMMETRY OF AOS IN SYMMETRY 1:   1 1 1 2 1 1 2 1 1 1   2 2 1 1 1 1 1 2 1 1   2 1 1 1 2 2 1 1 1 1   1 1 1 1 1 1

 Eigenvalues of metric

         1 0.830E-02 0.129E-01 0.333E-01 0.456E-01 0.883E-01 0.176E+00 0.194E+00 0.228E+00


 Contracted 2-electron integrals neglected if value below      1.0D-11
 AO integral compression algorithm  1   Integral accuracy      1.0D-11

     1.049 MB (compressed) written to integral file ( 36.6%)


 NUMBER OF SORTED TWO-ELECTRON INTEGRALS:     222111.     BUFFER LENGTH:  32768
 NUMBER OF SEGMENTS:   1  SEGMENT LENGTH:     222111      RECORD LENGTH: 524288

 Memory used in sort:       0.78 MW

 SORT1 READ      284735. AND WROTE      118722. INTEGRALS IN      1 RECORDS. CPU TIME:     0.00 SEC, REAL TIME:     0.01 SEC
 SORT2 READ      118722. AND WROTE      222111. INTEGRALS IN      4 RECORDS. CPU TIME:     0.02 SEC, REAL TIME:     0.02 SEC

 FILE SIZES:   FILE 1:    31.1 MBYTE,  FILE 4:     4.2 MBYTE,   TOTAL:     35.4 MBYTE

 OPERATOR DM      FOR CENTER  0  COORDINATES:    0.000000    0.000000    0.000000


 **********************************************************************************************************************************
 DATASETS  * FILE   NREC   LENGTH (MB)   RECORD NAMES
              1      19       30.72       500      610      700      900      950      970     1000      129      960     1100   
                                          VAR    BASINP    GEOM    SYMINP    ZMAT    AOBASIS   BASIS     P2S    ABASIS      S 
                                         1400     1410     1200     1210     1080     1600     1650     1300     1700   
                                           T        V       H0       H01     AOSYM     SMH    MOLCAS    ERIS     OPER   

 PROGRAMS   *        TOTAL       INT
 CPU TIMES  *         0.34      0.24
 REAL TIME  *         0.57 SEC
 DISK USED  *        35.71 MB
 **********************************************************************************************************************************


 PROGRAM * RHF-SCF (CLOSED SHELL)       Authors: W. Meyer, H.-J. Werner


 NUMBER OF ELECTRONS:       8+    8-    SPACE SYMMETRY=1    SPIN SYMMETRY: Singlet 
 CONVERGENCE THRESHOLDS:    1.00E-05 (Density)    1.00E-07 (Energy)
 MAX. NUMBER OF ITERATIONS:       60
 INTERPOLATION TYPE:            DIIS
 INTERPOLATION STEPS:              2 (START)      1 (STEP)
 LEVEL SHIFTS:                  0.00 (CLOSED)  0.00 (OPEN) 



 Orbital guess generated from atomic densities. Full valence occupancy:    8

 Molecular orbital dump at record        2100.2

 Initial occupancy:   8

 ITERATION    DDIFF          GRAD             ENERGY        2-EL.EN.            DIPOLE MOMENTS         DIIS   ORB.
    1      0.000D+00      0.000D+00       -77.92358919    119.171359   -0.00000   -0.00000   -0.00000    0    start
    2      0.000D+00      0.911D-02       -77.94949613    117.067880   -0.00000    0.00000   -0.00000    1    diag
    3      0.902D-02      0.326D-02       -77.95216910    117.752541   -0.00000   -0.00000   -0.00000    2    diag
    4      0.292D-02      0.796D-03       -77.95246115    117.644120   -0.00000   -0.00000    0.00000    3    diag
    5      0.125D-02      0.881D-04       -77.95246512    117.645779    0.00000    0.00000    0.00000    4    diag
    6      0.189D-03      0.109D-04       -77.95246519    117.645306   -0.00000   -0.00000    0.00000    5    diag
    7      0.252D-04      0.209D-05       -77.95246520    117.645310    0.00000   -0.00000   -0.00000    6    diag
    8      0.584D-05      0.288D-06       -77.95246520    117.645297    0.00000   -0.00000    0.00000    0    orth

 Final occupancy:   8

 !RHF STATE  1.1 Energy               -77.952465195989
 Nuclear energy                        33.68471970
 One-electron energy                 -170.45983332
 Two-electron energy                   58.82264842
 Virial quotient                       -0.99661826
 !RHF STATE  1.1 Dipole moment          0.00000000    -0.00000000     0.00000000
 Dipole moment /Debye                   0.00000000    -0.00000000     0.00000000

 ELECTRON ORBITALS
 =================

  Orbital  Occupation    Energy     Coefficients
    1.1     2.00000   -11.22859     1 1s    0.70417     2 1s    0.70417
    2.1     2.00000   -11.22699     1 1s    0.70452     2 1s   -0.70452
    3.1     2.00000    -1.03641     1 1s    0.30374     2 1s    0.30374
    4.1     2.00000    -0.82707     2 1s   -0.23309
    5.1     2.00000    -0.61828     1 2py   0.29800     2 2py   0.29800
    6.1     2.00000    -0.61411     1 2pz   0.38306     2 2pz  -0.38306
    7.1     2.00000    -0.48347     1 2py   0.26349     2 2py  -0.26349
    8.1     2.00000    -0.37234     1 2px   0.37581     1 2px   0.30595     2 2px   0.37581     2 2px   0.30595
    9.1     0.00000     0.17586     1 2px   0.34649     1 2px   0.72729     2 2px  -0.34649     2 2px  -0.72729
   10.1     0.00000     0.24995     1 1s   -0.77110     1 2py  -0.53999     2 1s    0.77110     2 2py  -0.53999     3 1s    1.20178
                                    6 1s   -1.20178
   11.1     0.00000     0.26176     1 1s   -1.48694     1 2pz  -0.63739     2 1s   -1.48694     2 2pz   0.63739     3 1s    0.98172
                                    4 1s    1.06187     5 1s    1.06187     6 1s    0.98172
   12.1     0.00000     0.34030     1 1s   -2.03229     1 2py   0.59531     2 1s    2.03229     2 2py   0.59531     4 1s    1.95633
                                    5 1s   -1.95633
   13.1     0.00000     0.38472     1 1s   -0.97408     1 2py   1.86408     2 1s   -0.97408     2 2py  -1.86408     3 1s   -1.13524
                                    4 1s    2.27486     5 1s    2.27486     6 1s   -1.13524
   14.1     0.00000     0.49474     1 1s   -2.80110     1 2py  -0.35025     1 2pz   2.99704     2 1s    2.80110     2 2py  -0.35025
                                    2 2pz   2.99704     3 1s   -0.31913     4 1s   -1.08132     5 1s    1.08132     6 1s    0.31913
   15.1     0.00000     0.66973     1 1s    0.35776     1 2pz  -0.55257     1 2py  -0.33669     1 2pz   1.06564     2 1s    0.35776
                                    2 2pz   0.55257     2 2py   0.33669     2 2pz  -1.06564     4 1s   -0.34608     5 1s   -0.34608
   16.1     0.00000     0.75366     1 1s   -0.92294     1 2py  -0.38766     1 2py   0.85705     2 1s    0.92294     2 2py  -0.38766
                                    2 2py   0.85705     3 1s   -0.29277     4 1s    0.42327     4 1s    0.56295     5 1s   -0.42327
                                    5 1s   -0.56295     6 1s    0.29277
   17.1     0.00000     0.77437     1 2px  -0.73996     1 2px   0.64062     2 2px  -0.73996     2 2px   0.64062
   18.1     0.00000     0.86499     1 1s   -0.84991     1 1s    1.74198     1 2py  -0.99721     1 2pz   0.40632     2 1s   -0.84991
                                    2 1s    1.74198     2 2py   0.99721     2 2pz  -0.40632     3 1s   -0.44143     3 1s    0.33045
                                    4 1s   -0.35913     4 1s   -1.07578     5 1s   -0.35913     5 1s   -1.07578     6 1s   -0.44143
                                    6 1s    0.33045
   19.1     0.00000     0.88671     1 2px  -0.81637     1 2px   1.07800     2 2px   0.81637     2 2px  -1.07800
   20.1     0.00000     0.96058     1 1s   -0.58033     1 2pz   0.56309     1 2pz  -0.48685     2 1s    0.58033     2 2pz   0.56309
                                    2 2pz  -0.48685     3 1s    0.56881     3 1s   -0.28069     4 1s    0.34228     5 1s   -0.34228
                                    6 1s   -0.56881     6 1s    0.28069
   21.1     0.00000     1.05507     1 1s    0.32457     1 1s   -0.45000     1 2py   0.55588     1 2pz   0.40560     1 2py  -0.86356
                                    1 2pz  -0.59973     2 1s   -0.32457     2 1s    0.45000     2 2py   0.55588     2 2pz   0.40560
                                    2 2py  -0.86356     2 2pz  -0.59973     3 1s   -0.47857     3 1s    1.26375     4 1s   -0.32488
                                    5 1s    0.32488     6 1s    0.47857     6 1s   -1.26375
   22.1     0.00000     1.07298     1 1s    0.73918     1 1s   -0.92152     1 2py   0.63329     1 2py  -1.65457     1 2pz  -0.28834
                                    2 1s    0.73918     2 1s   -0.92152     2 2py  -0.63329     2 2py   1.65457     2 2pz   0.28834
                                    3 1s   -0.41700     3 1s    1.32974     4 1s   -0.49221     5 1s   -0.49221     6 1s   -0.41700
                                    6 1s    1.32974
   23.1     0.00000     1.29324     1 1s    0.59317     1 1s   -1.82755     1 2py  -0.64321     1 2py   3.07527     1 2pz  -0.46886
                                    2 1s    0.59317     2 1s   -1.82755     2 2py   0.64321     2 2py  -3.07527     2 2pz   0.46886
                                    3 1s   -0.55151     3 1s   -0.43218     4 1s    2.33923     5 1s    2.33923     6 1s   -0.55151
                                    6 1s   -0.43218
   24.1     0.00000     1.32521     1 1s    0.70715     1 1s   -3.23004     1 2py   0.32449     1 2pz  -0.55131     1 2py  -0.48570
                                    1 2pz   2.08220     2 1s   -0.70715     2 1s    3.23004     2 2py   0.32449     2 2pz  -0.55131
                                    2 2py  -0.48570     2 2pz   2.08220     3 1s    0.27889     4 1s    0.51405     4 1s   -0.82942
                                    5 1s   -0.51405     5 1s    0.82942     6 1s   -0.27889
   25.1     0.00000     1.35686     1 1s   -1.48504     1 1s    4.35980     1 2py  -0.46928     1 2pz  -0.69631     2 1s    1.48504
                                    2 1s   -4.35980     2 2py  -0.46928     2 2pz  -0.69631     4 1s    0.35977     4 1s   -1.44183
                                    5 1s   -0.35977     5 1s    1.44183
   26.1     0.00000     1.55275     1 1s   -0.54228     1 1s    0.36239     1 2py   1.48317     2 1s   -0.54228     2 1s    0.36239
                                    2 2py  -1.48317     3 1s   -0.45438     3 1s   -0.37055     4 1s    0.82619     5 1s    0.82619
                                    6 1s   -0.45438     6 1s   -0.37055
   27.1     0.00000     1.73135     1 3d1+  0.61737     2 3d1+ -0.61737
   28.1     0.00000     1.81619     1 3d2-  0.68124     2 3d2-  0.68124
   29.1     0.00000     2.12229     1 3d2-  0.73412     2 3d2- -0.73412
   30.1     0.00000     2.19611     1 1s   -0.66495     1 2py   0.43523     1 3d2+  0.69464     2 1s   -0.66495     2 2py  -0.43523
                                    2 3d2+  0.69464     3 1s    0.27763     4 1s    0.49376     4 1s    0.37686     5 1s    0.49376
                                    5 1s    0.37686     6 1s    0.27763
   31.1     0.00000     2.27292     1 1s   -0.28876     1 1s    0.63414     1 3d2+ -0.35028     1 3d1-  0.58755     2 1s    0.28876
                                    2 1s   -0.63414     2 3d2+  0.35028     2 3d1- -0.58755     3 1s   -0.48901     4 1s    0.39061
                                    5 1s   -0.39061     6 1s    0.48901
   32.1     0.00000     2.38948     1 1s   -0.52754     1 2pz   0.29315     1 2pz  -0.41447     1 3d0   0.69417     2 1s   -0.52754
                                    2 2pz  -0.29315     2 2pz   0.41447     2 3d0   0.69417
   33.1     0.00000     2.70066     1 2px  -0.26376     1 3d1+  0.90205     2 2px   0.26376     2 3d1+  0.90205
   34.1     0.00000     2.73332     1 1s   -1.04905     1 2py   0.30214     1 3d2+  0.72896     1 3d1-  0.38109     2 1s    1.04905
                                    2 2py   0.30214     2 3d2+ -0.72896     2 3d1- -0.38109     4 1s    0.87913     5 1s   -0.87913
   35.1     0.00000     3.05355     1 1s    0.31228     1 1s    2.06335     1 2pz  -0.78614     1 2pz  -1.19404     1 3d0   1.10871
                                    2 1s   -0.31228     2 1s   -2.06335     2 2pz  -0.78614     2 2pz  -1.19404     2 3d0  -1.10871
   36.1     0.00000     3.14622     1 1s   -0.28476     1 2py   0.62562     1 3d1-  0.97967     2 1s   -0.28476     2 2py  -0.62562
                                    2 3d1-  0.97967     3 1s   -0.27757     4 1s    0.81430     5 1s    0.81430     6 1s   -0.27757


 HOMO      8.1    -0.372344 =     -10.1320eV
 LUMO      9.1     0.175862 =       4.7855eV
 LUMO-HOMO         0.548206 =      14.9174eV


 **********************************************************************************************************************************
 DATASETS  * FILE   NREC   LENGTH (MB)   RECORD NAMES
              1      19       30.72       500      610      700      900      950      970     1000      129      960     1100   
                                          VAR    BASINP    GEOM    SYMINP    ZMAT    AOBASIS   BASIS     P2S    ABASIS      S 
                                         1400     1410     1200     1210     1080     1600     1650     1300     1700   
                                           T        V       H0       H01     AOSYM     SMH    MOLCAS    ERIS     OPER   

              2       4        2.86       700     1000      520     2100   
                                         GEOM     BASIS   MCVARS     RHF  

 PROGRAMS   *        TOTAL    HF-SCF       INT
 CPU TIMES  *         0.44      0.10      0.24
 REAL TIME  *         0.69 SEC
 DISK USED  *        35.71 MB
 **********************************************************************************************************************************


 PROGRAM * MULTI (Direct Multiconfiguration SCF)       Authors: P.J. Knowles, H.-J. Werner (1984)


 Number of closed-shell orbitals:   7 (   7 )
 Number of active  orbitals:        2 (   2 )
 Number of external orbitals:      27 (  27 )

 State symmetry 1

 Number of electrons:     2    Spin symmetry=Singlet   Space symmetry=1
 Number of states:        3
 Number of CSFs:          3   (4 determinants, 4 intermediate states)

 Molecular orbitals read from record     2100.2  Type=RHF/CANONICAL (state 1.1)

 EXTRA SYMMETRY OF MOS IN SYMMETRY 1:   1 1 1 1 1 1 1 2 2 1   1 1 1 1 1 1 2 1 2 1   1 1 1 1 1 1 2 2 2 1   1 1 2 1 1 1

 Wavefunction dump at record             2140.2

 Convergence thresholds  0.10E-01 (gradient)  0.10E-05 (energy)  0.10E-02 (step length)

 Weight factors for state symmetry  1:    0.33333   0.33333   0.33333

 Number of orbital rotations:      257   (    14 Core/Active    189 Core/Virtual   0 Active/Active     54 Active/Virtual)
 Total number of variables:        269

 Micro-Iterations solved by the two-step solver

 ITER. MIC  NCI  NEG     ENERGY(VAR)     ENERGY(PROJ)   ENERGY CHANGE     GRAD(0)  GRAD(ORB)   GRAD(CI)     STEP       TIME

   1    3    3    0     -77.65122758     -77.65741031   -0.00618273    0.13186282 0.00000152 0.00000000  0.63D-01      0.07
   2    2    3    0     -77.65731314     -77.65731686   -0.00000372    0.00301164 0.00000184 0.00000000  0.16D-02      0.10
   3    2    3    0     -77.65731687     -77.65731687   -0.00000000    0.00000215 0.00000000 0.00000000  0.13D-05      0.14

 ** WVFN ****  CONVERGENCE REACHED, FINAL GRADIENT:  0.13D-11



 Results for state 1.1
 =====================

 !MCSCF STATE  1.1 Energy             -77.970519823995
 Nuclear energy                        33.68471970
 Kinetic energy                        78.28125591
 One electron energy                 -170.58823858
 Two electron energy                   58.93299906
 Virial ratio                           1.99603052

 !MCSCF STATE  1.1 Dipole moment        0.00000000    -0.00000000     0.00000000
 Dipole moment /Debye                   0.00000000    -0.00000000     0.00000000

 Results for state 2.1
 =====================

 !MCSCF STATE  2.1 Energy             -77.593387988415
 Nuclear energy                        33.68471970
 Kinetic energy                        78.46641620
 One electron energy                 -170.02538424
 Two electron energy                   58.74727656
 Virial ratio                           1.98887386

 !MCSCF STATE  2.1 Dipole moment        0.00000000    -0.00000000     0.00000000
 Dipole moment /Debye                   0.00000000    -0.00000000     0.00000000

 Results for state 3.1
 =====================

 !MCSCF STATE  3.1 Energy             -77.408042783214
 Nuclear energy                        33.68471970
 Kinetic energy                        78.65157649
 One electron energy                 -169.46252991
 Two electron energy                   58.36976743
 Virial ratio                           1.98418934

 !MCSCF STATE  3.1 Dipole moment        0.00000000    -0.00000000     0.00000000
 Dipole moment /Debye                   0.00000000    -0.00000000     0.00000000

 State-averaged charge density matrix saved on record  2140.2 (density set 1)

 !MCSCF trans         <2.1|DMY|1.1>     0.055177910888 au =     0.140239074754 Debye
 !MCSCF trans         <3.1|DMY|2.1>     0.083339839380 au =     0.211814868971 Debye

 !MCSCF trans         <2.1|DMZ|1.1>    -1.505748732595 au =    -3.826980863789 Debye
 !MCSCF trans         <3.1|DMZ|2.1>    -2.274258947136 au =    -5.780211054862 Debye


 NATURAL ORBITALS (state averaged)
 =================================

  Orbital  Occupation    Energy     Coefficients
    1.1     2.00000   -11.24373     1 1s    0.70418     2 1s    0.70418
    2.1     2.00000   -11.24240     1 1s    0.70448     2 1s   -0.70448
    3.1     2.00000    -1.04997     1 1s    0.31174     2 1s    0.31174
    4.1     2.00000    -0.83449     2 1s   -0.24577
    5.1     2.00000    -0.63079     1 2py   0.30277     2 2py   0.30277
    6.1     2.00000    -0.62877     1 2pz   0.38694     2 2pz  -0.38694
    7.1     2.00000    -0.49057     1 2py   0.27197     2 2py  -0.27197
    8.1     1.00000     0.03091     1 2px   0.38426     1 2px   0.68027     2 2px  -0.38426     2 2px  -0.68027
    9.1     1.00000    -0.22800     1 2px   0.36020     1 2px   0.31757     2 2px   0.36020     2 2px   0.31757
   10.1    -0.00000     0.24187     1 1s   -0.75070     1 2py  -0.54651     2 1s    0.75070     2 2py  -0.54651     3 1s    1.19138
                                    6 1s   -1.19138
   11.1    -0.00000     0.25856     1 1s   -1.46993     1 2pz  -0.63865     2 1s   -1.46993     2 2pz   0.63865     3 1s    0.99523
                                    4 1s    1.03253     5 1s    1.03253     6 1s    0.99523
   12.1    -0.00000     0.33774     1 1s   -2.05765     1 2py   0.57943     2 1s    2.05765     2 2py   0.57943     4 1s    1.94499
                                    5 1s   -1.94499
   13.1    -0.00000     0.38135     1 1s   -0.99401     1 2py   1.85163     1 2pz  -0.25851     2 1s   -0.99401     2 2py  -1.85163
                                    2 2pz   0.25851     3 1s   -1.11730     4 1s    2.28348     5 1s    2.28348     6 1s   -1.11730
   14.1    -0.00000     0.49179     1 1s   -2.78631     1 2py  -0.33875     1 2pz   2.97598     2 1s    2.78631     2 2py  -0.33875
                                    2 2pz   2.97598     3 1s   -0.33158     4 1s   -1.07815     5 1s    1.07815     6 1s    0.33158
   15.1    -0.00000     0.65840     1 1s    0.26341     1 1s    0.25453     1 2pz  -0.54442     1 2py  -0.29008     1 2pz   1.03861
                                    2 1s    0.26341     2 1s    0.25453     2 2pz   0.54442     2 2py   0.29008     2 2pz  -1.03861
                                    4 1s   -0.27391     5 1s   -0.27391
   16.1    -0.00000     0.74215     1 1s   -0.87546     1 2py  -0.39640     1 2py   0.86632     2 1s    0.87546     2 2py  -0.39640
                                    2 2py   0.86632     3 1s   -0.27965     4 1s    0.42440     4 1s    0.57197     5 1s   -0.42440
                                    5 1s   -0.57197     6 1s    0.27965
   17.1    -0.00000     0.76863     1 2px  -0.74677     1 2px   0.63529     2 2px  -0.74677     2 2px   0.63529
   18.1    -0.00000     0.86225     1 1s   -0.84174     1 1s    1.76937     1 2py  -1.02020     1 2pz   0.45098     2 1s   -0.84174
                                    2 1s    1.76937     2 2py   1.02020     2 2pz  -0.45098     3 1s   -0.44290     3 1s    0.33183
                                    4 1s   -0.36133     4 1s   -1.10322     5 1s   -0.36133     5 1s   -1.10322     6 1s   -0.44290
                                    6 1s    0.33183
   19.1    -0.00000     0.86949     1 2px  -0.80065     1 2px   1.10809     2 2px   0.80065     2 2px  -1.10809
   20.1    -0.00000     0.94349     1 1s   -0.42673     1 2pz   0.57340     1 2pz  -0.57612     2 1s    0.42673     2 2pz   0.57340
                                    2 2pz  -0.57612     3 1s    0.56170     3 1s   -0.26097     4 1s    0.32476     5 1s   -0.32476
                                    6 1s   -0.56170     6 1s    0.26097
   21.1    -0.00000     1.04412     1 1s    0.30676     1 1s   -0.39089     1 2py   0.55509     1 2pz   0.38669     1 2py  -0.88002
                                    1 2pz  -0.58413     2 1s   -0.30676     2 1s    0.39089     2 2py   0.55509     2 2pz   0.38669
                                    2 2py  -0.88002     2 2pz  -0.58413     3 1s   -0.48658     3 1s    1.26978     4 1s   -0.37642
                                    5 1s    0.37642     6 1s    0.48658     6 1s   -1.26978
   22.1    -0.00000     1.06430     1 1s    0.72542     1 1s   -0.89279     1 2py   0.64179     1 2py  -1.70161     1 2pz  -0.28917
                                    2 1s    0.72542     2 1s   -0.89279     2 2py  -0.64179     2 2py   1.70161     2 2pz   0.28917
                                    3 1s   -0.41008     3 1s    1.34104     4 1s   -0.53441     5 1s   -0.53441     6 1s   -0.41008
                                    6 1s    1.34104
   23.1    -0.00000     1.28599     1 1s    0.60017     1 1s   -1.83749     1 2py  -0.63208     1 2py   3.05373     1 2pz  -0.47476
                                    2 1s    0.60017     2 1s   -1.83749     2 2py   0.63208     2 2py  -3.05373     2 2pz   0.47476
                                    3 1s   -0.55992     3 1s   -0.41420     4 1s    2.33266     5 1s    2.33266     6 1s   -0.55992
                                    6 1s   -0.41420
   24.1    -0.00000     1.30816     1 1s    0.93344     1 1s   -3.88268     1 2py   0.27169     1 2pz  -0.52571     1 2py  -0.39599
                                    1 2pz   2.17109     2 1s   -0.93344     2 1s    3.88268     2 2py   0.27169     2 2pz  -0.52571
                                    2 2py  -0.39599     2 2pz   2.17109     3 1s    0.28553     4 1s    0.44792     4 1s   -0.58392
                                    5 1s   -0.44792     5 1s    0.58392     6 1s   -0.28553
   25.1    -0.00000     1.34684     1 1s   -1.35954     1 1s    3.81068     1 2py   0.27729     1 2py  -0.52694     1 2pz  -0.34040
                                    2 1s    1.35954     2 1s   -3.81068     2 2py   0.27729     2 2py  -0.52694     2 2pz  -0.34040
                                    3 1s   -0.27352     4 1s    0.42862     4 1s   -1.55707     5 1s   -0.42862     5 1s    1.55707
                                    6 1s    0.27352
   26.1    -0.00000     1.54486     1 1s   -0.54576     1 1s    0.37198     1 2py   1.48002     2 1s   -0.54576     2 1s    0.37198
                                    2 2py  -1.48002     3 1s   -0.45066     3 1s   -0.37377     4 1s    0.82392     5 1s    0.82392
                                    6 1s   -0.45066     6 1s   -0.37377
   27.1    -0.00000     1.70603     1 3d1+  0.61711     2 3d1+ -0.61711
   28.1    -0.00000     1.80281     1 3d2-  0.68125     2 3d2-  0.68125
   29.1    -0.00000     2.09966     1 3d2-  0.73411     2 3d2- -0.73411
   30.1    -0.00000     2.18120     1 1s   -0.66030     1 2py   0.43726     1 2pz  -0.25046     1 3d2+  0.69428     2 1s   -0.66030
                                    2 2py  -0.43726     2 2pz   0.25046     2 3d2+  0.69428     3 1s    0.27937     4 1s    0.49635
                                    4 1s    0.37583     5 1s    0.49635     5 1s    0.37583     6 1s    0.27937
   31.1    -0.00000     2.25603     1 1s   -0.29225     1 1s    0.65383     1 3d2+ -0.35383     1 3d1-  0.58381     2 1s    0.29225
                                    2 1s   -0.65383     2 3d2+  0.35383     2 3d1- -0.58381     3 1s   -0.49323     4 1s    0.38885
                                    5 1s   -0.38885     6 1s    0.49323
   32.1    -0.00000     2.36994     1 1s   -0.52542     1 2pz   0.29935     1 2pz  -0.41652     1 3d0   0.69432     2 1s   -0.52542
                                    2 2pz  -0.29935     2 2pz   0.41652     2 3d0   0.69432
   33.1    -0.00000     2.67850     1 2px  -0.26451     1 3d1+  0.90245     2 2px   0.26451     2 3d1+  0.90245
   34.1    -0.00000     2.71542     1 1s   -1.04330     1 2py   0.30646     1 3d2+  0.72636     1 3d1-  0.38257     2 1s    1.04330
                                    2 2py   0.30646     2 3d2+ -0.72636     2 3d1- -0.38257     4 1s    0.88544     5 1s   -0.88544
   35.1    -0.00000     3.03603     1 1s    0.30559     1 1s    2.08939     1 2pz  -0.77821     1 2pz  -1.20736     1 3d0   1.11021
                                    2 1s   -0.30559     2 1s   -2.08939     2 2pz  -0.77821     2 2pz  -1.20736     2 3d0  -1.11021
   36.1    -0.00000     3.13374     1 1s   -0.28370     1 2py   0.62535     1 3d1-  0.97934     2 1s   -0.28370     2 2py  -0.62535
                                    2 3d1-  0.97934     3 1s   -0.27912     4 1s    0.81739     5 1s    0.81739     6 1s   -0.27912


 Natural orbital dump (state averaged) at molpro section  2140.2    (Orbital set 2)



 **********************************************************************************************************************************
 DATASETS  * FILE   NREC   LENGTH (MB)   RECORD NAMES
              1      20       31.45       500      610      700      900      950      970     1000      129      960     1100   
                                          VAR    BASINP    GEOM    SYMINP    ZMAT    AOBASIS   BASIS     P2S    ABASIS      S 
                                         1400     1410     1200     1210     1080     1600     1650     1300     1700     1380   
                                           T        V       H0       H01     AOSYM     SMH    MOLCAS    ERIS     OPER     JKOP   

              2       5        5.42       700     1000      520     2100     2140   
                                         GEOM     BASIS   MCVARS     RHF     MCSCF   

 PROGRAMS   *        TOTAL     MULTI    HF-SCF       INT
 CPU TIMES  *         0.61      0.17      0.10      0.24
 REAL TIME  *         0.88 SEC
 DISK USED  *        38.63 MB
 **********************************************************************************************************************************
 Molecular orbitals read from record     2140.2  Type=MCSCF/NATURAL (state averaged)
 Occupation numbers read from record     2140.2  Type=MCSCF/NATURAL (state averaged)
 Orbital energies read from record       2140.2  Type=MCSCF/NATURAL (state averaged)
 Redundancy group numbers read from rec  2140.2  Type=MCSCF/NATURAL (state averaged)

 MULTI/6-31G* energy=    -77.408042783214

           MULTI          HF-SCF
    -77.40804278    -77.95246520
 **********************************************************************************************************************************
 Molpro calculation terminated
