
 Primary working directories    : /scratch.local/johan406.molpro_temp/molpro.A7Hv6gAMPL
 Secondary working directories  : /scratch.local/johan406.molpro_temp/molpro.A7Hv6gAMPL
 Wavefunction directory         : /home/goodpast/johan406/wfu/
 Main file repository           : /scratch.local/johan406.molpro_temp/molpro.A7Hv6gAMPL/

 id        : roweumn

 Nodes     nprocs
 cn0117       1

 Using customized tuning parameters: mindgm=1; mindgv=20; mindgc=4; mindgr=1; noblas=0; minvec=7
 default implementation of scratch files=df  


 Variables initialized (934), CPU time= 0.00 sec
                                                                                 !leave this line blank
 
 gprint, orbitals=30
 memory, 125., m
 symmetry, nosym
 nelect=16
 basis=6-31g*
 
 geometry={
 C 0.0 -0.0244 0.6691
 C 0.0 0.0244 -0.6691
 H 0.0 1.0611 1.3253
 H -0.0 -0.7687 1.1443
 H 0.0 0.7687 -1.1443
 H 0.0 -1.0611 -1.3253
 }
 
 hf
 {multi,
 closed 7
 occ 9
 wf,spin=0;STATE,3
 }
 
 Commands  initialized (763), CPU time= 0.01 sec, 617 directives.
 Default parameters read. Elapsed time= 0.08 sec

 Checking input...
 Passed
1


                                         ***  PROGRAM SYSTEM MOLPRO  ***
                                       Copyright, TTI GmbH Stuttgart, 2015
                                    Version 2019.2 linked Oct 25 2019 22:50:27


 **********************************************************************************************************************************
 LABEL *                                                                                 
  64 bit serial version                                                                  DATE: 26-Jan-23          TIME: 21:08:13  
 **********************************************************************************************************************************

 SHA1:             8dbd9ae1082e4ce945b0f27595c9eb2d4aa09004
 **********************************************************************************************************************************


 Variable memory set to  125000000 words,  buffer space 

 SETTING NELECT         =        16.00000000                                  
 SETTING BASIS          =    6-31G*
 ZSYMEL=NOSYM


Geometry recognized as XYZ



 Recomputing integrals since basis changed


 Using spherical harmonics

 Library entry C      S 6-31G                selected for orbital group  1
 Library entry C      P 6-31G                selected for orbital group  1
 Library entry C      D 6-31G*               selected for orbital group  1
 Library entry H      S 6-31G                selected for orbital group  2


 PROGRAM * SEWARD (Integral evaluation for generally contracted gaussian basis sets)     Author: Roland Lindh, 1990

 Geometry written to block  1 of record 700


 Point group  C1  



 ATOMIC COORDINATES

 NR  ATOM    CHARGE       X              Y              Z

   1  C       6.00    0.000000000   -0.046109317    1.264415750
   2  C       6.00    0.000000000    0.046109317   -1.264415750
   3  H       1.00    0.000000000    2.005188391    2.504454033
   4  H       1.00    0.000000000   -1.452632472    2.162413604
   5  H       1.00    0.000000000    1.452632472   -2.162413604
   6  H       1.00    0.000000000   -2.005188391   -2.504454033

 Bond lengths in Bohr (Angstrom)

 1-2  2.530512405  1-3  2.396980857  1-4  1.668744298  2-5  1.668744298  2-6  2.396980857
     ( 1.339089497)     ( 1.268427645)     ( 0.883061453)     ( 0.883061453)     ( 1.268427645)

 Bond angles

  1-2-5  124.64476096   1-2-6  119.06507758   2-1-3  119.06507758   2-1-4  124.64476096

  3-1-4  116.29016146   5-2-6  116.29016146

 NUCLEAR CHARGE:                   16
 NUMBER OF PRIMITIVE AOS:          72
 NUMBER OF SYMMETRY AOS:           70
 NUMBER OF CONTRACTIONS:           36   (   36A   )
 NUMBER OF CORE ORBITALS:           2   (    2A   )
 NUMBER OF VALENCE ORBITALS:       12   (   12A   )


 NUCLEAR REPULSION ENERGY   33.80611001

 EXTRA SYMMETRY OF AOS IN SYMMETRY 1:   1 1 1 2 1 1 2 1 1 1   2 2 1 1 1 1 1 2 1 1   2 1 1 1 2 2 1 1 1 1   1 1 1 1 1 1

 Eigenvalues of metric

         1 0.829E-02 0.116E-01 0.301E-01 0.483E-01 0.934E-01 0.163E+00 0.194E+00 0.206E+00


 Contracted 2-electron integrals neglected if value below      1.0D-11
 AO integral compression algorithm  1   Integral accuracy      1.0D-11

     1.049 MB (compressed) written to integral file ( 36.6%)


 NUMBER OF SORTED TWO-ELECTRON INTEGRALS:     222111.     BUFFER LENGTH:  32768
 NUMBER OF SEGMENTS:   1  SEGMENT LENGTH:     222111      RECORD LENGTH: 524288

 Memory used in sort:       0.78 MW

 SORT1 READ      284735. AND WROTE      118721. INTEGRALS IN      1 RECORDS. CPU TIME:     0.00 SEC, REAL TIME:     0.01 SEC
 SORT2 READ      118721. AND WROTE      222111. INTEGRALS IN      4 RECORDS. CPU TIME:     0.02 SEC, REAL TIME:     0.02 SEC

 FILE SIZES:   FILE 1:    31.1 MBYTE,  FILE 4:     4.2 MBYTE,   TOTAL:     35.4 MBYTE

 OPERATOR DM      FOR CENTER  0  COORDINATES:    0.000000    0.000000    0.000000


 **********************************************************************************************************************************
 DATASETS  * FILE   NREC   LENGTH (MB)   RECORD NAMES
              1      19       30.72       500      610      700      900      950      970     1000      129      960     1100   
                                          VAR    BASINP    GEOM    SYMINP    ZMAT    AOBASIS   BASIS     P2S    ABASIS      S 
                                         1400     1410     1200     1210     1080     1600     1650     1300     1700   
                                           T        V       H0       H01     AOSYM     SMH    MOLCAS    ERIS     OPER   

 PROGRAMS   *        TOTAL       INT
 CPU TIMES  *         0.35      0.26
 REAL TIME  *         0.56 SEC
 DISK USED  *        35.71 MB
 **********************************************************************************************************************************


 PROGRAM * RHF-SCF (CLOSED SHELL)       Authors: W. Meyer, H.-J. Werner


 NUMBER OF ELECTRONS:       8+    8-    SPACE SYMMETRY=1    SPIN SYMMETRY: Singlet 
 CONVERGENCE THRESHOLDS:    1.00E-05 (Density)    1.00E-07 (Energy)
 MAX. NUMBER OF ITERATIONS:       60
 INTERPOLATION TYPE:            DIIS
 INTERPOLATION STEPS:              2 (START)      1 (STEP)
 LEVEL SHIFTS:                  0.00 (CLOSED)  0.00 (OPEN) 



 Orbital guess generated from atomic densities. Full valence occupancy:    8

 Molecular orbital dump at record        2100.2

 Initial occupancy:   8

 ITERATION    DDIFF          GRAD             ENERGY        2-EL.EN.            DIPOLE MOMENTS         DIIS   ORB.
    1      0.000D+00      0.000D+00       -77.88528859    119.364438   -0.00000   -0.00000   -0.00000    0    start
    2      0.000D+00      0.933D-02       -77.91295064    117.145447   -0.00000    0.00000    0.00000    1    diag
    3      0.938D-02      0.341D-02       -77.91586651    117.854072   -0.00000    0.00000   -0.00000    2    diag
    4      0.304D-02      0.829D-03       -77.91619440    117.741899   -0.00000    0.00000    0.00000    3    diag
    5      0.132D-02      0.941D-04       -77.91619901    117.743001   -0.00000    0.00000   -0.00000    4    diag
    6      0.205D-03      0.115D-04       -77.91619909    117.742563   -0.00000   -0.00000   -0.00000    5    diag
    7      0.282D-04      0.217D-05       -77.91619910    117.742561   -0.00000   -0.00000    0.00000    6    diag
    8      0.628D-05      0.292D-06       -77.91619910    117.742546   -0.00000   -0.00000   -0.00000    0    orth

 Final occupancy:   8

 !RHF STATE  1.1 Energy               -77.916199097690
 Nuclear energy                        33.80611001
 One-electron energy                 -170.59358213
 Two-electron energy                   58.87127303
 Virial quotient                       -0.99508702
 !RHF STATE  1.1 Dipole moment         -0.00000000    -0.00000000    -0.00000000
 Dipole moment /Debye                  -0.00000000    -0.00000000    -0.00000000

 ELECTRON ORBITALS
 =================

  Orbital  Occupation    Energy     Coefficients
    1.1     2.00000   -11.23029     1 1s    0.70416     2 1s    0.70416
    2.1     2.00000   -11.22869     1 1s    0.70452     2 1s   -0.70452
    3.1     2.00000    -1.04037     1 1s    0.30435     2 1s    0.30435
    4.1     2.00000    -0.83968     1 1s    0.23230
    5.1     2.00000    -0.62429     1 2pz   0.38109     2 2pz  -0.38109
    6.1     2.00000    -0.61162     1 2py   0.29216     2 2py   0.29216
    7.1     2.00000    -0.47694     1 2py   0.25528     2 2py  -0.25528
    8.1     2.00000    -0.37364     1 2px   0.37689     1 2px   0.30509     2 2px   0.37689     2 2px   0.30509
    9.1     0.00000     0.17472     1 2px   0.34839     1 2px   0.72443     2 2px  -0.34839     2 2px  -0.72443
   10.1     0.00000     0.23911     1 1s   -0.72340     1 2py  -0.51695     2 1s    0.72340     2 2py  -0.51695     3 1s    1.14808
                                    6 1s   -1.14808
   11.1     0.00000     0.25967     1 1s   -1.47979     1 2pz  -0.63235     2 1s   -1.47979     2 2pz   0.63235     3 1s    0.96780
                                    4 1s    1.05625     5 1s    1.05625     6 1s    0.96780
   12.1     0.00000     0.34543     1 1s   -2.14273     1 2py   0.61212     2 1s    2.14273     2 2py   0.61212     4 1s    2.05099
                                    5 1s   -2.05099
   13.1     0.00000     0.38214     1 1s   -1.17960     1 2py   1.85854     1 2pz  -0.29081     2 1s   -1.17960     2 2py  -1.85854
                                    2 2pz   0.29081     3 1s   -1.05018     4 1s    2.42531     5 1s    2.42531     6 1s   -1.05018
   14.1     0.00000     0.49634     1 1s   -2.72322     1 2py  -0.41769     1 2pz   3.01416     2 1s    2.72322     2 2py  -0.41769
                                    2 2pz   3.01416     3 1s   -0.28336     4 1s   -1.20663     5 1s    1.20663     6 1s    0.28336
   15.1     0.00000     0.66990     1 1s    0.40442     1 2pz  -0.55113     1 2py  -0.39675     1 2pz   1.07673     2 1s    0.40442
                                    2 2pz   0.55113     2 2py   0.39675     2 2pz  -1.07673     4 1s   -0.41424     5 1s   -0.41424
   16.1     0.00000     0.75013     1 1s   -1.09279     1 2py  -0.38316     1 2py   0.89168     1 2pz  -0.26136     2 1s    1.09279
                                    2 2py  -0.38316     2 2py   0.89168     2 2pz  -0.26136     3 1s   -0.27096     4 1s    0.42418
                                    4 1s    0.70347     5 1s   -0.42418     5 1s   -0.70347     6 1s    0.27096
   17.1     0.00000     0.77311     1 2px  -0.73968     1 2px   0.64109     2 2px  -0.73968     2 2px   0.64109
   18.1     0.00000     0.86615     1 1s   -0.83321     1 1s    1.86271     1 2py  -1.18911     1 2pz   0.43517     2 1s   -0.83321
                                    2 1s    1.86271     2 2py   1.18911     2 2pz  -0.43517     3 1s   -0.45179     3 1s    0.41681
                                    4 1s   -0.35313     4 1s   -1.28502     5 1s   -0.35313     5 1s   -1.28502     6 1s   -0.45179
                                    6 1s    0.41681
   19.1     0.00000     0.88506     1 2px  -0.81541     1 2px   1.07978     2 2px   0.81541     2 2px  -1.07978
   20.1     0.00000     0.96299     1 1s   -0.46746     1 2pz   0.54611     1 2pz  -0.49196     2 1s    0.46746     2 2pz   0.54611
                                    2 2pz  -0.49196     3 1s    0.60279     3 1s   -0.35687     4 1s    0.36985     5 1s   -0.36985
                                    6 1s   -0.60279     6 1s    0.35687
   21.1     0.00000     1.04179     1 1s    0.33332     1 1s   -0.46686     1 2py   0.54174     1 2pz   0.43703     1 2py  -0.83008
                                    1 2pz  -0.63223     2 1s   -0.33332     2 1s    0.46686     2 2py   0.54174     2 2pz   0.43703
                                    2 2py  -0.83008     2 2pz  -0.63223     3 1s   -0.45756     3 1s    1.22902     4 1s   -0.26836
                                    5 1s    0.26836     6 1s    0.45756     6 1s   -1.22902
   22.1     0.00000     1.05580     1 1s    0.76997     1 1s   -0.96438     1 2py   0.60722     1 2py  -1.50900     1 2pz  -0.30143
                                    2 1s    0.76997     2 1s   -0.96438     2 2py  -0.60722     2 2py   1.50900     2 2pz   0.30143
                                    3 1s   -0.41628     3 1s    1.26572     4 1s   -0.40570     5 1s   -0.40570     6 1s   -0.41628
                                    6 1s    1.26572
   23.1     0.00000     1.30206     1 1s    0.51748     1 1s   -1.94175     1 2py  -0.64349     1 2py   3.23713     1 2pz  -0.48451
                                    2 1s    0.51748     2 1s   -1.94175     2 2py   0.64349     2 2py  -3.23713     2 2pz   0.48451
                                    3 1s   -0.58743     3 1s   -0.44013     4 1s    2.47903     5 1s    2.47903     6 1s   -0.58743
                                    6 1s   -0.44013
   24.1     0.00000     1.33368     1 1s   -1.18765     1 1s    4.56677     1 2pz   0.45358     1 2py   0.30467     1 2pz  -2.18503
                                    2 1s    1.18765     2 1s   -4.56677     2 2pz   0.45358     2 2py   0.30467     2 2pz  -2.18503
                                    3 1s   -0.27125     4 1s   -0.34625     4 1s    0.25205     5 1s    0.34625     5 1s   -0.25205
                                    6 1s    0.27125
   25.1     0.00000     1.38479     1 1s   -1.13290     1 1s    2.95420     1 2py   0.35457     1 2pz  -0.32265     1 2py  -0.64598
                                    2 1s    1.13290     2 1s   -2.95420     2 2py   0.35457     2 2pz  -0.32265     2 2py  -0.64598
                                    4 1s    0.51904     4 1s   -1.71084     5 1s   -0.51904     5 1s    1.71084
   26.1     0.00000     1.58751     1 1s   -0.61673     1 1s    0.49617     1 2py   0.27290     1 2pz  -0.26688     1 2py   1.15489
                                    2 1s   -0.61673     2 1s    0.49617     2 2py  -0.27290     2 2pz   0.26688     2 2py  -1.15489
                                    3 1s   -0.40205     3 1s   -0.29176     4 1s    0.82303     5 1s    0.82303     6 1s   -0.40205
                                    6 1s   -0.29176
   27.1     0.00000     1.72813     1 3d1+  0.61667     2 3d1+ -0.61667
   28.1     0.00000     1.81404     1 3d2-  0.68125     2 3d2-  0.68125
   29.1     0.00000     2.12016     1 3d2-  0.73326     2 3d2- -0.73326
   30.1     0.00000     2.19305     1 1s   -0.68308     1 2py   0.51474     1 2pz  -0.26220     1 3d2+  0.68329     2 1s   -0.68308
                                    2 2py  -0.51474     2 2pz   0.26220     2 3d2+  0.68329     3 1s    0.25625     4 1s    0.52505
                                    4 1s    0.43563     5 1s    0.52505     5 1s    0.43563     6 1s    0.25625
   31.1     0.00000     2.25529     1 1s   -0.32435     1 1s    0.69572     1 3d2+ -0.38821     1 3d1-  0.56034     2 1s    0.32435
                                    2 1s   -0.69572     2 3d2+  0.38821     2 3d1- -0.56034     3 1s   -0.46633     4 1s    0.37552
                                    5 1s   -0.37552     6 1s    0.46633
   32.1     0.00000     2.38334     1 1s   -0.53146     1 1s    0.27505     1 2pz   0.29749     1 2pz  -0.40124     1 3d0   0.69536
                                    2 1s   -0.53146     2 1s    0.27505     2 2pz  -0.29749     2 2pz   0.40124     2 3d0   0.69536
   33.1     0.00000     2.69757     1 2px  -0.26343     1 3d1+  0.90177     2 2px   0.26343     2 3d1+  0.90177
   34.1     0.00000     2.77462     1 1s   -0.93335     1 2py   0.35927     1 2pz  -0.25024     1 3d2+  0.71322     1 3d1-  0.42298
                                    2 1s    0.93335     2 2py   0.35927     2 2pz  -0.25024     2 3d2+ -0.71322     2 3d1- -0.42298
                                    4 1s    0.96456     5 1s   -0.96456
   35.1     0.00000     3.05055     1 1s    0.31415     1 1s    2.08269     1 2pz  -0.77783     1 2pz  -1.20027     1 3d0   1.10622
                                    2 1s   -0.31415     2 1s   -2.08269     2 2pz  -0.77783     2 2pz  -1.20027     2 3d0  -1.10622
   36.1     0.00000     3.18216     1 1s   -0.34301     1 2py   0.64744     1 3d2+  0.28272     1 3d1-  0.98472     2 1s   -0.34301
                                    2 2py  -0.64744     2 3d2+  0.28272     2 3d1-  0.98472     3 1s   -0.25079     4 1s    0.90178
                                    5 1s    0.90178     6 1s   -0.25079


 HOMO      8.1    -0.373639 =     -10.1672eV
 LUMO      9.1     0.174717 =       4.7543eV
 LUMO-HOMO         0.548356 =      14.9215eV


 **********************************************************************************************************************************
 DATASETS  * FILE   NREC   LENGTH (MB)   RECORD NAMES
              1      19       30.72       500      610      700      900      950      970     1000      129      960     1100   
                                          VAR    BASINP    GEOM    SYMINP    ZMAT    AOBASIS   BASIS     P2S    ABASIS      S 
                                         1400     1410     1200     1210     1080     1600     1650     1300     1700   
                                           T        V       H0       H01     AOSYM     SMH    MOLCAS    ERIS     OPER   

              2       4        2.86       700     1000      520     2100   
                                         GEOM     BASIS   MCVARS     RHF  

 PROGRAMS   *        TOTAL    HF-SCF       INT
 CPU TIMES  *         0.45      0.10      0.26
 REAL TIME  *         0.69 SEC
 DISK USED  *        35.71 MB
 **********************************************************************************************************************************


 PROGRAM * MULTI (Direct Multiconfiguration SCF)       Authors: P.J. Knowles, H.-J. Werner (1984)


 Number of closed-shell orbitals:   7 (   7 )
 Number of active  orbitals:        2 (   2 )
 Number of external orbitals:      27 (  27 )

 State symmetry 1

 Number of electrons:     2    Spin symmetry=Singlet   Space symmetry=1
 Number of states:        3
 Number of CSFs:          3   (4 determinants, 4 intermediate states)

 Molecular orbitals read from record     2100.2  Type=RHF/CANONICAL (state 1.1)

 EXTRA SYMMETRY OF MOS IN SYMMETRY 1:   1 1 1 1 1 1 1 2 2 1   1 1 1 1 1 1 2 1 2 1   1 1 1 1 1 1 2 2 2 1   1 1 2 1 1 1

 Wavefunction dump at record             2140.2

 Convergence thresholds  0.10E-01 (gradient)  0.10E-05 (energy)  0.10E-02 (step length)

 Weight factors for state symmetry  1:    0.33333   0.33333   0.33333

 Number of orbital rotations:      257   (    14 Core/Active    189 Core/Virtual   0 Active/Active     54 Active/Virtual)
 Total number of variables:        269

 Micro-Iterations solved by the two-step solver

 ITER. MIC  NCI  NEG     ENERGY(VAR)     ENERGY(PROJ)   ENERGY CHANGE     GRAD(0)  GRAD(ORB)   GRAD(CI)     STEP       TIME

   1    3    3    0     -77.61493705     -77.62109318   -0.00615613    0.13153561 0.00000152 0.00000000  0.63D-01      0.07
   2    2    3    0     -77.62099662     -77.62100032   -0.00000370    0.00299731 0.00000184 0.00000000  0.16D-02      0.10
   3    2    3    0     -77.62100032     -77.62100032   -0.00000000    0.00000214 0.00000000 0.00000000  0.13D-05      0.13

 ** WVFN ****  CONVERGENCE REACHED, FINAL GRADIENT:  0.13D-11



 Results for state 1.1
 =====================

 !MCSCF STATE  1.1 Energy             -77.934419339209
 Nuclear energy                        33.80611001
 Kinetic energy                        78.36344546
 One electron energy                 -170.72031796
 Two electron energy                   58.97978861
 Virial ratio                           1.99452518

 !MCSCF STATE  1.1 Dipole moment        0.00000000     0.00000000    -0.00000000
 Dipole moment /Debye                   0.00000000     0.00000000    -0.00000000

 Results for state 2.1
 =====================

 !MCSCF STATE  2.1 Energy             -77.556780822015
 Nuclear energy                        33.80611001
 Kinetic energy                        78.55073253
 One electron energy                 -170.16203240
 Two electron energy                   58.79914157
 Virial ratio                           1.98734637

 !MCSCF STATE  2.1 Dipole moment        0.00000000     0.00000000    -0.00000000
 Dipole moment /Debye                   0.00000000     0.00000000    -0.00000000

 Results for state 3.1
 =====================

 !MCSCF STATE  3.1 Energy             -77.371800800639
 Nuclear energy                        33.80611001
 Kinetic energy                        78.73801961
 One electron energy                 -169.60374685
 Two electron energy                   58.42583604
 Virial ratio                           1.98264855

 !MCSCF STATE  3.1 Dipole moment        0.00000000     0.00000000    -0.00000000
 Dipole moment /Debye                   0.00000000     0.00000000    -0.00000000

 State-averaged charge density matrix saved on record  2140.2 (density set 1)

 !MCSCF trans         <2.1|DMY|1.1>     0.065839595109 au =     0.167336598138 Debye
 !MCSCF trans         <3.1|DMY|2.1>     0.099590516607 au =     0.253117265199 Debye

 !MCSCF trans         <2.1|DMZ|1.1>    -1.503715630634 au =    -3.821813572507 Debye
 !MCSCF trans         <3.1|DMZ|2.1>    -2.274555550299 au =    -5.780964895528 Debye


 NATURAL ORBITALS (state averaged)
 =================================

  Orbital  Occupation    Energy     Coefficients
    1.1     2.00000   -11.24517     1 1s    0.70418     2 1s    0.70418
    2.1     2.00000   -11.24384     1 1s    0.70448     2 1s   -0.70448
    3.1     2.00000    -1.05343     1 1s    0.31234     2 1s    0.31234
    4.1     2.00000    -0.84689     1 1s    0.23331
    5.1     2.00000    -0.63897     1 2pz   0.38489     2 2pz  -0.38489
    6.1     2.00000    -0.62403     1 2py   0.29679     2 2py   0.29679
    7.1     2.00000    -0.48401     1 2py   0.26365     2 2py  -0.26365
    8.1     1.00000     0.02974     1 2px   0.38608     1 2px   0.67741     2 2px  -0.38608     2 2px  -0.67741
    9.1     1.00000    -0.22909     1 2px   0.36120     1 2px   0.31680     2 2px   0.36120     2 2px   0.31680
   10.1    -0.00000     0.23086     1 1s   -0.70945     1 2py  -0.52218     2 1s    0.70945     2 2py  -0.52218     3 1s    1.13910
                                    6 1s   -1.13910
   11.1    -0.00000     0.25631     1 1s   -1.45773     1 2pz  -0.63183     2 1s   -1.45773     2 2pz   0.63183     3 1s    0.98213
                                    4 1s    1.02038     5 1s    1.02038     6 1s    0.98213
   12.1    -0.00000     0.34338     1 1s   -2.16283     1 2py   0.59924     2 1s    2.16283     2 2py   0.59924     4 1s    2.04184
                                    5 1s   -2.04184
   13.1    -0.00000     0.37909     1 1s   -1.20255     1 2py   1.84686     1 2pz  -0.31075     2 1s   -1.20255     2 2py  -1.84686
                                    2 2pz   0.31075     3 1s   -1.03112     4 1s    2.43664     5 1s    2.43664     6 1s   -1.03112
   14.1    -0.00000     0.49331     1 1s   -2.71158     1 2py  -0.40382     1 2pz   2.99178     2 1s    2.71158     2 2py  -0.40382
                                    2 2pz   2.99178     3 1s   -0.29563     4 1s   -1.19969     5 1s    1.19969     6 1s    0.29563
   15.1    -0.00000     0.65859     1 1s    0.26674     1 1s    0.29513     1 2pz  -0.54290     1 2py  -0.34284     1 2pz   1.04832
                                    2 1s    0.26674     2 1s    0.29513     2 2pz   0.54290     2 2py   0.34284     2 2pz  -1.04832
                                    4 1s   -0.33157     5 1s   -0.33157
   16.1    -0.00000     0.73832     1 1s   -1.03554     1 2py  -0.39105     1 2py   0.90177     1 2pz  -0.30734     2 1s    1.03554
                                    2 2py  -0.39105     2 2py   0.90177     2 2pz  -0.30734     3 1s   -0.25706     4 1s    0.42565
                                    4 1s    0.71419     5 1s   -0.42565     5 1s   -0.71419     6 1s    0.25706
   17.1    -0.00000     0.76750     1 2px  -0.74658     1 2px   0.63573     2 2px  -0.74658     2 2px   0.63573
   18.1    -0.00000     0.86344     1 1s   -0.82425     1 1s    1.89088     1 2py  -1.21609     1 2pz   0.47865     2 1s   -0.82425
                                    2 1s    1.89088     2 2py   1.21609     2 2pz  -0.47865     3 1s   -0.45337     3 1s    0.42036
                                    4 1s   -0.35533     4 1s   -1.31578     5 1s   -0.35533     5 1s   -1.31578     6 1s   -0.45337
                                    6 1s    0.42036
   19.1    -0.00000     0.86801     1 2px  -0.79963     1 2px   1.10971     2 2px   0.79963     2 2px  -1.10971
   20.1    -0.00000     0.94658     1 1s   -0.31798     1 2pz   0.56007     1 2pz  -0.58473     2 1s    0.31798     2 2pz   0.56007
                                    2 2pz  -0.58473     3 1s    0.59192     3 1s   -0.32764     4 1s    0.34976     5 1s   -0.34976
                                    6 1s   -0.59192     6 1s    0.32764
   21.1    -0.00000     1.03123     1 1s    0.31797     1 1s   -0.40501     1 2py   0.54028     1 2pz   0.41575     1 2py  -0.84623
                                    1 2pz  -0.61742     2 1s   -0.31797     2 1s    0.40501     2 2py   0.54028     2 2pz   0.41575
                                    2 2py  -0.84623     2 2pz  -0.61742     3 1s   -0.47181     3 1s    1.24019     4 1s   -0.31940
                                    5 1s    0.31940     6 1s    0.47181     6 1s   -1.24019
   22.1    -0.00000     1.04741     1 1s    0.75921     1 1s   -0.94169     1 2py   0.61405     1 2py  -1.54816     1 2pz  -0.30507
                                    2 1s    0.75921     2 1s   -0.94169     2 2py  -0.61405     2 2py   1.54816     2 2pz   0.30507
                                    3 1s   -0.40974     3 1s    1.27529     4 1s   -0.44120     5 1s   -0.44120     6 1s   -0.40974
                                    6 1s    1.27529
   23.1    -0.00000     1.29462     1 1s    0.52303     1 1s   -1.94920     1 2py  -0.63475     1 2py   3.22030     1 2pz  -0.48903
                                    2 1s    0.52303     2 1s   -1.94920     2 2py   0.63475     2 2py  -3.22030     2 2pz   0.48903
                                    3 1s   -0.59439     3 1s   -0.42608     4 1s    2.47380     5 1s    2.47380     6 1s   -0.59439
                                    6 1s   -0.42608
   24.1    -0.00000     1.31422     1 1s   -1.23155     1 1s    4.68284     1 2pz   0.44181     1 2py   0.27472     1 2pz  -2.17937
                                    2 1s    1.23155     2 1s   -4.68284     2 2pz   0.44181     2 2py   0.27472     2 2pz  -2.17937
                                    3 1s   -0.27458     4 1s   -0.32530     5 1s    0.32530     6 1s    0.27458
   25.1    -0.00000     1.37662     1 1s   -1.09047     1 1s    2.79270     1 2py   0.34524     1 2pz  -0.35152     1 2py  -0.64548
                                    2 1s    1.09047     2 1s   -2.79270     2 2py   0.34524     2 2pz  -0.35152     2 2py  -0.64548
                                    4 1s    0.52326     4 1s   -1.72232     5 1s   -0.52326     5 1s    1.72232
   26.1    -0.00000     1.57975     1 1s   -0.61960     1 1s    0.50573     1 2py   0.26633     1 2pz  -0.26817     1 2py   1.15161
                                    2 1s   -0.61960     2 1s    0.50573     2 2py  -0.26633     2 2pz   0.26817     2 2py  -1.15161
                                    3 1s   -0.39858     3 1s   -0.29476     4 1s    0.81983     5 1s    0.81983     6 1s   -0.39858
                                    6 1s   -0.29476
   27.1    -0.00000     1.70299     1 3d1+  0.61641     2 3d1+ -0.61641
   28.1    -0.00000     1.80086     1 3d2-  0.68127     2 3d2-  0.68127
   29.1    -0.00000     2.09775     1 3d2-  0.73325     2 3d2- -0.73325
   30.1    -0.00000     2.17836     1 1s   -0.67794     1 2py   0.51698     1 2pz  -0.26634     1 3d2+  0.68283     2 1s   -0.67794
                                    2 2py  -0.51698     2 2pz   0.26634     2 3d2+  0.68283     3 1s    0.25797     4 1s    0.52775
                                    4 1s    0.43448     5 1s    0.52775     5 1s    0.43448     6 1s    0.25797
   31.1    -0.00000     2.23833     1 1s   -0.32797     1 1s    0.71738     1 3d2+ -0.39171     1 3d1-  0.55632     2 1s    0.32797
                                    2 1s   -0.71738     2 3d2+  0.39171     2 3d1- -0.55632     3 1s   -0.47031     4 1s    0.37328
                                    5 1s   -0.37328     6 1s    0.47031
   32.1    -0.00000     2.36406     1 1s   -0.52910     1 1s    0.27393     1 2pz   0.30383     1 2pz  -0.40293     1 3d0   0.69558
                                    2 1s   -0.52910     2 1s    0.27393     2 2pz  -0.30383     2 2pz   0.40293     2 3d0   0.69558
   33.1    -0.00000     2.67558     1 2px  -0.26417     1 3d1+  0.90218     2 2px   0.26417     2 3d1+  0.90218
   34.1    -0.00000     2.75729     1 1s   -0.92357     1 2py   0.36374     1 2pz  -0.25294     1 3d2+  0.71036     1 3d1-  0.42395
                                    2 1s    0.92357     2 2py   0.36374     2 2pz  -0.25294     2 3d2+ -0.71036     2 3d1- -0.42395
                                    4 1s    0.97072     5 1s   -0.97072
   35.1    -0.00000     3.03328     1 1s    0.30775     1 1s    2.10886     1 2pz  -0.76957     1 2pz  -1.21349     1 3d0   1.10758
                                    2 1s   -0.30775     2 1s   -2.10886     2 2pz  -0.76957     2 2pz  -1.21349     2 3d0  -1.10758
   36.1    -0.00000     3.16986     1 1s   -0.34167     1 2py   0.64703     1 3d2+  0.28196     1 3d1-  0.98438     2 1s   -0.34167
                                    2 2py  -0.64703     2 3d2+  0.28196     2 3d1-  0.98438     3 1s   -0.25218     4 1s    0.90506
                                    5 1s    0.90506     6 1s   -0.25218


 Natural orbital dump (state averaged) at molpro section  2140.2    (Orbital set 2)



 **********************************************************************************************************************************
 DATASETS  * FILE   NREC   LENGTH (MB)   RECORD NAMES
              1      20       31.45       500      610      700      900      950      970     1000      129      960     1100   
                                          VAR    BASINP    GEOM    SYMINP    ZMAT    AOBASIS   BASIS     P2S    ABASIS      S 
                                         1400     1410     1200     1210     1080     1600     1650     1300     1700     1380   
                                           T        V       H0       H01     AOSYM     SMH    MOLCAS    ERIS     OPER     JKOP   

              2       5        5.42       700     1000      520     2100     2140   
                                         GEOM     BASIS   MCVARS     RHF     MCSCF   

 PROGRAMS   *        TOTAL     MULTI    HF-SCF       INT
 CPU TIMES  *         0.62      0.17      0.10      0.26
 REAL TIME  *         0.89 SEC
 DISK USED  *        38.63 MB
 **********************************************************************************************************************************
 Molecular orbitals read from record     2140.2  Type=MCSCF/NATURAL (state averaged)
 Occupation numbers read from record     2140.2  Type=MCSCF/NATURAL (state averaged)
 Orbital energies read from record       2140.2  Type=MCSCF/NATURAL (state averaged)
 Redundancy group numbers read from rec  2140.2  Type=MCSCF/NATURAL (state averaged)

 MULTI/6-31G* energy=    -77.371800800639

           MULTI          HF-SCF
    -77.37180080    -77.91619910
 **********************************************************************************************************************************
 Molpro calculation terminated
