
 Primary working directories    : /scratch.local/johan406.molpro_temp/molpro.RYCyE981qI
 Secondary working directories  : /scratch.local/johan406.molpro_temp/molpro.RYCyE981qI
 Wavefunction directory         : /home/goodpast/johan406/wfu/
 Main file repository           : /scratch.local/johan406.molpro_temp/molpro.RYCyE981qI/

 id        : roweumn

 Nodes     nprocs
 cn0117       1

 Using customized tuning parameters: mindgm=1; mindgv=20; mindgc=4; mindgr=1; noblas=0; minvec=7
 default implementation of scratch files=df  


 Variables initialized (934), CPU time= 0.00 sec
                                                                                 !leave this line blank
 
 gprint, orbitals=30
 memory, 125., m
 symmetry, nosym
 nelect=16
 basis=6-31g*
 
 geometry={
 C 0.0 -0.0258 0.6691
 C 0.0 0.0258 -0.6691
 H 0.0 1.0695 1.3305
 H -0.0 -0.7603 1.1391
 H 0.0 0.7603 -1.1391
 H 0.0 -1.0695 -1.3305
 }
 
 hf
 {multi,
 closed 7
 occ 9
 wf,spin=0;STATE,3
 }
 
 Commands  initialized (763), CPU time= 0.01 sec, 617 directives.
 Default parameters read. Elapsed time= 0.08 sec

 Checking input...
 Passed
1


                                         ***  PROGRAM SYSTEM MOLPRO  ***
                                       Copyright, TTI GmbH Stuttgart, 2015
                                    Version 2019.2 linked Oct 25 2019 22:50:27


 **********************************************************************************************************************************
 LABEL *                                                                                 
  64 bit serial version                                                                  DATE: 26-Jan-23          TIME: 21:08:42  
 **********************************************************************************************************************************

 SHA1:             8dbd9ae1082e4ce945b0f27595c9eb2d4aa09004
 **********************************************************************************************************************************


 Variable memory set to  125000000 words,  buffer space 

 SETTING NELECT         =        16.00000000                                  
 SETTING BASIS          =    6-31G*
 ZSYMEL=NOSYM


Geometry recognized as XYZ



 Recomputing integrals since basis changed


 Using spherical harmonics

 Library entry C      S 6-31G                selected for orbital group  1
 Library entry C      P 6-31G                selected for orbital group  1
 Library entry C      D 6-31G*               selected for orbital group  1
 Library entry H      S 6-31G                selected for orbital group  2


 PROGRAM * SEWARD (Integral evaluation for generally contracted gaussian basis sets)     Author: Roland Lindh, 1990

 Geometry written to block  1 of record 700


 Point group  C1  



 ATOMIC COORDINATES

 NR  ATOM    CHARGE       X              Y              Z

   1  C       6.00    0.000000000   -0.048754934    1.264415750
   2  C       6.00    0.000000000    0.048754934   -1.264415750
   3  H       1.00    0.000000000    2.021062090    2.514280609
   4  H       1.00    0.000000000   -1.436758773    2.152587028
   5  H       1.00    0.000000000    1.436758773   -2.152587028
   6  H       1.00    0.000000000   -2.021062090   -2.514280609

 Bond lengths in Bohr (Angstrom)

 1-2  2.530710756  1-3  2.417913290  1-4  1.647847953  2-5  1.647847953  2-6  2.417913290
     ( 1.339194459)     ( 1.279504611)     ( 0.872003584)     ( 0.872003584)     ( 1.279504611)

 Bond angles

  1-2-5  124.82300452   1-2-6  118.91760849   2-1-3  118.91760849   2-1-4  124.82300452

  3-1-4  116.25938698   5-2-6  116.25938698

 NUCLEAR CHARGE:                   16
 NUMBER OF PRIMITIVE AOS:          72
 NUMBER OF SYMMETRY AOS:           70
 NUMBER OF CONTRACTIONS:           36   (   36A   )
 NUMBER OF CORE ORBITALS:           2   (    2A   )
 NUMBER OF VALENCE ORBITALS:       12   (   12A   )


 NUCLEAR REPULSION ENERGY   33.85505987

 EXTRA SYMMETRY OF AOS IN SYMMETRY 1:   1 1 1 2 1 1 2 1 1 1   2 2 1 1 1 1 1 2 1 1   2 1 1 1 2 2 1 1 1 1   1 1 1 1 1 1

 Eigenvalues of metric

         1 0.829E-02 0.112E-01 0.290E-01 0.493E-01 0.953E-01 0.159E+00 0.192E+00 0.200E+00


 Contracted 2-electron integrals neglected if value below      1.0D-11
 AO integral compression algorithm  1   Integral accuracy      1.0D-11

     1.049 MB (compressed) written to integral file ( 36.6%)


 NUMBER OF SORTED TWO-ELECTRON INTEGRALS:     222111.     BUFFER LENGTH:  32768
 NUMBER OF SEGMENTS:   1  SEGMENT LENGTH:     222111      RECORD LENGTH: 524288

 Memory used in sort:       0.78 MW

 SORT1 READ      284735. AND WROTE      118721. INTEGRALS IN      1 RECORDS. CPU TIME:     0.00 SEC, REAL TIME:     0.01 SEC
 SORT2 READ      118721. AND WROTE      222111. INTEGRALS IN      4 RECORDS. CPU TIME:     0.02 SEC, REAL TIME:     0.02 SEC

 FILE SIZES:   FILE 1:    31.1 MBYTE,  FILE 4:     4.2 MBYTE,   TOTAL:     35.4 MBYTE

 OPERATOR DM      FOR CENTER  0  COORDINATES:    0.000000    0.000000    0.000000


 **********************************************************************************************************************************
 DATASETS  * FILE   NREC   LENGTH (MB)   RECORD NAMES
              1      19       30.72       500      610      700      900      950      970     1000      129      960     1100   
                                          VAR    BASINP    GEOM    SYMINP    ZMAT    AOBASIS   BASIS     P2S    ABASIS      S 
                                         1400     1410     1200     1210     1080     1600     1650     1300     1700   
                                           T        V       H0       H01     AOSYM     SMH    MOLCAS    ERIS     OPER   

 PROGRAMS   *        TOTAL       INT
 CPU TIMES  *         0.36      0.26
 REAL TIME  *         0.57 SEC
 DISK USED  *        35.71 MB
 **********************************************************************************************************************************


 PROGRAM * RHF-SCF (CLOSED SHELL)       Authors: W. Meyer, H.-J. Werner


 NUMBER OF ELECTRONS:       8+    8-    SPACE SYMMETRY=1    SPIN SYMMETRY: Singlet 
 CONVERGENCE THRESHOLDS:    1.00E-05 (Density)    1.00E-07 (Energy)
 MAX. NUMBER OF ITERATIONS:       60
 INTERPOLATION TYPE:            DIIS
 INTERPOLATION STEPS:              2 (START)      1 (STEP)
 LEVEL SHIFTS:                  0.00 (CLOSED)  0.00 (OPEN) 



 Orbital guess generated from atomic densities. Full valence occupancy:    8

 Molecular orbital dump at record        2100.2

 Initial occupancy:   8

 ITERATION    DDIFF          GRAD             ENERGY        2-EL.EN.            DIPOLE MOMENTS         DIIS   ORB.
    1      0.000D+00      0.000D+00       -77.86949898    119.441930   -0.00000   -0.00000   -0.00000    0    start
    2      0.000D+00      0.942D-02       -77.89787383    117.176309    0.00000   -0.00000    0.00000    1    diag
    3      0.952D-02      0.347D-02       -77.90088848    117.894673   -0.00000   -0.00000   -0.00000    2    diag
    4      0.309D-02      0.843D-03       -77.90123075    117.781066   -0.00000   -0.00000   -0.00000    3    diag
    5      0.135D-02      0.962D-04       -77.90123560    117.781947    0.00000   -0.00000   -0.00000    4    diag
    6      0.211D-03      0.118D-04       -77.90123568    117.781526    0.00000   -0.00000    0.00000    5    diag
    7      0.294D-04      0.220D-05       -77.90123569    117.781521   -0.00000   -0.00000   -0.00000    6    diag
    8      0.642D-05      0.291D-06       -77.90123569    117.781506    0.00000   -0.00000    0.00000    0    orth

 Final occupancy:   8

 !RHF STATE  1.1 Energy               -77.901235686148
 Nuclear energy                        33.85505987
 One-electron energy                 -170.64704843
 Two-electron energy                   58.89075288
 Virial quotient                       -0.99446833
 !RHF STATE  1.1 Dipole moment          0.00000000    -0.00000000     0.00000000
 Dipole moment /Debye                   0.00000000    -0.00000000     0.00000000

 ELECTRON ORBITALS
 =================

  Orbital  Occupation    Energy     Coefficients
    1.1     2.00000   -11.23100     1 1s    0.70416     2 1s    0.70416
    2.1     2.00000   -11.22940     1 1s    0.70451     2 1s   -0.70451
    3.1     2.00000    -1.04194     1 1s    0.30459     2 1s    0.30459
    4.1     2.00000    -0.84444     2 1s   -0.23210
    5.1     2.00000    -0.62805     1 2pz   0.38074     2 2pz  -0.38074
    6.1     2.00000    -0.60919     1 2py   0.29021     2 2py   0.29021
    7.1     2.00000    -0.47461     1 2py   0.25261     2 2py  -0.25261
    8.1     2.00000    -0.37415     1 2px   0.37733     1 2px   0.30474     2 2px   0.37733     2 2px   0.30474
    9.1     0.00000     0.17427     1 2px   0.34915     1 2px   0.72330     2 2px  -0.34915     2 2px  -0.72330
   10.1     0.00000     0.23519     1 1s   -0.70640     1 2py  -0.50931     2 1s    0.70640     2 2py  -0.50931     3 1s    1.12967
                                    6 1s   -1.12967
   11.1     0.00000     0.25884     1 1s   -1.47656     1 2pz  -0.63022     2 1s   -1.47656     2 2pz   0.63022     3 1s    0.96268
                                    4 1s    1.05325     5 1s    1.05325     6 1s    0.96268
   12.1     0.00000     0.34710     1 1s   -2.18369     1 2py   0.61730     2 1s    2.18369     2 2py   0.61730     4 1s    2.08568
                                    5 1s   -2.08568
   13.1     0.00000     0.38114     1 1s   -1.25480     1 2py   1.85659     1 2pz  -0.30879     2 1s   -1.25480     2 2py  -1.85659
                                    2 2pz   0.30879     3 1s   -1.02081     4 1s    2.48151     5 1s    2.48151     6 1s   -1.02081
   14.1     0.00000     0.49697     1 1s   -2.69253     1 2py  -0.44145     1 2pz   3.02095     2 1s    2.69253     2 2py  -0.44145
                                    2 2pz   3.02095     3 1s   -0.27171     4 1s   -1.25363     5 1s    1.25363     6 1s    0.27171
   15.1     0.00000     0.66996     1 1s    0.42305     1 2pz  -0.55055     1 2py  -0.41755     1 2pz   1.08111     2 1s    0.42305
                                    2 2pz   0.55055     2 2py   0.41755     2 2pz  -1.08111     4 1s   -0.43974     5 1s   -0.43974
   16.1     0.00000     0.74877     1 1s   -1.15295     1 2py  -0.38141     1 2py   0.90536     1 2pz  -0.28095     2 1s    1.15295
                                    2 2py  -0.38141     2 2py   0.90536     2 2pz  -0.28095     3 1s   -0.26319     4 1s    0.42412
                                    4 1s    0.75741     5 1s   -0.42412     5 1s   -0.75741     6 1s    0.26319
   17.1     0.00000     0.77261     1 2px  -0.73957     1 2px   0.64128     2 2px  -0.73957     2 2px   0.64128
   18.1     0.00000     0.86662     1 1s   -0.82643     1 1s    1.91121     1 2py  -1.25737     1 2pz   0.44658     2 1s   -0.82643
                                    2 1s    1.91121     2 2py   1.25737     2 2pz  -0.44658     3 1s   -0.45563     3 1s    0.44624
                                    4 1s   -0.35105     4 1s   -1.36385     5 1s   -0.35105     5 1s   -1.36385     6 1s   -0.45563
                                    6 1s    0.44624
   19.1     0.00000     0.88440     1 2px  -0.81503     1 2px   1.08049     2 2px   0.81503     2 2px  -1.08049
   20.1     0.00000     0.96390     1 1s   -0.42397     1 2pz   0.53922     1 2pz  -0.49349     2 1s    0.42397     2 2pz   0.53922
                                    2 2pz  -0.49349     3 1s    0.61468     3 1s   -0.38420     4 1s    0.37808     5 1s   -0.37808
                                    6 1s   -0.61468     6 1s    0.38420
   21.1     0.00000     1.03730     1 1s    0.33495     1 1s   -0.47056     1 2py   0.53752     1 2pz   0.44771     1 2py  -0.81882
                                    1 2pz  -0.64305     2 1s   -0.33495     2 1s    0.47056     2 2py   0.53752     2 2pz   0.44771
                                    2 2py  -0.81882     2 2pz  -0.64305     3 1s   -0.44880     3 1s    1.21513     6 1s    0.44880
                                    6 1s   -1.21513
   22.1     0.00000     1.05002     1 1s    0.78028     1 1s   -0.98214     1 2py   0.59890     1 2py  -1.45987     1 2pz  -0.30655
                                    2 1s    0.78028     2 1s   -0.98214     2 2py  -0.59890     2 2py   1.45987     2 2pz   0.30655
                                    3 1s   -0.41488     3 1s    1.24387     4 1s   -0.37396     5 1s   -0.37396     6 1s   -0.41488
                                    6 1s    1.24387
   23.1     0.00000     1.30434     1 1s    0.49211     1 1s   -1.98579     1 2py  -0.64153     1 2py   3.27934     1 2pz  -0.49061
                                    2 1s    0.49211     2 1s   -1.98579     2 2py   0.64153     2 2py  -3.27934     2 2pz   0.49061
                                    3 1s   -0.59840     3 1s   -0.43733     4 1s    2.52638     5 1s    2.52638     6 1s   -0.59840
                                    6 1s   -0.43733
   24.1     0.00000     1.33503     1 1s   -1.25403     1 1s    4.73849     1 2pz   0.42958     1 2py   0.26928     1 2pz  -2.17202
                                    2 1s    1.25403     2 1s   -4.73849     2 2pz   0.42958     2 2py   0.26928     2 2pz  -2.17202
                                    3 1s   -0.26947     4 1s   -0.31126     5 1s    0.31126     6 1s    0.26947
   25.1     0.00000     1.39681     1 1s   -1.05699     1 1s    2.68110     1 2py   0.36995     1 2pz  -0.34694     1 2py  -0.67480
                                    2 1s    1.05699     2 1s   -2.68110     2 2py   0.36995     2 2pz  -0.34694     2 2py  -0.67480
                                    4 1s    0.53784     4 1s   -1.74784     5 1s   -0.53784     5 1s    1.74784
   26.1     0.00000     1.60113     1 1s   -0.63947     1 1s    0.54697     1 2py   0.29287     1 2pz  -0.27502     1 2py   1.04166
                                    2 1s   -0.63947     2 1s    0.54697     2 2py  -0.29287     2 2pz   0.27502     2 2py  -1.04166
                                    3 1s   -0.38471     3 1s   -0.26595     4 1s    0.81895     5 1s    0.81895     6 1s   -0.38471
                                    6 1s   -0.26595
   27.1     0.00000     1.72687     1 3d1+  0.61640     2 3d1+ -0.61640
   28.1     0.00000     1.81321     1 3d2-  0.68126     2 3d2-  0.68126
   29.1     0.00000     2.11935     1 3d2-  0.73293     2 3d2- -0.73293
   30.1     0.00000     2.19224     1 1s   -0.68899     1 2py   0.54193     1 2pz  -0.26772     1 3d2+  0.67817     2 1s   -0.68899
                                    2 2py  -0.54193     2 2pz   0.26772     2 3d2+  0.67817     4 1s    0.53711     4 1s    0.45611
                                    5 1s    0.53711     5 1s    0.45611
   31.1     0.00000     2.24908     1 1s   -0.33597     1 1s    0.71487     1 3d2+ -0.40051     1 3d1-  0.55064     2 1s    0.33597
                                    2 1s   -0.71487     2 3d2+  0.40051     2 3d1- -0.55064     3 1s   -0.45790     4 1s    0.37092
                                    5 1s   -0.37092     6 1s    0.45790
   32.1     0.00000     2.38112     1 1s   -0.53238     1 1s    0.28858     1 2pz   0.29920     1 2pz  -0.39607     1 3d0   0.69573
                                    2 1s   -0.53238     2 1s    0.28858     2 2pz  -0.29920     2 2pz   0.39607     2 3d0   0.69573
   33.1     0.00000     2.69636     1 2px  -0.26330     1 3d1+  0.90166     2 2px   0.26330     2 3d1+  0.90166
   34.1     0.00000     2.79107     1 1s   -0.88465     1 2py   0.38020     1 2pz  -0.27049     1 3d2+  0.70766     1 3d1-  0.43601
                                    2 1s    0.88465     2 2py   0.38020     2 2pz  -0.27049     2 3d2+ -0.70766     2 3d1- -0.43601
                                    4 1s    0.99595     5 1s   -0.99595
   35.1     0.00000     3.04951     1 1s    0.31574     1 1s    2.09103     1 2pz  -0.77347     1 2pz  -1.20261     1 3d0   1.10487
                                    2 1s   -0.31574     2 1s   -2.09103     2 2pz  -0.77347     2 2pz  -1.20261     2 3d0  -1.10487
   36.1     0.00000     3.19686     1 1s   -0.36400     1 2py   0.65577     1 3d2+  0.29714     1 3d1-  0.98687     2 1s   -0.36400
                                    2 2py  -0.65577     2 3d2+  0.29714     2 3d1-  0.98687     4 1s    0.93542     5 1s    0.93542


 HOMO      8.1    -0.374151 =     -10.1812eV
 LUMO      9.1     0.174266 =       4.7420eV
 LUMO-HOMO         0.548417 =      14.9232eV


 **********************************************************************************************************************************
 DATASETS  * FILE   NREC   LENGTH (MB)   RECORD NAMES
              1      19       30.72       500      610      700      900      950      970     1000      129      960     1100   
                                          VAR    BASINP    GEOM    SYMINP    ZMAT    AOBASIS   BASIS     P2S    ABASIS      S 
                                         1400     1410     1200     1210     1080     1600     1650     1300     1700   
                                           T        V       H0       H01     AOSYM     SMH    MOLCAS    ERIS     OPER   

              2       4        2.86       700     1000      520     2100   
                                         GEOM     BASIS   MCVARS     RHF  

 PROGRAMS   *        TOTAL    HF-SCF       INT
 CPU TIMES  *         0.46      0.10      0.26
 REAL TIME  *         0.70 SEC
 DISK USED  *        35.71 MB
 **********************************************************************************************************************************


 PROGRAM * MULTI (Direct Multiconfiguration SCF)       Authors: P.J. Knowles, H.-J. Werner (1984)


 Number of closed-shell orbitals:   7 (   7 )
 Number of active  orbitals:        2 (   2 )
 Number of external orbitals:      27 (  27 )

 State symmetry 1

 Number of electrons:     2    Spin symmetry=Singlet   Space symmetry=1
 Number of states:        3
 Number of CSFs:          3   (4 determinants, 4 intermediate states)

 Molecular orbitals read from record     2100.2  Type=RHF/CANONICAL (state 1.1)

 EXTRA SYMMETRY OF MOS IN SYMMETRY 1:   1 1 1 1 1 1 1 2 2 1   1 1 1 1 1 1 2 1 2 1   1 1 1 1 1 1 2 2 2 1   1 1 2 1 1 1

 Wavefunction dump at record             2140.2

 Convergence thresholds  0.10E-01 (gradient)  0.10E-05 (energy)  0.10E-02 (step length)

 Weight factors for state symmetry  1:    0.33333   0.33333   0.33333

 Number of orbital rotations:      257   (    14 Core/Active    189 Core/Virtual   0 Active/Active     54 Active/Virtual)
 Total number of variables:        269

 Micro-Iterations solved by the two-step solver

 ITER. MIC  NCI  NEG     ENERGY(VAR)     ENERGY(PROJ)   ENERGY CHANGE     GRAD(0)  GRAD(ORB)   GRAD(CI)     STEP       TIME

   1    3    3    0     -77.59996300     -77.60610868   -0.00614568    0.13140674 0.00000151 0.00000000  0.62D-01      0.07
   2    2    3    0     -77.60601236     -77.60601605   -0.00000369    0.00299163 0.00000183 0.00000000  0.16D-02      0.10
   3    2    3    0     -77.60601606     -77.60601606   -0.00000000    0.00000214 0.00000000 0.00000000  0.13D-05      0.14

 ** WVFN ****  CONVERGENCE REACHED, FINAL GRADIENT:  0.13D-11



 Results for state 1.1
 =====================

 !MCSCF STATE  1.1 Energy             -77.919522094681
 Nuclear energy                        33.85505987
 Kinetic energy                        78.39642596
 One electron energy                 -170.77311373
 Two electron energy                   58.99853177
 Virial ratio                           1.99391677

 !MCSCF STATE  1.1 Dipole moment        0.00000000     0.00000000    -0.00000000
 Dipole moment /Debye                   0.00000000     0.00000000    -0.00000000

 Results for state 2.1
 =====================

 !MCSCF STATE  2.1 Energy             -77.541680549413
 Nuclear energy                        33.85505987
 Kinetic energy                        78.58456006
 One electron energy                 -170.21664258
 Two electron energy                   58.81990217
 Virial ratio                           1.98672921

 !MCSCF STATE  2.1 Dipole moment        0.00000000     0.00000000    -0.00000000
 Dipole moment /Debye                   0.00000000     0.00000000    -0.00000000

 Results for state 3.1
 =====================

 !MCSCF STATE  3.1 Energy             -77.356845526461
 Nuclear energy                        33.85505987
 Kinetic energy                        78.77269416
 One electron energy                 -169.66017143
 Two electron energy                   58.44826604
 Virial ratio                           1.98202615

 !MCSCF STATE  3.1 Dipole moment        0.00000000     0.00000000    -0.00000000
 Dipole moment /Debye                   0.00000000     0.00000000    -0.00000000

 State-averaged charge density matrix saved on record  2140.2 (density set 1)

 !MCSCF trans         <2.1|DMY|1.1>     0.069563475989 au =     0.176801139305 Debye
 !MCSCF trans         <3.1|DMY|2.1>     0.105285564375 au =     0.267591684704 Debye

 !MCSCF trans         <2.1|DMZ|1.1>    -1.502902659976 au =    -3.819747342542 Debye
 !MCSCF trans         <3.1|DMZ|2.1>    -2.274670040639 au =    -5.781255881887 Debye


 NATURAL ORBITALS (state averaged)
 =================================

  Orbital  Occupation    Energy     Coefficients
    1.1     2.00000   -11.24578     1 1s    0.70417     2 1s    0.70417
    2.1     2.00000   -11.24445     1 1s    0.70447     2 1s   -0.70447
    3.1     2.00000    -1.05480     1 1s    0.31257     2 1s    0.31257
    4.1     2.00000    -0.85156     2 1s   -0.23188
    5.1     2.00000    -0.64275     1 2pz   0.38449     2 2pz  -0.38449
    6.1     2.00000    -0.62157     1 2py   0.29479     2 2py   0.29479
    7.1     2.00000    -0.48166     1 2py   0.26092     2 2py  -0.26092
    8.1     1.00000     0.02927     1 2px   0.38681     1 2px   0.67627     2 2px  -0.38681     2 2px  -0.67627
    9.1     1.00000    -0.22952     1 2px   0.36160     1 2px   0.31649     2 2px   0.36160     2 2px   0.31649
   10.1    -0.00000     0.22690     1 1s   -0.69427     1 2py  -0.51419     2 1s    0.69427     2 2py  -0.51419     3 1s    1.12111
                                    6 1s   -1.12111
   11.1    -0.00000     0.25541     1 1s   -1.45258     1 2pz  -0.62904     2 1s   -1.45258     2 2pz   0.62904     3 1s    0.97716
                                    4 1s    1.01507     5 1s    1.01507     6 1s    0.97716
   12.1    -0.00000     0.34524     1 1s   -2.20224     1 2py   0.60533     2 1s    2.20224     2 2py   0.60533     4 1s    2.07723
                                    5 1s   -2.07723
   13.1    -0.00000     0.37821     1 1s   -1.27870     1 2py   1.84521     1 2pz  -0.32958     2 1s   -1.27870     2 2py  -1.84521
                                    2 2pz   0.32958     3 1s   -1.00145     4 1s    2.49374     5 1s    2.49374     6 1s   -1.00145
   14.1    -0.00000     0.49391     1 1s   -2.68214     1 2py  -0.42671     1 2pz   2.99801     2 1s    2.68214     2 2py  -0.42671
                                    2 2pz   2.99801     3 1s   -0.28387     4 1s   -1.24520     5 1s    1.24520     6 1s    0.28387
   15.1    -0.00000     0.65866     1 1s    0.26804     1 1s    0.31140     1 2pz  -0.54229     1 2py  -0.36122     1 2pz   1.05217
                                    2 1s    0.26804     2 1s    0.31140     2 2pz   0.54229     2 2py   0.36122     2 2pz  -1.05217
                                    4 1s   -0.35325     5 1s   -0.35325
   16.1    -0.00000     0.73686     1 1s   -1.09229     1 2py  -0.38899     1 2py   0.91577     1 2pz  -0.32955     2 1s    1.09229
                                    2 2py  -0.38899     2 2py   0.91577     2 2pz  -0.32955     4 1s    0.42567     4 1s    0.76887
                                    5 1s   -0.42567     5 1s   -0.76887
   17.1    -0.00000     0.76704     1 2px  -0.74650     1 2px   0.63590     2 2px  -0.74650     2 2px   0.63590
   18.1    -0.00000     0.86393     1 1s   -0.81713     1 1s    1.93962     1 2py  -1.28572     1 2pz   0.48956     2 1s   -0.81713
                                    2 1s    1.93962     2 2py   1.28572     2 2pz  -0.48956     3 1s   -0.45727     3 1s    0.45058
                                    4 1s   -0.35324     4 1s   -1.39578     5 1s   -0.35324     5 1s   -1.39578     6 1s   -0.45727
                                    6 1s    0.45058
   19.1    -0.00000     0.86741     1 2px  -0.79922     1 2px   1.11035     2 2px   0.79922     2 2px  -1.11035
   20.1    -0.00000     0.94775     1 1s   -0.27644     1 2pz   0.55489     1 2pz  -0.58799     2 1s    0.27644     2 2pz   0.55489
                                    2 2pz  -0.58799     3 1s    0.60223     3 1s   -0.35093     4 1s    0.35709     5 1s   -0.35709
                                    6 1s   -0.60223     6 1s    0.35093
   21.1    -0.00000     1.02684     1 1s    0.32056     1 1s   -0.40778     1 2py   0.53579     1 2pz   0.42520     1 2py  -0.83505
                                    1 2pz  -0.62803     2 1s   -0.32056     2 1s    0.40778     2 2py   0.53579     2 2pz   0.42520
                                    2 2py  -0.83505     2 2pz  -0.62803     3 1s   -0.46572     3 1s    1.22852     4 1s   -0.30129
                                    5 1s    0.30129     6 1s    0.46572     6 1s   -1.22852
   22.1    -0.00000     1.04172     1 1s    0.77046     1 1s   -0.96165     1 2py   0.60519     1 2py  -1.49621     1 2pz  -0.31119
                                    2 1s    0.77046     2 1s   -0.96165     2 2py  -0.60519     2 2py   1.49621     2 2pz   0.31119
                                    3 1s   -0.40839     3 1s    1.25276     4 1s   -0.40701     5 1s   -0.40701     6 1s   -0.40839
                                    6 1s    1.25276
   23.1    -0.00000     1.29686     1 1s    0.49726     1 1s   -1.99249     1 2py  -0.63348     1 2py   3.26369     1 2pz  -0.49470
                                    2 1s    0.49726     2 1s   -1.99249     2 2py   0.63348     2 2py  -3.26369     2 2pz   0.49470
                                    3 1s   -0.60492     3 1s   -0.42436     4 1s    2.52146     5 1s    2.52146     6 1s   -0.60492
                                    6 1s   -0.42436
   24.1    -0.00000     1.31545     1 1s   -1.27771     1 1s    4.80096     1 2pz   0.42239     1 2py   0.25060     1 2pz  -2.16508
                                    2 1s    1.27771     2 1s   -4.80096     2 2pz   0.42239     2 2py   0.25060     2 2pz  -2.16508
                                    3 1s   -0.27359     4 1s   -0.29929     5 1s    0.29929     6 1s    0.27359
   25.1    -0.00000     1.38859     1 1s   -1.03352     1 1s    2.59497     1 2py   0.35664     1 2pz  -0.36737     1 2py  -0.66952
                                    1 2pz   0.29499     2 1s    1.03352     2 1s   -2.59497     2 2py   0.35664     2 2pz  -0.36737
                                    2 2py  -0.66952     2 2pz   0.29499     4 1s    0.53549     4 1s   -1.75400     5 1s   -0.53549
                                    5 1s    1.75400
   26.1    -0.00000     1.59340     1 1s   -0.64209     1 1s    0.55644     1 2py   0.28620     1 2pz  -0.27616     1 2py   1.03841
                                    2 1s   -0.64209     2 1s    0.55644     2 2py  -0.28620     2 2pz   0.27616     2 2py  -1.03841
                                    3 1s   -0.38138     3 1s   -0.26885     4 1s    0.81538     5 1s    0.81538     6 1s   -0.38138
                                    6 1s   -0.26885
   27.1    -0.00000     1.70180     1 3d1+  0.61614     2 3d1+ -0.61614
   28.1    -0.00000     1.80012     1 3d2-  0.68127     2 3d2-  0.68127
   29.1    -0.00000     2.09702     1 3d2-  0.73291     2 3d2- -0.73291
   30.1    -0.00000     2.17763     1 1s   -0.68361     1 2py   0.54419     1 2pz  -0.27195     1 3d2+  0.67765     2 1s   -0.68361
                                    2 2py  -0.54419     2 2pz   0.27195     2 3d2+  0.67765     4 1s    0.53983     4 1s    0.45485
                                    5 1s    0.53983     5 1s    0.45485
   31.1    -0.00000     2.23210     1 1s   -0.33962     1 1s    0.73721     1 3d2+ -0.40398     1 3d1-  0.54652     2 1s    0.33962
                                    2 1s   -0.73721     2 3d2+  0.40398     2 3d1- -0.54652     3 1s   -0.46179     4 1s    0.36852
                                    5 1s   -0.36852     6 1s    0.46179
   32.1    -0.00000     2.36194     1 1s   -0.52990     1 1s    0.28767     1 2pz   0.30559     1 2pz  -0.39760     1 3d0   0.69595
                                    2 1s   -0.52990     2 1s    0.28767     2 2pz  -0.30559     2 2pz   0.39760     2 3d0   0.69595
   33.1    -0.00000     2.67444     1 2px  -0.26403     1 3d1+  0.90208     2 2px   0.26403     2 3d1+  0.90208
   34.1    -0.00000     2.77395     1 1s   -0.87313     1 2py   0.38468     1 2pz  -0.27350     1 3d2+  0.70469     1 3d1-  0.43675
                                    2 1s    0.87313     2 2py   0.38468     2 2pz  -0.27350     2 3d2+ -0.70469     2 3d1- -0.43675
                                    4 1s    1.00198     5 1s   -1.00198
   35.1    -0.00000     3.03234     1 1s    0.30950     1 1s    2.11725     1 2pz  -0.76504     1 2pz  -1.21576     1 3d0   1.10614
                                    2 1s   -0.30950     2 1s   -2.11725     2 2pz  -0.76504     2 2pz  -1.21576     2 3d0  -1.10614
   36.1    -0.00000     3.18464     1 1s   -0.36256     1 2py   0.65531     1 3d2+  0.29635     1 3d1-  0.98651     2 1s   -0.36256
                                    2 2py  -0.65531     2 3d2+  0.29635     2 3d1-  0.98651     4 1s    0.93877     5 1s    0.93877


 Natural orbital dump (state averaged) at molpro section  2140.2    (Orbital set 2)



 **********************************************************************************************************************************
 DATASETS  * FILE   NREC   LENGTH (MB)   RECORD NAMES
              1      20       31.45       500      610      700      900      950      970     1000      129      960     1100   
                                          VAR    BASINP    GEOM    SYMINP    ZMAT    AOBASIS   BASIS     P2S    ABASIS      S 
                                         1400     1410     1200     1210     1080     1600     1650     1300     1700     1380   
                                           T        V       H0       H01     AOSYM     SMH    MOLCAS    ERIS     OPER     JKOP   

              2       5        5.42       700     1000      520     2100     2140   
                                         GEOM     BASIS   MCVARS     RHF     MCSCF   

 PROGRAMS   *        TOTAL     MULTI    HF-SCF       INT
 CPU TIMES  *         0.63      0.17      0.10      0.26
 REAL TIME  *         0.90 SEC
 DISK USED  *        38.63 MB
 **********************************************************************************************************************************
 Molecular orbitals read from record     2140.2  Type=MCSCF/NATURAL (state averaged)
 Occupation numbers read from record     2140.2  Type=MCSCF/NATURAL (state averaged)
 Orbital energies read from record       2140.2  Type=MCSCF/NATURAL (state averaged)
 Redundancy group numbers read from rec  2140.2  Type=MCSCF/NATURAL (state averaged)

 MULTI/6-31G* energy=    -77.356845526461

           MULTI          HF-SCF
    -77.35684553    -77.90123569
 **********************************************************************************************************************************
 Molpro calculation terminated
