
 Primary working directories    : /scratch.local/johan406.molpro_temp/molpro.vufC0t3GNN
 Secondary working directories  : /scratch.local/johan406.molpro_temp/molpro.vufC0t3GNN
 Wavefunction directory         : /home/goodpast/johan406/wfu/
 Main file repository           : /scratch.local/johan406.molpro_temp/molpro.vufC0t3GNN/

 id        : roweumn

 Nodes     nprocs
 cn0117       1

 Using customized tuning parameters: mindgm=1; mindgv=20; mindgc=4; mindgr=1; noblas=0; minvec=7
 default implementation of scratch files=df  


 Variables initialized (934), CPU time= 0.00 sec
                                                                                 !leave this line blank
 
 gprint, orbitals=30
 memory, 125., m
 symmetry, nosym
 nelect=16
 basis=6-31g*
 
 geometry={
 C -0.0 -0.0073 0.6691
 C 0.0 -0.0073 -0.6691
 H 0.0 0.9586 1.2618
 H -0.0 -0.8712 1.2077
 H 0.0 0.9586 -1.2618
 H -0.0 -0.8712 -1.2077
 }
 
 hf
 {multi,
 closed 7
 occ 9
 wf,spin=0;STATE,3
 }
 
 Commands  initialized (763), CPU time= 0.01 sec, 617 directives.
 Default parameters read. Elapsed time= 0.08 sec

 Checking input...
 Passed
1


                                         ***  PROGRAM SYSTEM MOLPRO  ***
                                       Copyright, TTI GmbH Stuttgart, 2015
                                    Version 2019.2 linked Oct 25 2019 22:50:27


 **********************************************************************************************************************************
 LABEL *                                                                                 
  64 bit serial version                                                                  DATE: 26-Jan-23          TIME: 21:12:00  
 **********************************************************************************************************************************

 SHA1:             8dbd9ae1082e4ce945b0f27595c9eb2d4aa09004
 **********************************************************************************************************************************


 Variable memory set to  125000000 words,  buffer space 

 SETTING NELECT         =        16.00000000                                  
 SETTING BASIS          =    6-31G*
 ZSYMEL=NOSYM


Geometry recognized as XYZ



 Recomputing integrals since basis changed


 Using spherical harmonics

 Library entry C      S 6-31G                selected for orbital group  1
 Library entry C      P 6-31G                selected for orbital group  1
 Library entry C      D 6-31G*               selected for orbital group  1
 Library entry H      S 6-31G                selected for orbital group  2


 PROGRAM * SEWARD (Integral evaluation for generally contracted gaussian basis sets)     Author: Roland Lindh, 1990

 Geometry written to block  1 of record 700


 Point group  C1  



 ATOMIC COORDINATES

 NR  ATOM    CHARGE       X              Y              Z

   1  C       6.00    0.000000000   -0.013795001    1.264415750
   2  C       6.00    0.000000000   -0.013795001   -1.264415750
   3  H       1.00    0.000000000    1.811491463    2.384456424
   4  H       1.00    0.000000000   -1.646329400    2.282222241
   5  H       1.00    0.000000000    1.811491463   -2.384456424
   6  H       1.00    0.000000000   -1.646329400   -2.282222241

 Bond lengths in Bohr (Angstrom)

 1-2  2.528831500  1-3  2.141532579  1-4  1.923823957  2-5  2.141532579  2-6  1.923823957
     ( 1.338200000)     ( 1.133250237)     ( 1.018043796)     ( 1.133250237)     ( 1.018043796)

 Bond angles

  1-2-5  121.53430222   1-2-6  121.94155024   2-1-3  121.53430222   2-1-4  121.94155024

  3-1-4  116.52414754   5-2-6  116.52414754

 NUCLEAR CHARGE:                   16
 NUMBER OF PRIMITIVE AOS:          72
 NUMBER OF SYMMETRY AOS:           70
 NUMBER OF CONTRACTIONS:           36   (   36A   )
 NUMBER OF CORE ORBITALS:           2   (    2A   )
 NUMBER OF VALENCE ORBITALS:       12   (   12A   )


 NUCLEAR REPULSION ENERGY   33.44285791

 EXTRA SYMMETRY OF AOS IN SYMMETRY 1:   1 1 1 2 1 1 2 1 1 1   2 2 1 1 1 1 1 2 1 1   2 1 1 1 2 2 1 1 1 1   1 1 1 1 1 1

 Eigenvalues of metric

         1 0.827E-02 0.168E-01 0.360E-01 0.469E-01 0.731E-01 0.192E+00 0.207E+00 0.224E+00


 Contracted 2-electron integrals neglected if value below      1.0D-11
 AO integral compression algorithm  1   Integral accuracy      1.0D-11

     0.786 MB (compressed) written to integral file ( 38.1%)


 NUMBER OF SORTED TWO-ELECTRON INTEGRALS:     222111.     BUFFER LENGTH:  32768
 NUMBER OF SEGMENTS:   1  SEGMENT LENGTH:     222111      RECORD LENGTH: 524288

 Memory used in sort:       0.78 MW

 SORT1 READ      284735. AND WROTE       98963. INTEGRALS IN      1 RECORDS. CPU TIME:     0.01 SEC, REAL TIME:     0.00 SEC
 SORT2 READ       98963. AND WROTE      222111. INTEGRALS IN      3 RECORDS. CPU TIME:     0.02 SEC, REAL TIME:     0.02 SEC

 FILE SIZES:   FILE 1:    30.9 MBYTE,  FILE 4:     4.2 MBYTE,   TOTAL:     35.1 MBYTE

 OPERATOR DM      FOR CENTER  0  COORDINATES:    0.000000    0.000000    0.000000


 **********************************************************************************************************************************
 DATASETS  * FILE   NREC   LENGTH (MB)   RECORD NAMES
              1      19       30.64       500      610      700      900      950      970     1000      129      960     1100   
                                          VAR    BASINP    GEOM    SYMINP    ZMAT    AOBASIS   BASIS     P2S    ABASIS      S 
                                         1400     1410     1200     1210     1080     1600     1650     1300     1700   
                                           T        V       H0       H01     AOSYM     SMH    MOLCAS    ERIS     OPER   

 PROGRAMS   *        TOTAL       INT
 CPU TIMES  *         0.36      0.26
 REAL TIME  *         0.58 SEC
 DISK USED  *        35.45 MB
 **********************************************************************************************************************************


 PROGRAM * RHF-SCF (CLOSED SHELL)       Authors: W. Meyer, H.-J. Werner


 NUMBER OF ELECTRONS:       8+    8-    SPACE SYMMETRY=1    SPIN SYMMETRY: Singlet 
 CONVERGENCE THRESHOLDS:    1.00E-05 (Density)    1.00E-07 (Energy)
 MAX. NUMBER OF ITERATIONS:       60
 INTERPOLATION TYPE:            DIIS
 INTERPOLATION STEPS:              2 (START)      1 (STEP)
 LEVEL SHIFTS:                  0.00 (CLOSED)  0.00 (OPEN) 



 Orbital guess generated from atomic densities. Full valence occupancy:    8

 Molecular orbital dump at record        2100.2

 Initial occupancy:   8

 ITERATION    DDIFF          GRAD             ENERGY        2-EL.EN.            DIPOLE MOMENTS         DIIS   ORB.
    1      0.000D+00      0.000D+00       -77.99641372    118.785095   -0.00000    0.08287   -0.00000    0    start
    2      0.000D+00      0.866D-02       -78.01885814    116.909802    0.00000   -0.02917   -0.00000    1    diag
    3      0.831D-02      0.296D-02       -78.02105086    117.548956   -0.00000   -0.02740   -0.00000    2    diag
    4      0.266D-02      0.721D-03       -78.02126784    117.449414   -0.00000   -0.03857   -0.00000    3    diag
    5      0.108D-02      0.698D-04       -78.02127008    117.452265   -0.00000   -0.03993   -0.00000    4    diag
    6      0.148D-03      0.861D-05       -78.02127011    117.451828    0.00000   -0.04007    0.00000    5    diag
    7      0.169D-04      0.133D-05       -78.02127011    117.451832    0.00000   -0.04012    0.00000    6    diag
    8      0.249D-05      0.201D-06       -78.02127011    117.451828    0.00000   -0.04012    0.00000    0    orth

 Final occupancy:   8

 !RHF STATE  1.1 Energy               -78.021270113482
 Nuclear energy                        33.44285791
 One-electron energy                 -170.19004193
 Two-electron energy                   58.72591390
 Virial quotient                       -0.99966777
 !RHF STATE  1.1 Dipole moment          0.00000000    -0.04012156     0.00000000
 Dipole moment /Debye                   0.00000000    -0.10197215     0.00000000

 ELECTRON ORBITALS
 =================

  Orbital  Occupation    Energy     Coefficients
    1.1     2.00000   -11.22537     1 1s    0.70418     2 1s    0.70418
    2.1     2.00000   -11.22378     1 1s    0.70454     2 1s   -0.70454
    3.1     2.00000    -1.02840     1 1s    0.30217     2 1s    0.30217
    4.1     2.00000    -0.79567     1 1s    0.23886
    5.1     2.00000    -0.64260     1 2py   0.31264     2 2py   0.31264
    6.1     2.00000    -0.57949     1 2pz   0.39160     2 2pz  -0.39160
    7.1     2.00000    -0.50417     1 2py   0.30380     2 2py  -0.30380
    8.1     2.00000    -0.36962     1 2px   0.37358     1 2px   0.30768     2 2px   0.37358     2 2px   0.30768
    9.1     0.00000     0.17834     1 2px   0.34256     1 2px   0.73323     2 2px  -0.34256     2 2px  -0.73323
   10.1     0.00000     0.25975     1 1s   -1.31900     1 2py  -0.27042     1 2pz  -0.57873     2 1s   -1.31900     2 2py  -0.27042
                                    2 2pz   0.57873     3 1s    1.26407     4 1s    0.58730     5 1s    1.26407     6 1s    0.58730
   11.1     0.00000     0.29991     1 1s   -0.75485     1 2py   0.76602     1 2pz  -0.29507     2 1s   -0.75485     2 2py   0.76602
                                    2 2pz   0.29507     3 1s   -0.55977     4 1s    1.56131     5 1s   -0.55977     6 1s    1.56131
   12.1     0.00000     0.30866     1 1s   -1.90943     2 1s    1.90943     3 1s    1.11611     4 1s    1.01901     5 1s   -1.11611
                                    6 1s   -1.01901
   13.1     0.00000     0.39049     1 1s   -0.60408     1 2py   1.86637     2 1s    0.60408     2 2py  -1.86637     3 1s   -1.42067
                                    4 1s    1.84652     5 1s    1.42067     6 1s   -1.84652
   14.1     0.00000     0.49153     1 1s   -2.95086     1 2pz   2.96064     2 1s    2.95086     2 2pz   2.96064     3 1s   -0.39483
                                    4 1s   -0.82820     5 1s    0.39483     6 1s    0.82820
   15.1     0.00000     0.66774     1 1s    0.28384     1 2pz  -0.54839     1 2pz   1.04078     2 1s    0.28384     2 2pz   0.54839
                                    2 2pz  -1.04078
   16.1     0.00000     0.76243     1 1s   -0.34605     1 2py  -0.39168     1 2py   0.77707     2 1s   -0.34605     2 2py  -0.39168
                                    2 2py   0.77707     3 1s   -0.34498     4 1s    0.40574     5 1s   -0.34498     6 1s    0.40574
   17.1     0.00000     0.77693     1 2px  -0.74050     1 2px   0.63966     2 2px  -0.74050     2 2px   0.63966
   18.1     0.00000     0.86571     1 1s   -0.87073     1 1s    1.44393     1 2pz   0.34231     2 1s   -0.87073     2 1s    1.44393
                                    2 2pz  -0.34231     3 1s   -0.47430     4 1s   -0.31590     4 1s   -0.34615     5 1s   -0.47430
                                    6 1s   -0.31590     6 1s   -0.34615
   19.1     0.00000     0.89011     1 2px  -0.81833     1 2px   1.07434     2 2px   0.81833     2 2px  -1.07434
   20.1     0.00000     0.95233     1 1s   -0.89254     1 2pz   0.59258     1 2py   0.44701     1 2pz  -0.47213     2 1s    0.89254
                                    2 2pz   0.59258     2 2py  -0.44701     2 2pz  -0.47213     3 1s    0.40528     4 1s    0.36744
                                    4 1s    0.37566     5 1s   -0.40528     6 1s   -0.36744     6 1s   -0.37566
   21.1     0.00000     1.10181     1 1s    0.38276     1 1s   -0.55671     1 2py   0.63876     1 2py  -1.02020     2 1s    0.38276
                                    2 1s   -0.55671     2 2py   0.63876     2 2py  -1.02020     3 1s   -0.49970     3 1s    1.25536
                                    4 1s   -0.69964     5 1s   -0.49970     5 1s    1.25536     6 1s   -0.69964
   22.1     0.00000     1.14010     1 2py   0.79078     1 2pz   0.35515     1 2py  -2.41071     1 2pz  -0.58301     2 2py  -0.79078
                                    2 2pz   0.35515     2 2py   2.41071     2 2pz  -0.58301     3 1s   -0.34087     3 1s    1.63270
                                    4 1s   -0.88175     5 1s    0.34087     5 1s   -1.63270     6 1s    0.88175
   23.1     0.00000     1.23892     1 1s   -0.96641     1 1s    1.64653     1 2py   0.25905     1 2pz  -0.34747     1 2py  -0.41490
                                    1 2pz   0.47196     2 1s   -0.96641     2 1s    1.64653     2 2py   0.25905     2 2pz   0.34747
                                    2 2py  -0.41490     2 2pz  -0.47196     3 1s    0.26729     3 1s   -0.40180     4 1s    0.56001
                                    4 1s   -1.24824     5 1s    0.26729     5 1s   -0.40180     6 1s    0.56001     6 1s   -1.24824
   24.1     0.00000     1.24627     1 1s   -0.49779     1 1s    0.68208     1 2py   0.47713     1 2pz  -0.50818     1 2py  -1.84666
                                    1 2pz   1.05576     2 1s    0.49779     2 1s   -0.68208     2 2py  -0.47713     2 2pz  -0.50818
                                    2 2py   1.84666     2 2pz   1.05576     3 1s    0.45330     4 1s    0.39447     4 1s   -1.80900
                                    5 1s   -0.45330     6 1s   -0.39447     6 1s    1.80900
   25.1     0.00000     1.33677     1 1s   -1.55800     1 1s    5.36140     1 2pz   0.28575     1 2py  -0.29693     1 2pz  -1.93076
                                    2 1s    1.55800     2 1s   -5.36140     2 2pz   0.28575     2 2py   0.29693     2 2pz  -1.93076
                                    4 1s   -0.43415     6 1s    0.43415
   26.1     0.00000     1.48481     1 1s   -0.29342     1 1s    0.48527     1 2py   2.38623     2 1s    0.29342     2 1s   -0.48527
                                    2 2py  -2.38623     3 1s   -0.63296     3 1s   -0.63996     4 1s    0.74863     4 1s    0.56950
                                    5 1s    0.63296     5 1s    0.63996     6 1s   -0.74863     6 1s   -0.56950
   27.1     0.00000     1.73812     1 3d1+  0.61773     2 3d1+ -0.61773
   28.1     0.00000     1.82130     1 3d2-  0.67971     2 3d2-  0.67971
   29.1     0.00000     2.12689     1 3d2-  0.73616     2 3d2- -0.73616
   30.1     0.00000     2.18419     1 1s   -0.56240     1 3d2+  0.66285     2 1s   -0.56240     2 3d2+  0.66285     3 1s    0.49427
                                    5 1s    0.49427
   31.1     0.00000     2.35368     1 1s   -0.27633     1 2py   0.25239     1 3d0  -0.31461     1 3d1-  0.59238     2 1s   -0.27633
                                    2 2py   0.25239     2 3d0  -0.31461     2 3d1- -0.59238     3 1s   -0.32463     4 1s    0.58342
                                    5 1s   -0.32463     6 1s    0.58342
   32.1     0.00000     2.41648     1 1s   -0.47474     1 2pz  -0.43529     1 3d0   0.62061     1 3d1-  0.26621     2 1s   -0.47474
                                    2 2pz   0.43529     2 3d0   0.62061     2 3d1- -0.26621     4 1s    0.42549     6 1s    0.42549
   33.1     0.00000     2.61667     1 1s    0.28302     1 1s   -1.30989     1 2pz   0.25889     1 3d2+  0.78487     2 1s   -0.28302
                                    2 1s    1.30989     2 2pz   0.25889     2 3d2+ -0.78487     3 1s    0.45043     4 1s    0.41692
                                    5 1s   -0.45043     6 1s   -0.41692
   34.1     0.00000     2.70752     1 2px  -0.26441     1 3d1+  0.90266     2 2px   0.26441     2 3d1+  0.90266
   35.1     0.00000     3.05983     1 1s    0.30189     1 1s    2.04377     1 2pz  -0.75831     1 2pz  -1.15269     1 3d0   1.07581
                                    2 1s   -0.30189     2 1s   -2.04377     2 2pz  -0.75831     2 2pz  -1.15269     2 3d0  -1.07581
   36.1     0.00000     3.08334     1 2py   0.56739     1 2pz  -0.25642     1 3d0   0.28107     1 3d1-  0.93277     2 2py  -0.56739
                                    2 2pz  -0.25642     2 3d0  -0.28107     2 3d1-  0.93277     3 1s   -0.34309     4 1s    0.60236
                                    5 1s    0.34309     6 1s   -0.60236


 HOMO      8.1    -0.369617 =     -10.0578eV
 LUMO      9.1     0.178338 =       4.8528eV
 LUMO-HOMO         0.547955 =      14.9106eV


 **********************************************************************************************************************************
 DATASETS  * FILE   NREC   LENGTH (MB)   RECORD NAMES
              1      19       30.64       500      610      700      900      950      970     1000      129      960     1100   
                                          VAR    BASINP    GEOM    SYMINP    ZMAT    AOBASIS   BASIS     P2S    ABASIS      S 
                                         1400     1410     1200     1210     1080     1600     1650     1300     1700   
                                           T        V       H0       H01     AOSYM     SMH    MOLCAS    ERIS     OPER   

              2       4        2.86       700     1000      520     2100   
                                         GEOM     BASIS   MCVARS     RHF  

 PROGRAMS   *        TOTAL    HF-SCF       INT
 CPU TIMES  *         0.46      0.10      0.26
 REAL TIME  *         0.70 SEC
 DISK USED  *        35.45 MB
 **********************************************************************************************************************************


 PROGRAM * MULTI (Direct Multiconfiguration SCF)       Authors: P.J. Knowles, H.-J. Werner (1984)


 Number of closed-shell orbitals:   7 (   7 )
 Number of active  orbitals:        2 (   2 )
 Number of external orbitals:      27 (  27 )

 State symmetry 1

 Number of electrons:     2    Spin symmetry=Singlet   Space symmetry=1
 Number of states:        3
 Number of CSFs:          3   (4 determinants, 4 intermediate states)

 Molecular orbitals read from record     2100.2  Type=RHF/CANONICAL (state 1.1)

 EXTRA SYMMETRY OF MOS IN SYMMETRY 1:   1 1 1 1 1 1 1 2 2 1   1 1 1 1 1 1 2 1 2 1   1 1 1 1 1 1 2 2 2 1   1 1 1 2 1 1

 Wavefunction dump at record             2140.2

 Convergence thresholds  0.10E-01 (gradient)  0.10E-05 (energy)  0.10E-02 (step length)

 Weight factors for state symmetry  1:    0.33333   0.33333   0.33333

 Number of orbital rotations:      257   (    14 Core/Active    189 Core/Virtual   0 Active/Active     54 Active/Virtual)
 Total number of variables:        269

 Micro-Iterations solved by the two-step solver

 ITER. MIC  NCI  NEG     ENERGY(VAR)     ENERGY(PROJ)   ENERGY CHANGE     GRAD(0)  GRAD(ORB)   GRAD(CI)     STEP       TIME

   1    3    3    0     -77.72003677     -77.72627770   -0.00624093    0.13257731 0.00000154 0.00000000  0.63D-01      0.07
   2    2    3    0     -77.72617921     -77.72618298   -0.00000377    0.00304241 0.00000186 0.00000000  0.16D-02      0.10
   3    2    3    0     -77.72618298     -77.72618298   -0.00000000    0.00000216 0.00000000 0.00000000  0.13D-05      0.13

 ** WVFN ****  CONVERGENCE REACHED, FINAL GRADIENT:  0.13D-11



 Results for state 1.1
 =====================

 !MCSCF STATE  1.1 Energy             -78.038979244080
 Nuclear energy                        33.44285791
 Kinetic energy                        78.11509707
 One electron energy                 -170.32196199
 Two electron energy                   58.84012483
 Virial ratio                           1.99902557

 !MCSCF STATE  1.1 Dipole moment        0.00000000    -0.02687253     0.00000000
 Dipole moment /Debye                   0.00000000    -0.06829869     0.00000000

 Results for state 2.1
 =====================

 !MCSCF STATE  2.1 Energy             -77.662856704599
 Nuclear energy                        33.44285791
 Kinetic energy                        78.29584084
 One electron energy                 -169.74943505
 Two electron energy                   58.64372043
 Virial ratio                           1.99191548

 !MCSCF STATE  2.1 Dipole moment        0.00000000    -0.02625185     0.00000000
 Dipole moment /Debye                   0.00000000    -0.06672118     0.00000000

 Results for state 3.1
 =====================

 !MCSCF STATE  3.1 Energy             -77.476712994815
 Nuclear energy                        33.44285791
 Kinetic energy                        78.47658460
 One electron energy                 -169.17690810
 Two electron energy                   58.25733719
 Virial ratio                           1.98725898

 !MCSCF STATE  3.1 Dipole moment        0.00000000    -0.02563117     0.00000000
 Dipole moment /Debye                   0.00000000    -0.06514367     0.00000000

 State-averaged charge density matrix saved on record  2140.2 (density set 1)

 !MCSCF expec         <1.1|DMY|1.1>    -0.026872532098 au =    -0.068298690129 Debye
 !MCSCF expec         <2.1|DMY|2.1>    -0.026251851490 au =    -0.066721180710 Debye
 !MCSCF trans         <3.1|DMY|1.1>    -0.000261156892 au =    -0.000663751133 Debye
 !MCSCF expec         <3.1|DMY|3.1>    -0.025631170882 au =    -0.065143671291 Debye

 !MCSCF trans         <2.1|DMZ|1.1>    -1.510017345585 au =    -3.837829885191 Debye
 !MCSCF trans         <3.1|DMZ|2.1>    -2.273591968949 au =    -5.778515876441 Debye


 NATURAL ORBITALS (state averaged)
 =================================

  Orbital  Occupation    Energy     Coefficients
    1.1     2.00000   -11.24105     1 1s    0.70420     2 1s    0.70420
    2.1     2.00000   -11.23972     1 1s    0.70450     2 1s   -0.70450
    3.1     2.00000    -1.04300     1 1s    0.31019     2 1s    0.31019
    4.1     2.00000    -0.80341     1 1s    0.28294     2 1s   -0.28294
    5.1     2.00000    -0.65592     1 2py   0.31684     2 2py   0.31684
    6.1     2.00000    -0.59421     1 2pz   0.39129     2 2pz  -0.39129
    7.1     2.00000    -0.51079     1 2py   0.31031     2 2py  -0.31031
    8.1     1.00000     0.03344     1 2px   0.38052     1 2px   0.68622     2 2px  -0.38052     2 2px  -0.68622
    9.1     1.00000    -0.22569     1 2px   0.35817     1 2px   0.31911     2 2px   0.35817     2 2px   0.31911
   10.1    -0.00000     0.25563     1 1s   -1.26395     1 2py  -0.31487     1 2pz  -0.56269     2 1s   -1.26395     2 2py  -0.31487
                                    2 2pz   0.56269     3 1s    1.29375     4 1s    0.48865     5 1s    1.29375     6 1s    0.48865
   11.1    -0.00000     0.29290     1 1s   -0.83680     1 2py   0.73851     1 2pz  -0.33667     2 1s   -0.83680     2 2py   0.73851
                                    2 2pz   0.33667     3 1s   -0.46983     4 1s    1.58788     5 1s   -0.46983     6 1s    1.58788
   12.1    -0.00000     0.30540     1 1s   -1.92816     2 1s    1.92816     3 1s    1.12608     4 1s    0.99256     5 1s   -1.12608
                                    6 1s   -0.99256
   13.1    -0.00000     0.38656     1 1s   -0.61382     1 2py   1.85184     2 1s    0.61382     2 2py  -1.85184     3 1s   -1.40059
                                    4 1s    1.85351     5 1s    1.40059     6 1s   -1.85351
   14.1    -0.00000     0.48871     1 1s   -2.93015     1 2pz   2.94247     2 1s    2.93015     2 2pz   2.94247     3 1s   -0.41259
                                    4 1s   -0.82783     5 1s    0.41259     6 1s    0.82783
   15.1    -0.00000     0.65659     1 2pz  -0.54149     1 2pz   1.01801     2 2pz   0.54149     2 2pz  -1.01801
   16.1    -0.00000     0.75168     1 1s   -0.35360     1 2py  -0.40315     1 2py   0.78589     2 1s   -0.35360     2 2py  -0.40315
                                    2 2py   0.78589     3 1s   -0.33945     4 1s    0.40373     5 1s   -0.33945     6 1s    0.40373
   17.1    -0.00000     0.77093     1 2px  -0.74714     1 2px   0.63438     2 2px  -0.74714     2 2px   0.63438
   18.1    -0.00000     0.86292     1 1s   -0.86512     1 1s    1.46924     1 2pz   0.38762     2 1s   -0.86512     2 1s    1.46924
                                    2 2pz  -0.38762     3 1s   -0.47299     4 1s   -0.32025     4 1s   -0.35656     5 1s   -0.47299
                                    6 1s   -0.32025     6 1s   -0.35656
   19.1    -0.00000     0.87252     1 2px  -0.80273     1 2px   1.10478     2 2px   0.80273     2 2px  -1.10478
   20.1    -0.00000     0.93359     1 1s   -0.73585     1 2pz   0.59820     1 2py   0.43847     1 2pz  -0.55810     2 1s    0.73585
                                    2 2pz   0.59820     2 2py  -0.43847     2 2pz  -0.55810     3 1s    0.40407     4 1s    0.36802
                                    4 1s    0.36819     5 1s   -0.40407     6 1s   -0.36802     6 1s   -0.36819
   21.1    -0.00000     1.08795     1 1s    0.35107     1 1s   -0.50446     1 2py   0.63529     1 2py  -1.03336     2 1s    0.35107
                                    2 1s   -0.50446     2 2py   0.63529     2 2py  -1.03336     3 1s   -0.49346     3 1s    1.25120
                                    4 1s   -0.74569     5 1s   -0.49346     5 1s    1.25120     6 1s   -0.74569
   22.1    -0.00000     1.12972     1 2py   0.80618     1 2pz   0.33646     1 2py  -2.48515     1 2pz  -0.56331     2 2py  -0.80618
                                    2 2pz   0.33646     2 2py   2.48515     2 2pz  -0.56331     3 1s   -0.32796     3 1s    1.63326
                                    4 1s   -0.96426     5 1s    0.32796     5 1s   -1.63326     6 1s    0.96426
   23.1    -0.00000     1.23390     1 1s   -0.97303     1 1s    1.65935     1 2pz  -0.35393     1 2py  -0.38550     1 2pz   0.48167
                                    2 1s   -0.97303     2 1s    1.65935     2 2pz   0.35393     2 2py  -0.38550     2 2pz  -0.48167
                                    3 1s    0.28348     3 1s   -0.43651     4 1s    0.55284     4 1s   -1.22897     5 1s    0.28348
                                    5 1s   -0.43651     6 1s    0.55284     6 1s   -1.22897
   24.1    -0.00000     1.24164     1 1s   -0.44252     1 1s    0.47546     1 2py   0.44604     1 2pz  -0.53593     1 2py  -1.75103
                                    1 2pz   1.15541     2 1s    0.44252     2 1s   -0.47546     2 2py  -0.44604     2 2pz  -0.53593
                                    2 2py   1.75103     2 2pz   1.15541     3 1s    0.46834     4 1s    0.39885     4 1s   -1.76077
                                    5 1s   -0.46834     6 1s   -0.39885     6 1s    1.76077
   25.1    -0.00000     1.31695     1 1s   -1.58252     1 1s    5.40024     1 2pz   0.25927     1 2py  -0.33795     1 2pz  -1.87943
                                    2 1s    1.58252     2 1s   -5.40024     2 2pz   0.25927     2 2py   0.33795     2 2pz  -1.87943
                                    4 1s   -0.49904     6 1s    0.49904
   26.1    -0.00000     1.47627     1 1s   -0.28913     1 1s    0.46827     1 2py   2.38830     2 1s    0.28913     2 1s   -0.46827
                                    2 2py  -2.38830     3 1s   -0.63028     3 1s   -0.64391     4 1s    0.74870     4 1s    0.56654
                                    5 1s    0.63028     5 1s    0.64391     6 1s   -0.74870     6 1s   -0.56654
   27.1    -0.00000     1.71248     1 3d1+  0.61775     2 3d1+ -0.61775
   28.1    -0.00000     1.80744     1 3d2-  0.68003     2 3d2-  0.68003
   29.1    -0.00000     2.10382     1 3d2-  0.73616     2 3d2- -0.73616
   30.1    -0.00000     2.16864     1 1s   -0.55885     1 3d2+  0.66209     2 1s   -0.55885     2 3d2+  0.66209     3 1s    0.49777
                                    5 1s    0.49777
   31.1    -0.00000     2.33724     1 1s   -0.27525     1 2py   0.25513     1 3d0  -0.32862     1 3d1-  0.58427     2 1s   -0.27525
                                    2 2py   0.25513     2 3d0  -0.32862     2 3d1- -0.58427     3 1s   -0.32536     4 1s    0.57820
                                    5 1s   -0.32536     6 1s    0.57820
   32.1    -0.00000     2.39689     1 1s   -0.46890     1 2pz  -0.43567     1 3d0   0.61319     1 3d1-  0.27867     2 1s   -0.46890
                                    2 2pz   0.43567     2 3d0   0.61319     2 3d1- -0.27867     4 1s    0.43999     6 1s    0.43999
   33.1    -0.00000     2.59709     1 1s    0.28381     1 1s   -1.31671     1 2pz   0.25787     1 3d2+  0.78444     2 1s   -0.28381
                                    2 1s    1.31671     2 2pz   0.25787     2 3d2+ -0.78444     3 1s    0.45286     4 1s    0.42107
                                    5 1s   -0.45286     6 1s   -0.42107
   34.1    -0.00000     2.68502     1 2px  -0.26517     1 3d1+  0.90305     2 2px   0.26517     2 3d1+  0.90305
   35.1    -0.00000     3.04220     1 1s    0.29953     1 1s    2.07553     1 2pz  -0.76297     1 2pz  -1.17755     1 3d0   1.09068
                                    2 1s   -0.29953     2 1s   -2.07553     2 2pz  -0.76297     2 2pz  -1.17755     2 3d0  -1.09068
   36.1    -0.00000     3.07009     1 2py   0.57342     1 3d1-  0.94410     2 2py  -0.57342     2 3d1-  0.94410     3 1s   -0.35023
                                    4 1s    0.61105     5 1s    0.35023     6 1s   -0.61105


 Natural orbital dump (state averaged) at molpro section  2140.2    (Orbital set 2)



 **********************************************************************************************************************************
 DATASETS  * FILE   NREC   LENGTH (MB)   RECORD NAMES
              1      20       31.36       500      610      700      900      950      970     1000      129      960     1100   
                                          VAR    BASINP    GEOM    SYMINP    ZMAT    AOBASIS   BASIS     P2S    ABASIS      S 
                                         1400     1410     1200     1210     1080     1600     1650     1300     1700     1380   
                                           T        V       H0       H01     AOSYM     SMH    MOLCAS    ERIS     OPER     JKOP   

              2       5        5.42       700     1000      520     2100     2140   
                                         GEOM     BASIS   MCVARS     RHF     MCSCF   

 PROGRAMS   *        TOTAL     MULTI    HF-SCF       INT
 CPU TIMES  *         0.63      0.17      0.10      0.26
 REAL TIME  *         0.90 SEC
 DISK USED  *        38.55 MB
 **********************************************************************************************************************************
 Molecular orbitals read from record     2140.2  Type=MCSCF/NATURAL (state averaged)
 Occupation numbers read from record     2140.2  Type=MCSCF/NATURAL (state averaged)
 Orbital energies read from record       2140.2  Type=MCSCF/NATURAL (state averaged)
 Redundancy group numbers read from rec  2140.2  Type=MCSCF/NATURAL (state averaged)

 MULTI/6-31G* energy=    -77.476712994815

           MULTI          HF-SCF
    -77.47671299    -78.02127011
 **********************************************************************************************************************************
 Molpro calculation terminated
