
 Primary working directories    : /scratch.local/johan406.molpro_temp/molpro.QAEmxU7NUW
 Secondary working directories  : /scratch.local/johan406.molpro_temp/molpro.QAEmxU7NUW
 Wavefunction directory         : /home/goodpast/johan406/wfu/
 Main file repository           : /scratch.local/johan406.molpro_temp/molpro.QAEmxU7NUW/

 id        : roweumn

 Nodes     nprocs
 cn0117       1

 Using customized tuning parameters: mindgm=1; mindgv=20; mindgc=4; mindgr=1; noblas=0; minvec=7
 default implementation of scratch files=df  


 Variables initialized (934), CPU time= 0.00 sec
                                                                                 !leave this line blank
 
 gprint, orbitals=30
 memory, 125., m
 symmetry, nosym
 nelect=16
 basis=6-31g*
 
 geometry={
 C -0.0 -0.0126 0.6691
 C 0.0 -0.0126 -0.6691
 H 0.0 0.9905 1.2816
 H -0.0 -0.8393 1.188
 H 0.0 0.9905 -1.2816
 H -0.0 -0.8393 -1.188
 }
 
 hf
 {multi,
 closed 7
 occ 9
 wf,spin=0;STATE,3
 }
 
 Commands  initialized (763), CPU time= 0.01 sec, 617 directives.
 Default parameters read. Elapsed time= 0.08 sec

 Checking input...
 Passed
1


                                         ***  PROGRAM SYSTEM MOLPRO  ***
                                       Copyright, TTI GmbH Stuttgart, 2015
                                    Version 2019.2 linked Oct 25 2019 22:50:27


 **********************************************************************************************************************************
 LABEL *                                                                                 
  64 bit serial version                                                                  DATE: 26-Jan-23          TIME: 21:13:51  
 **********************************************************************************************************************************

 SHA1:             8dbd9ae1082e4ce945b0f27595c9eb2d4aa09004
 **********************************************************************************************************************************


 Variable memory set to  125000000 words,  buffer space 

 SETTING NELECT         =        16.00000000                                  
 SETTING BASIS          =    6-31G*
 ZSYMEL=NOSYM


Geometry recognized as XYZ



 Recomputing integrals since basis changed


 Using spherical harmonics

 Library entry C      S 6-31G                selected for orbital group  1
 Library entry C      P 6-31G                selected for orbital group  1
 Library entry C      D 6-31G*               selected for orbital group  1
 Library entry H      S 6-31G                selected for orbital group  2


 PROGRAM * SEWARD (Integral evaluation for generally contracted gaussian basis sets)     Author: Roland Lindh, 1990

 Geometry written to block  1 of record 700


 Point group  C1  



 ATOMIC COORDINATES

 NR  ATOM    CHARGE       X              Y              Z

   1  C       6.00    0.000000000   -0.023810549    1.264415750
   2  C       6.00    0.000000000   -0.023810549   -1.264415750
   3  H       1.00    0.000000000    1.871773726    2.421873001
   4  H       1.00    0.000000000   -1.586047136    2.244994636
   5  H       1.00    0.000000000    1.871773726   -2.421873001
   6  H       1.00    0.000000000   -1.586047136   -2.244994636

 Bond lengths in Bohr (Angstrom)

 1-2  2.528831500  1-3  2.221023871  1-4  1.844483154  2-5  2.221023871  2-6  1.844483154
     ( 1.338200000)     ( 1.175315217)     ( 0.976058451)     ( 1.175315217)     ( 0.976058451)

 Bond angles

  1-2-5  121.40853608   1-2-6  122.11551820   2-1-3  121.40853608   2-1-4  122.11551820

  3-1-4  116.47594572   5-2-6  116.47594572

 NUCLEAR CHARGE:                   16
 NUMBER OF PRIMITIVE AOS:          72
 NUMBER OF SYMMETRY AOS:           70
 NUMBER OF CONTRACTIONS:           36   (   36A   )
 NUMBER OF CORE ORBITALS:           2   (    2A   )
 NUMBER OF VALENCE ORBITALS:       12   (   12A   )


 NUCLEAR REPULSION ENERGY   33.51459000

 EXTRA SYMMETRY OF AOS IN SYMMETRY 1:   1 1 1 2 1 1 2 1 1 1   2 2 1 1 1 1 1 2 1 1   2 1 1 1 2 2 1 1 1 1   1 1 1 1 1 1

 Eigenvalues of metric

         1 0.819E-02 0.160E-01 0.333E-01 0.486E-01 0.771E-01 0.190E+00 0.202E+00 0.219E+00


 Contracted 2-electron integrals neglected if value below      1.0D-11
 AO integral compression algorithm  1   Integral accuracy      1.0D-11

     0.786 MB (compressed) written to integral file ( 38.1%)


 NUMBER OF SORTED TWO-ELECTRON INTEGRALS:     222111.     BUFFER LENGTH:  32768
 NUMBER OF SEGMENTS:   1  SEGMENT LENGTH:     222111      RECORD LENGTH: 524288

 Memory used in sort:       0.78 MW

 SORT1 READ      284735. AND WROTE       98967. INTEGRALS IN      1 RECORDS. CPU TIME:     0.00 SEC, REAL TIME:     0.01 SEC
 SORT2 READ       98967. AND WROTE      222111. INTEGRALS IN      3 RECORDS. CPU TIME:     0.02 SEC, REAL TIME:     0.02 SEC

 FILE SIZES:   FILE 1:    30.9 MBYTE,  FILE 4:     4.2 MBYTE,   TOTAL:     35.1 MBYTE

 OPERATOR DM      FOR CENTER  0  COORDINATES:    0.000000    0.000000    0.000000


 **********************************************************************************************************************************
 DATASETS  * FILE   NREC   LENGTH (MB)   RECORD NAMES
              1      19       30.63       500      610      700      900      950      970     1000      129      960     1100   
                                          VAR    BASINP    GEOM    SYMINP    ZMAT    AOBASIS   BASIS     P2S    ABASIS      S 
                                         1400     1410     1200     1210     1080     1600     1650     1300     1700   
                                           T        V       H0       H01     AOSYM     SMH    MOLCAS    ERIS     OPER   

 PROGRAMS   *        TOTAL       INT
 CPU TIMES  *         0.35      0.24
 REAL TIME  *         0.56 SEC
 DISK USED  *        35.45 MB
 **********************************************************************************************************************************


 PROGRAM * RHF-SCF (CLOSED SHELL)       Authors: W. Meyer, H.-J. Werner


 NUMBER OF ELECTRONS:       8+    8-    SPACE SYMMETRY=1    SPIN SYMMETRY: Singlet 
 CONVERGENCE THRESHOLDS:    1.00E-05 (Density)    1.00E-07 (Energy)
 MAX. NUMBER OF ITERATIONS:       60
 INTERPOLATION TYPE:            DIIS
 INTERPOLATION STEPS:              2 (START)      1 (STEP)
 LEVEL SHIFTS:                  0.00 (CLOSED)  0.00 (OPEN) 



 Orbital guess generated from atomic densities. Full valence occupancy:    8

 Molecular orbital dump at record        2100.2

 Initial occupancy:   8

 ITERATION    DDIFF          GRAD             ENERGY        2-EL.EN.            DIPOLE MOMENTS         DIIS   ORB.
    1      0.000D+00      0.000D+00       -77.97582397    118.907076    0.00000    0.14599   -0.00000    0    start
    2      0.000D+00      0.881D-02       -77.99924997    116.959341   -0.00000   -0.05020   -0.00000    1    diag
    3      0.853D-02      0.305D-02       -78.00157703    117.615782   -0.00000   -0.04633   -0.00000    2    diag
    4      0.271D-02      0.738D-03       -78.00180965    117.514590    0.00000   -0.06576    0.00000    3    diag
    5      0.112D-02      0.735D-04       -78.00181217    117.517336    0.00000   -0.06806    0.00000    4    diag
    6      0.153D-03      0.960D-05       -78.00181221    117.516889    0.00000   -0.06829   -0.00000    5    diag
    7      0.194D-04      0.159D-05       -78.00181221    117.516889    0.00000   -0.06836   -0.00000    6    diag
    8      0.350D-05      0.276D-06       -78.00181221    117.516886   -0.00000   -0.06837   -0.00000    0    orth

 Final occupancy:   8

 !RHF STATE  1.1 Energy               -78.001812210124
 Nuclear energy                        33.51459000
 One-electron energy                 -170.27484506
 Two-electron energy                   58.75844284
 Virial quotient                       -0.99879522
 !RHF STATE  1.1 Dipole moment         -0.00000000    -0.06836878    -0.00000000
 Dipole moment /Debye                  -0.00000000    -0.17376473    -0.00000000

 ELECTRON ORBITALS
 =================

  Orbital  Occupation    Energy     Coefficients
    1.1     2.00000   -11.22605     1 1s    0.70418     2 1s    0.70418
    2.1     2.00000   -11.22445     1 1s    0.70454     2 1s   -0.70454
    3.1     2.00000    -1.03137     1 1s    0.30221     2 1s    0.30221
    4.1     2.00000    -0.80239     1 1s    0.23901
    5.1     2.00000    -0.64935     1 2py   0.30080     2 2py   0.30080
    6.1     2.00000    -0.57394     1 2pz   0.37022     2 2pz  -0.37022
    7.1     2.00000    -0.50106     1 2py   0.30077     2 2py  -0.30077
    8.1     2.00000    -0.37037     1 2px   0.37419     1 2px   0.30718     2 2px   0.37419     2 2px   0.30718
    9.1     0.00000     0.17779     1 2px   0.34360     1 2px   0.73176     2 2px  -0.34360     2 2px  -0.73176
   10.1     0.00000     0.24990     1 1s   -1.16067     1 2py  -0.33784     1 2pz  -0.51898     2 1s   -1.16067     2 2py  -0.33784
                                    2 2pz   0.51898     3 1s    1.24009     4 1s    0.40939     5 1s    1.24009     6 1s    0.40939
   11.1     0.00000     0.30662     1 1s   -1.85067     2 1s    1.85067     3 1s    1.13347     4 1s    0.96263     5 1s   -1.13347
                                    6 1s   -0.96263
   12.1     0.00000     0.30666     1 1s   -1.04754     1 2py   0.74301     1 2pz  -0.39739     2 1s   -1.04754     2 2py   0.74301
                                    2 2pz   0.39739     3 1s   -0.36775     4 1s    1.74189     5 1s   -0.36775     6 1s    1.74189
   13.1     0.00000     0.38890     1 1s   -1.02943     1 2py   1.83927     2 1s    1.02943     2 2py  -1.83927     3 1s   -1.26413
                                    4 1s    2.00555     5 1s    1.26413     6 1s   -2.00555
   14.1     0.00000     0.49305     1 1s   -2.87685     1 2py  -0.40675     1 2pz   2.96957     2 1s    2.87685     2 2py   0.40675
                                    2 2pz   2.96957     3 1s   -0.27918     4 1s   -1.01845     5 1s    0.27918     6 1s    1.01845
   15.1     0.00000     0.66476     1 1s    0.35107     1 2pz  -0.53456     1 2pz   1.04485     2 1s    0.35107     2 2pz   0.53456
                                    2 2pz  -1.04485
   16.1     0.00000     0.76242     1 1s    0.28774     1 1s   -0.58236     1 2py  -0.37945     1 2py   0.78638     2 1s    0.28774
                                    2 1s   -0.58236     2 2py  -0.37945     2 2py   0.78638     3 1s   -0.30563     4 1s    0.40528
                                    4 1s    0.33498     5 1s   -0.30563     6 1s    0.40528     6 1s    0.33498
   17.1     0.00000     0.77626     1 2px  -0.74031     1 2px   0.63992     2 2px  -0.74031     2 2px   0.63992
   18.1     0.00000     0.87185     1 1s   -0.84007     1 1s    1.40720     1 2pz   0.34916     2 1s   -0.84007     2 1s    1.40720
                                    2 2pz  -0.34916     3 1s   -0.52597     4 1s   -0.26396     4 1s   -0.41696     5 1s   -0.52597
                                    6 1s   -0.26396     6 1s   -0.41696
   19.1     0.00000     0.88927     1 2px  -0.81783     1 2px   1.07538     2 2px   0.81783     2 2px  -1.07538
   20.1     0.00000     0.94841     1 1s   -0.94068     1 2pz   0.57317     1 2py   0.76450     1 2pz  -0.48003     2 1s    0.94068
                                    2 2pz   0.57317     2 2py  -0.76450     2 2pz  -0.48003     3 1s    0.42328     3 1s   -0.33962
                                    4 1s    0.35715     4 1s    0.60033     5 1s   -0.42328     5 1s    0.33962     6 1s   -0.35715
                                    6 1s   -0.60033
   21.1     0.00000     1.08182     1 1s    0.51019     1 1s   -0.72032     1 2py   0.59590     1 2py  -0.95058     2 1s    0.51019
                                    2 1s   -0.72032     2 2py   0.59590     2 2py  -0.95058     3 1s   -0.51692     3 1s    1.25889
                                    4 1s   -0.54355     5 1s   -0.51692     5 1s    1.25889     6 1s   -0.54355
   22.1     0.00000     1.11644     1 1s    0.29387     1 2py   0.70350     1 2pz   0.45398     1 2py  -2.02671     1 2pz  -0.71542
                                    2 1s   -0.29387     2 2py  -0.70350     2 2pz   0.45398     2 2py   2.02671     2 2pz  -0.71542
                                    3 1s   -0.37322     3 1s    1.51885     4 1s   -0.62841     5 1s    0.37322     5 1s   -1.51885
                                    6 1s    0.62841
   23.1     0.00000     1.27258     1 1s   -0.58015     1 1s    1.27447     1 2py   0.58121     1 2pz  -0.39058     1 2py  -2.48386
                                    1 2pz   0.82568     2 1s    0.58015     2 1s   -1.27447     2 2py  -0.58121     2 2pz  -0.39058
                                    2 2py   2.48386     2 2pz   0.82568     3 1s    0.48896     4 1s    0.28266     4 1s   -2.13550
                                    5 1s   -0.48896     6 1s   -0.28266     6 1s    2.13550
   24.1     0.00000     1.27293     1 1s   -0.91256     1 1s    1.60543     1 2py   0.34343     1 2pz  -0.33537     1 2py  -0.55315
                                    1 2pz   0.45810     2 1s   -0.91256     2 1s    1.60543     2 2py   0.34343     2 2pz   0.33537
                                    2 2py  -0.55315     2 2pz  -0.45810     4 1s    0.58714     4 1s   -1.37382     6 1s    0.58714
                                    6 1s   -1.37382
   25.1     0.00000     1.33476     1 1s   -1.48142     1 1s    5.26351     1 2pz   0.33752     1 2pz  -2.00354     2 1s    1.48142
                                    2 1s   -5.26351     2 2pz   0.33752     2 2pz  -2.00354     4 1s   -0.27520     4 1s   -0.32068
                                    6 1s    0.27520     6 1s    0.32068
   26.1     0.00000     1.50579     1 1s   -0.46162     1 1s    0.71856     1 2py   2.10115     2 1s    0.46162     2 1s   -0.71856
                                    2 2py  -2.10115     3 1s   -0.57170     3 1s   -0.55805     4 1s    0.78415     4 1s    0.40844
                                    5 1s    0.57170     5 1s    0.55805     6 1s   -0.78415     6 1s   -0.40844
   27.1     0.00000     1.73601     1 3d1+  0.61517     2 3d1+ -0.61517
   28.1     0.00000     1.82045     1 3d2-  0.67682     2 3d2-  0.67682
   29.1     0.00000     2.12512     1 3d2-  0.73610     2 3d2- -0.73610
   30.1     0.00000     2.15069     1 1s   -0.53151     1 3d2+  0.62430     1 3d1- -0.31076     2 1s   -0.53151     2 3d2+  0.62430
                                    2 3d1-  0.31076     3 1s    0.49383     5 1s    0.49383
   31.1     0.00000     2.36985     1 1s   -0.36660     1 1s    0.34816     1 2pz   0.29067     1 3d0   0.54116     1 3d1- -0.41131
                                    2 1s   -0.36660     2 1s    0.34816     2 2pz  -0.29067     2 3d0   0.54116     2 3d1-  0.41131
                                    4 1s   -0.42623     6 1s   -0.42623
   32.1     0.00000     2.44327     1 1s   -0.38719     1 2pz  -0.37605     1 3d0   0.44367     1 3d2+  0.34188     1 3d1-  0.46773
                                    2 1s   -0.38719     2 2pz   0.37605     2 3d0   0.44367     2 3d2+  0.34188     2 3d1- -0.46773
                                    4 1s    0.68522     6 1s    0.68522
   33.1     0.00000     2.59763     1 1s    0.26864     1 1s   -1.24553     1 3d2+  0.76132     2 1s   -0.26864     2 1s    1.24553
                                    2 3d2+ -0.76132     3 1s    0.43561     4 1s    0.39323     5 1s   -0.43561     6 1s   -0.39323
   34.1     0.00000     2.70618     1 2px  -0.26424     1 3d1+  0.90259     2 2px   0.26424     2 3d1+  0.90259
   35.1     0.00000     3.05797     1 1s    0.30820     1 1s    2.08897     1 2pz  -0.77106     1 2pz  -1.17686     1 3d0   1.09605
                                    2 1s   -0.30820     2 1s   -2.08897     2 2pz  -0.77106     2 2pz  -1.17686     2 3d0  -1.09605
   36.1     0.00000     3.11512     1 2py   0.60189     1 3d2+  0.25683     1 3d1-  0.94029     2 2py  -0.60189     2 3d2+ -0.25683
                                    2 3d1-  0.94029     3 1s   -0.28023     4 1s    0.71729     5 1s    0.28023     6 1s   -0.71729


 HOMO      8.1    -0.370366 =     -10.0782eV
 LUMO      9.1     0.177789 =       4.8379eV
 LUMO-HOMO         0.548155 =      14.9161eV


 **********************************************************************************************************************************
 DATASETS  * FILE   NREC   LENGTH (MB)   RECORD NAMES
              1      19       30.63       500      610      700      900      950      970     1000      129      960     1100   
                                          VAR    BASINP    GEOM    SYMINP    ZMAT    AOBASIS   BASIS     P2S    ABASIS      S 
                                         1400     1410     1200     1210     1080     1600     1650     1300     1700   
                                           T        V       H0       H01     AOSYM     SMH    MOLCAS    ERIS     OPER   

              2       4        2.86       700     1000      520     2100   
                                         GEOM     BASIS   MCVARS     RHF  

 PROGRAMS   *        TOTAL    HF-SCF       INT
 CPU TIMES  *         0.45      0.10      0.24
 REAL TIME  *         0.69 SEC
 DISK USED  *        35.45 MB
 **********************************************************************************************************************************


 PROGRAM * MULTI (Direct Multiconfiguration SCF)       Authors: P.J. Knowles, H.-J. Werner (1984)


 Number of closed-shell orbitals:   7 (   7 )
 Number of active  orbitals:        2 (   2 )
 Number of external orbitals:      27 (  27 )

 State symmetry 1

 Number of electrons:     2    Spin symmetry=Singlet   Space symmetry=1
 Number of states:        3
 Number of CSFs:          3   (4 determinants, 4 intermediate states)

 Molecular orbitals read from record     2100.2  Type=RHF/CANONICAL (state 1.1)

 EXTRA SYMMETRY OF MOS IN SYMMETRY 1:   1 1 1 1 1 1 1 2 2 1   1 1 1 1 1 1 2 1 2 1   1 1 1 1 1 1 2 2 2 1   1 1 1 2 1 1

 Wavefunction dump at record             2140.2

 Convergence thresholds  0.10E-01 (gradient)  0.10E-05 (energy)  0.10E-02 (step length)

 Weight factors for state symmetry  1:    0.33333   0.33333   0.33333

 Number of orbital rotations:      257   (    14 Core/Active    189 Core/Virtual   0 Active/Active     54 Active/Virtual)
 Total number of variables:        269

 Micro-Iterations solved by the two-step solver

 ITER. MIC  NCI  NEG     ENERGY(VAR)     ENERGY(PROJ)   ENERGY CHANGE     GRAD(0)  GRAD(ORB)   GRAD(CI)     STEP       TIME

   1    3    3    0     -77.70046953     -77.70669958   -0.00623004    0.13244672 0.00000153 0.00000000  0.63D-01      0.07
   2    2    3    0     -77.70660127     -77.70660503   -0.00000376    0.00303757 0.00000186 0.00000000  0.16D-02      0.10
   3    2    3    0     -77.70660504     -77.70660504   -0.00000000    0.00000216 0.00000000 0.00000000  0.13D-05      0.14

 ** WVFN ****  CONVERGENCE REACHED, FINAL GRADIENT:  0.13D-11



 Results for state 1.1
 =====================

 !MCSCF STATE  1.1 Energy             -78.019598827011
 Nuclear energy                        33.51459000
 Kinetic energy                        78.16292447
 One electron energy                 -170.40626045
 Two electron energy                   58.87207163
 Virial ratio                           1.99816632

 !MCSCF STATE  1.1 Dipole moment        0.00000000    -0.04559602     0.00000000
 Dipole moment /Debye                   0.00000000    -0.11588592     0.00000000

 Results for state 2.1
 =====================

 !MCSCF STATE  2.1 Energy             -77.643128348670
 Nuclear energy                        33.51459000
 Kinetic energy                        78.34480631
 One electron energy                 -169.83585192
 Two electron energy                   58.67813357
 Virial ratio                           1.99104372

 !MCSCF STATE  2.1 Dipole moment        0.00000000    -0.04452458     0.00000000
 Dipole moment /Debye                   0.00000000    -0.11316277     0.00000000

 Results for state 3.1
 =====================

 !MCSCF STATE  3.1 Energy             -77.457087932857
 Nuclear energy                        33.51459000
 Kinetic energy                        78.52668814
 One electron energy                 -169.26544339
 Two electron energy                   58.29376546
 Virial ratio                           1.98637915

 !MCSCF STATE  3.1 Dipole moment        0.00000000    -0.04345313     0.00000000
 Dipole moment /Debye                   0.00000000    -0.11043962     0.00000000

 State-averaged charge density matrix saved on record  2140.2 (density set 1)

 !MCSCF expec         <1.1|DMY|1.1>    -0.045596016776 au =    -0.115885924316 Debye
 !MCSCF expec         <2.1|DMY|2.1>    -0.044524575209 au =    -0.113162769860 Debye
 !MCSCF trans         <3.1|DMY|1.1>    -0.000451556045 au =    -0.001147665812 Debye
 !MCSCF expec         <3.1|DMY|3.1>    -0.043453133643 au =    -0.110439615404 Debye

 !MCSCF trans         <2.1|DMZ|1.1>    -1.509153211357 au =    -3.835633618921 Debye
 !MCSCF trans         <3.1|DMZ|2.1>    -2.273732737368 au =    -5.778873650639 Debye


 NATURAL ORBITALS (state averaged)
 =================================

  Orbital  Occupation    Energy     Coefficients
    1.1     2.00000   -11.24157     1 1s    0.70419     2 1s    0.70419
    2.1     2.00000   -11.24024     1 1s    0.70450     2 1s   -0.70450
    3.1     2.00000    -1.04566     1 1s    0.31023     2 1s    0.31023
    4.1     2.00000    -0.80997     1 1s    0.27461     2 1s   -0.27461
    5.1     2.00000    -0.66331     1 2py   0.30387     2 2py   0.30387
    6.1     2.00000    -0.58803     1 2pz   0.36841     2 2pz  -0.36841
    7.1     2.00000    -0.50766     1 2py   0.30729     2 2py  -0.30729
    8.1     1.00000     0.03288     1 2px   0.38153     1 2px   0.68473     2 2px  -0.38153     2 2px  -0.68473
    9.1     1.00000    -0.22630     1 2px   0.35873     1 2px   0.31866     2 2px   0.35873     2 2px   0.31866
   10.1    -0.00000     0.24484     1 1s   -1.10144     1 2py  -0.37057     1 2pz  -0.50049     2 1s   -1.10144     2 2py  -0.37057
                                    2 2pz   0.50049     3 1s    1.25329     4 1s    0.32268     5 1s    1.25329     6 1s    0.32268
   11.1    -0.00000     0.30073     1 1s   -1.10455     1 2py   0.71690     1 2pz  -0.43072     2 1s   -1.10455     2 2py   0.71690
                                    2 2pz   0.43072     3 1s   -0.29645     4 1s    1.75315     5 1s   -0.29645     6 1s    1.75315
   12.1    -0.00000     0.30302     1 1s   -1.86013     2 1s    1.86013     3 1s    1.14999     4 1s    0.91969     5 1s   -1.14999
                                    6 1s   -0.91969
   13.1    -0.00000     0.38544     1 1s   -1.04514     1 2py   1.82446     2 1s    1.04514     2 2py  -1.82446     3 1s   -1.23652
                                    4 1s    2.02087     5 1s    1.23652     6 1s   -2.02087
   14.1    -0.00000     0.49011     1 1s   -2.85918     1 2py  -0.38571     1 2pz   2.95145     2 1s    2.85918     2 2py   0.38571
                                    2 2pz   2.95145     3 1s   -0.30146     4 1s   -1.01123     5 1s    0.30146     6 1s    1.01123
   15.1    -0.00000     0.65404     1 1s    0.25630     1 2pz  -0.52934     1 2pz   1.02328     2 1s    0.25630     2 2pz   0.52934
                                    2 2pz  -1.02328
   16.1    -0.00000     0.75130     1 1s    0.28250     1 1s   -0.59556     1 2py  -0.39104     1 2py   0.79773     2 1s    0.28250
                                    2 1s   -0.59556     2 2py  -0.39104     2 2py   0.79773     3 1s   -0.30081     4 1s    0.40559
                                    4 1s    0.34843     5 1s   -0.30081     6 1s    0.40559     6 1s    0.34843
   17.1    -0.00000     0.77035     1 2px  -0.74699     1 2px   0.63463     2 2px  -0.74699     2 2px   0.63463
   18.1    -0.00000     0.86915     1 1s   -0.83635     1 1s    1.43418     1 2pz   0.39139     2 1s   -0.83635     2 1s    1.43418
                                    2 2pz  -0.39139     3 1s   -0.52250     4 1s   -0.26977     4 1s   -0.42747     5 1s   -0.52250
                                    6 1s   -0.26977     6 1s   -0.42747
   19.1    -0.00000     0.87178     1 2px  -0.80219     1 2px   1.10574     2 2px   0.80219     2 2px  -1.10574
   20.1    -0.00000     0.93010     1 1s   -0.78718     1 2pz   0.58076     1 2py   0.75031     1 2pz  -0.56879     2 1s    0.78718
                                    2 2pz   0.58076     2 2py  -0.75031     2 2pz  -0.56879     3 1s    0.42052     3 1s   -0.33393
                                    4 1s    0.35782     4 1s    0.59268     5 1s   -0.42052     5 1s    0.33393     6 1s   -0.35782
                                    6 1s   -0.59268
   21.1    -0.00000     1.06938     1 1s    0.48113     1 1s   -0.67207     1 2py   0.59476     1 2py  -0.96597     2 1s    0.48113
                                    2 1s   -0.67207     2 2py   0.59476     2 2py  -0.96597     3 1s   -0.51440     3 1s    1.26033
                                    4 1s   -0.58982     5 1s   -0.51440     5 1s    1.26033     6 1s   -0.58982
   22.1    -0.00000     1.10722     1 1s    0.25945     1 2py   0.71936     1 2pz   0.44075     1 2py  -2.10708     1 2pz  -0.71189
                                    2 1s   -0.25945     2 2py  -0.71936     2 2pz   0.44075     2 2py   2.10708     2 2pz  -0.71189
                                    3 1s   -0.36545     3 1s    1.52812     4 1s   -0.70874     5 1s    0.36545     5 1s   -1.52812
                                    6 1s    0.70874
   23.1    -0.00000     1.26634     1 1s   -0.92222     1 1s    1.62239     1 2py   0.32116     1 2pz  -0.34184     1 2py  -0.52887
                                    1 2pz   0.46819     2 1s   -0.92222     2 1s    1.62239     2 2py   0.32116     2 2pz   0.34184
                                    2 2py  -0.52887     2 2pz  -0.46819     3 1s   -0.26051     4 1s    0.58130     4 1s   -1.36159
                                    5 1s   -0.26051     6 1s    0.58130     6 1s   -1.36159
   24.1    -0.00000     1.26693     1 1s   -0.54584     1 1s    1.14021     1 2py   0.56092     1 2pz  -0.41646     1 2py  -2.42757
                                    1 2pz   0.90295     2 1s    0.54584     2 1s   -1.14021     2 2py  -0.56092     2 2pz  -0.41646
                                    2 2py   2.42757     2 2pz   0.90295     3 1s    0.50239     4 1s    0.28583     4 1s   -2.11302
                                    5 1s   -0.50239     6 1s   -0.28583     6 1s    2.11302
   25.1    -0.00000     1.31465     1 1s   -1.50396     1 1s    5.31322     1 2pz   0.32070     1 2py  -0.25798     1 2pz  -1.97233
                                    2 1s    1.50396     2 1s   -5.31322     2 2pz   0.32070     2 2py   0.25798     2 2pz  -1.97233
                                    4 1s   -0.26549     4 1s   -0.37829     6 1s    0.26549     6 1s    0.37829
   26.1    -0.00000     1.49740     1 1s   -0.45761     1 1s    0.70315     1 2py   2.10014     2 1s    0.45761     2 1s   -0.70315
                                    2 2py  -2.10014     3 1s   -0.56833     3 1s   -0.56295     4 1s    0.78384     4 1s    0.40152
                                    5 1s    0.56833     5 1s    0.56295     6 1s   -0.78384     6 1s   -0.40152
   27.1    -0.00000     1.71055     1 3d1+  0.61574     2 3d1+ -0.61574
   28.1    -0.00000     1.80666     1 3d2-  0.67773     2 3d2-  0.67773
   29.1    -0.00000     2.10217     1 3d2-  0.73610     2 3d2- -0.73610
   30.1    -0.00000     2.13514     1 1s   -0.52925     1 3d2+  0.62378     1 3d1- -0.31051     2 1s   -0.52925     2 3d2+  0.62378
                                    2 3d1-  0.31051     3 1s    0.49708     5 1s    0.49708
   31.1    -0.00000     2.35236     1 1s   -0.37479     1 1s    0.34181     1 2pz   0.29908     1 3d0   0.55453     1 3d1- -0.39521
                                    2 1s   -0.37479     2 1s    0.34181     2 2pz  -0.29908     2 3d0   0.55453     2 3d1-  0.39521
                                    4 1s   -0.40865     6 1s   -0.40865
   32.1    -0.00000     2.42523     1 1s   -0.37659     1 2py   0.25066     1 2pz  -0.37085     1 3d0   0.42670     1 3d2+  0.34721
                                    1 3d1-  0.47878     2 1s   -0.37659     2 2py   0.25066     2 2pz   0.37085     2 3d0   0.42670
                                    2 3d2+  0.34721     2 3d1- -0.47878     4 1s    0.70115     6 1s    0.70115
   33.1    -0.00000     2.57834     1 1s    0.26929     1 1s   -1.25350     1 3d2+  0.76130     2 1s   -0.26929     2 1s    1.25350
                                    2 3d2+ -0.76130     3 1s    0.43786     4 1s    0.39808     5 1s   -0.43786     6 1s   -0.39808
   34.1    -0.00000     2.68378     1 2px  -0.26500     1 3d1+  0.90298     2 2px   0.26500     2 3d1+  0.90298
   35.1    -0.00000     3.04033     1 1s    0.30263     1 1s    2.10937     1 2pz  -0.76772     1 2pz  -1.19224     1 3d0   1.10107
                                    2 1s   -0.30263     2 1s   -2.10937     2 2pz  -0.76772     2 2pz  -1.19224     2 3d0  -1.10107
   36.1    -0.00000     3.10194     1 2py   0.60308     1 3d2+  0.25537     1 3d1-  0.94339     2 2py  -0.60308     2 3d2+ -0.25537
                                    2 3d1-  0.94339     3 1s   -0.28372     4 1s    0.72133     5 1s    0.28372     6 1s   -0.72133


 Natural orbital dump (state averaged) at molpro section  2140.2    (Orbital set 2)



 **********************************************************************************************************************************
 DATASETS  * FILE   NREC   LENGTH (MB)   RECORD NAMES
              1      20       31.36       500      610      700      900      950      970     1000      129      960     1100   
                                          VAR    BASINP    GEOM    SYMINP    ZMAT    AOBASIS   BASIS     P2S    ABASIS      S 
                                         1400     1410     1200     1210     1080     1600     1650     1300     1700     1380   
                                           T        V       H0       H01     AOSYM     SMH    MOLCAS    ERIS     OPER     JKOP   

              2       5        5.42       700     1000      520     2100     2140   
                                         GEOM     BASIS   MCVARS     RHF     MCSCF   

 PROGRAMS   *        TOTAL     MULTI    HF-SCF       INT
 CPU TIMES  *         0.63      0.18      0.10      0.24
 REAL TIME  *         0.90 SEC
 DISK USED  *        38.55 MB
 **********************************************************************************************************************************
 Molecular orbitals read from record     2140.2  Type=MCSCF/NATURAL (state averaged)
 Occupation numbers read from record     2140.2  Type=MCSCF/NATURAL (state averaged)
 Orbital energies read from record       2140.2  Type=MCSCF/NATURAL (state averaged)
 Redundancy group numbers read from rec  2140.2  Type=MCSCF/NATURAL (state averaged)

 MULTI/6-31G* energy=    -77.457087932857

           MULTI          HF-SCF
    -77.45708793    -78.00181221
 **********************************************************************************************************************************
 Molpro calculation terminated
