
 Primary working directories    : /scratch.local/johan406.molpro_temp/molpro.DYQgRdquEx
 Secondary working directories  : /scratch.local/johan406.molpro_temp/molpro.DYQgRdquEx
 Wavefunction directory         : /home/goodpast/johan406/wfu/
 Main file repository           : /scratch.local/johan406.molpro_temp/molpro.DYQgRdquEx/

 id        : roweumn

 Nodes     nprocs
 cn0117       1

 Using customized tuning parameters: mindgm=1; mindgv=20; mindgc=4; mindgr=1; noblas=0; minvec=7
 default implementation of scratch files=df  


 Variables initialized (934), CPU time= 0.00 sec
                                                                                 !leave this line blank
 
 gprint, orbitals=30
 memory, 125., m
 symmetry, nosym
 nelect=16
 basis=6-31g*
 
 geometry={
 C -0.0 -0.0213 0.6691
 C 0.0 -0.0213 -0.6691
 H 0.0 1.0426 1.3138
 H -0.0 -0.7872 1.1557
 H 0.0 1.0426 -1.3138
 H -0.0 -0.7872 -1.1557
 }
 
 hf
 {multi,
 closed 7
 occ 9
 wf,spin=0;STATE,3
 }
 
 Commands  initialized (763), CPU time= 0.01 sec, 617 directives.
 Default parameters read. Elapsed time= 0.08 sec

 Checking input...
 Passed
1


                                         ***  PROGRAM SYSTEM MOLPRO  ***
                                       Copyright, TTI GmbH Stuttgart, 2015
                                    Version 2019.2 linked Oct 25 2019 22:50:27


 **********************************************************************************************************************************
 LABEL *                                                                                 
  64 bit serial version                                                                  DATE: 26-Jan-23          TIME: 21:16:53  
 **********************************************************************************************************************************

 SHA1:             8dbd9ae1082e4ce945b0f27595c9eb2d4aa09004
 **********************************************************************************************************************************


 Variable memory set to  125000000 words,  buffer space 

 SETTING NELECT         =        16.00000000                                  
 SETTING BASIS          =    6-31G*
 ZSYMEL=NOSYM


Geometry recognized as XYZ



 Recomputing integrals since basis changed


 Using spherical harmonics

 Library entry C      S 6-31G                selected for orbital group  1
 Library entry C      P 6-31G                selected for orbital group  1
 Library entry C      D 6-31G*               selected for orbital group  1
 Library entry H      S 6-31G                selected for orbital group  2


 PROGRAM * SEWARD (Integral evaluation for generally contracted gaussian basis sets)     Author: Roland Lindh, 1990

 Geometry written to block  1 of record 700


 Point group  C1  



 ATOMIC COORDINATES

 NR  ATOM    CHARGE       X              Y              Z

   1  C       6.00    0.000000000   -0.040251166    1.264415750
   2  C       6.00    0.000000000   -0.040251166   -1.264415750
   3  H       1.00    0.000000000    1.970228457    2.482722182
   4  H       1.00    0.000000000   -1.487592405    2.183956482
   5  H       1.00    0.000000000    1.970228457   -2.482722182
   6  H       1.00    0.000000000   -1.487592405   -2.183956482

 Bond lengths in Bohr (Angstrom)

 1-2  2.528831500  1-3  2.350808134  1-4  1.714745410  2-5  2.350808134  2-6  1.714745410
     ( 1.338200000)     ( 1.243994092)     ( 0.907404193)     ( 1.243994092)     ( 0.907404193)

 Bond angles

  1-2-5  121.21494134   1-2-6  122.42905984   2-1-3  121.21494134   2-1-4  122.42905984

  3-1-4  116.35599882   5-2-6  116.35599882

 NUCLEAR CHARGE:                   16
 NUMBER OF PRIMITIVE AOS:          72
 NUMBER OF SYMMETRY AOS:           70
 NUMBER OF CONTRACTIONS:           36   (   36A   )
 NUMBER OF CORE ORBITALS:           2   (    2A   )
 NUMBER OF VALENCE ORBITALS:       12   (   12A   )


 NUCLEAR REPULSION ENERGY   33.72016058

 EXTRA SYMMETRY OF AOS IN SYMMETRY 1:   1 1 1 2 1 1 2 1 1 1   2 2 1 1 1 1 1 2 1 1   2 1 1 1 2 2 1 1 1 1   1 1 1 1 1 1

 Eigenvalues of metric

         1 0.788E-02 0.142E-01 0.277E-01 0.527E-01 0.860E-01 0.174E+00 0.197E+00 0.200E+00


 Contracted 2-electron integrals neglected if value below      1.0D-11
 AO integral compression algorithm  1   Integral accuracy      1.0D-11

     0.786 MB (compressed) written to integral file ( 38.1%)


 NUMBER OF SORTED TWO-ELECTRON INTEGRALS:     222111.     BUFFER LENGTH:  32768
 NUMBER OF SEGMENTS:   1  SEGMENT LENGTH:     222111      RECORD LENGTH: 524288

 Memory used in sort:       0.78 MW

 SORT1 READ      284735. AND WROTE       98967. INTEGRALS IN      1 RECORDS. CPU TIME:     0.00 SEC, REAL TIME:     0.01 SEC
 SORT2 READ       98967. AND WROTE      222111. INTEGRALS IN      3 RECORDS. CPU TIME:     0.02 SEC, REAL TIME:     0.02 SEC

 FILE SIZES:   FILE 1:    30.9 MBYTE,  FILE 4:     4.2 MBYTE,   TOTAL:     35.1 MBYTE

 OPERATOR DM      FOR CENTER  0  COORDINATES:    0.000000    0.000000    0.000000


 **********************************************************************************************************************************
 DATASETS  * FILE   NREC   LENGTH (MB)   RECORD NAMES
              1      19       30.63       500      610      700      900      950      970     1000      129      960     1100   
                                          VAR    BASINP    GEOM    SYMINP    ZMAT    AOBASIS   BASIS     P2S    ABASIS      S 
                                         1400     1410     1200     1210     1080     1600     1650     1300     1700   
                                           T        V       H0       H01     AOSYM     SMH    MOLCAS    ERIS     OPER   

 PROGRAMS   *        TOTAL       INT
 CPU TIMES  *         0.36      0.26
 REAL TIME  *         0.56 SEC
 DISK USED  *        35.45 MB
 **********************************************************************************************************************************


 PROGRAM * RHF-SCF (CLOSED SHELL)       Authors: W. Meyer, H.-J. Werner


 NUMBER OF ELECTRONS:       8+    8-    SPACE SYMMETRY=1    SPIN SYMMETRY: Singlet 
 CONVERGENCE THRESHOLDS:    1.00E-05 (Density)    1.00E-07 (Energy)
 MAX. NUMBER OF ITERATIONS:       60
 INTERPOLATION TYPE:            DIIS
 INTERPOLATION STEPS:              2 (START)      1 (STEP)
 LEVEL SHIFTS:                  0.00 (CLOSED)  0.00 (OPEN) 



 Orbital guess generated from atomic densities. Full valence occupancy:    8

 Molecular orbital dump at record        2100.2

 Initial occupancy:   8

 ITERATION    DDIFF          GRAD             ENERGY        2-EL.EN.            DIPOLE MOMENTS         DIIS   ORB.
    1      0.000D+00      0.000D+00       -77.91491786    119.254944   -0.00000    0.25934   -0.00000    0    start
    2      0.000D+00      0.922D-02       -77.94120307    117.099543   -0.00000   -0.08362   -0.00000    1    diag
    3      0.913D-02      0.331D-02       -77.94392626    117.806054   -0.00000   -0.07326   -0.00000    2    diag
    4      0.287D-02      0.784D-03       -77.94420350    117.700630   -0.00000   -0.10649   -0.00000    3    diag
    5      0.121D-02      0.823D-04       -77.94420672    117.703057   -0.00000   -0.11016   -0.00000    4    diag
    6      0.165D-03      0.120D-04       -77.94420679    117.702588   -0.00000   -0.11050   -0.00000    5    diag
    7      0.251D-04      0.209D-05       -77.94420679    117.702589    0.00000   -0.11060   -0.00000    6    diag
    8      0.534D-05      0.390D-06       -77.94420679    117.702585   -0.00000   -0.11061   -0.00000    0    orth

 Final occupancy:   8

 !RHF STATE  1.1 Energy               -77.944206792839
 Nuclear energy                        33.72016058
 One-electron energy                 -170.51565973
 Two-electron energy                   58.85129236
 Virial quotient                       -0.99629346
 !RHF STATE  1.1 Dipole moment         -0.00000000    -0.11060749    -0.00000000
 Dipole moment /Debye                  -0.00000000    -0.28111780    -0.00000000

 ELECTRON ORBITALS
 =================

  Orbital  Occupation    Energy     Coefficients
    1.1     2.00000   -11.22811     1 1s    0.70416     2 1s    0.70416
    2.1     2.00000   -11.22651     1 1s    0.70452     2 1s   -0.70452
    3.1     2.00000    -1.03954     1 1s    0.30226     2 1s    0.30226
    4.1     2.00000    -0.82014     1 1s    0.23957
    5.1     2.00000    -0.66416     1 2py   0.28431     2 2py   0.28431
    6.1     2.00000    -0.56245     1 2pz   0.33749     2 2pz  -0.33749
    7.1     2.00000    -0.49320     1 2py   0.29362     2 2py  -0.29362
    8.1     2.00000    -0.37243     1 2px   0.37591     1 2px   0.30576     2 2px   0.37591     2 2px   0.30576
    9.1     0.00000     0.17629     1 2px   0.34653     1 2px   0.72764     2 2px  -0.34653     2 2px  -0.72764
   10.1     0.00000     0.23068     1 1s   -0.97239     1 2py  -0.36392     1 2pz  -0.44803     2 1s   -0.97239     2 2py  -0.36392
                                    2 2pz   0.44803     3 1s    1.14178     4 1s    0.27308     5 1s    1.14178     6 1s    0.27308
   11.1     0.00000     0.30082     1 1s   -1.69182     1 2py  -0.32372     2 1s    1.69182     2 2py   0.32372     3 1s    1.14115
                                    4 1s    0.84256     5 1s   -1.14115     6 1s   -0.84256
   12.1     0.00000     0.31748     1 1s   -1.37559     1 2py   0.74258     1 2pz  -0.49071     2 1s   -1.37559     2 2py   0.74258
                                    2 2pz   0.49071     4 1s    1.99220     6 1s    1.99220
   13.1     0.00000     0.38517     1 1s   -1.67835     1 2py   1.77652     2 1s    1.67835     2 2py  -1.77652     3 1s   -1.01317
                                    4 1s    2.28524     5 1s    1.01317     6 1s   -2.28524
   14.1     0.00000     0.49685     1 1s   -2.68953     1 2py  -0.64748     1 2pz   2.99829     2 1s    2.68953     2 2py   0.64748
                                    2 2pz   2.99829     4 1s   -1.35315     6 1s    1.35315
   15.1     0.00000     0.65734     1 1s    0.52236     1 2pz  -0.50281     1 2py  -0.31646     1 2pz   1.05949     2 1s    0.52236
                                    2 2pz   0.50281     2 2py  -0.31646     2 2pz  -1.05949     4 1s   -0.29629     6 1s   -0.29629
   16.1     0.00000     0.76267     1 1s    0.42885     1 1s   -0.93022     1 2py  -0.35372     1 2py   0.81550     2 1s    0.42885
                                    2 1s   -0.93022     2 2py  -0.35372     2 2py   0.81550     4 1s    0.38590     4 1s    0.58190
                                    6 1s    0.38590     6 1s    0.58190
   17.1     0.00000     0.77438     1 2px  -0.73976     1 2px   0.64065     2 2px  -0.73976     2 2px   0.64065
   18.1     0.00000     0.88689     1 2px  -0.81642     1 2px   1.07828     2 2px   0.81642     2 2px  -1.07828
   19.1     0.00000     0.88765     1 1s    0.77272     1 1s   -1.33489     1 2pz  -0.36391     2 1s    0.77272     2 1s   -1.33489
                                    2 2pz   0.36391     3 1s    0.59572     4 1s    0.51396     5 1s    0.59572     6 1s    0.51396
   20.1     0.00000     0.93834     1 1s   -1.07438     1 2pz   0.52428     1 2py   1.24925     1 2pz  -0.50792     2 1s    1.07438
                                    2 2pz   0.52428     2 2py  -1.24925     2 2pz  -0.50792     3 1s    0.45444     3 1s   -0.58098
                                    4 1s    0.34173     4 1s    0.99901     5 1s   -0.45444     5 1s    0.58098     6 1s   -0.34173
                                    6 1s   -0.99901
   21.1     0.00000     1.04904     1 1s    0.60869     1 1s   -0.81518     1 2py   0.55233     1 2py  -0.87526     2 1s    0.60869
                                    2 1s   -0.81518     2 2py   0.55233     2 2py  -0.87526     3 1s   -0.51133     3 1s    1.21368
                                    4 1s   -0.41472     5 1s   -0.51133     5 1s    1.21368     6 1s   -0.41472
   22.1     0.00000     1.08091     1 1s   -0.32986     1 1s    0.25799     1 2py  -0.60573     1 2pz  -0.54691     1 2py   1.54184
                                    1 2pz   0.83036     2 1s    0.32986     2 1s   -0.25799     2 2py   0.60573     2 2pz  -0.54691
                                    2 2py  -1.54184     2 2pz   0.83036     3 1s    0.37115     3 1s   -1.32611     4 1s    0.32357
                                    5 1s   -0.37115     5 1s    1.32611     6 1s   -0.32357
   23.1     0.00000     1.29835     1 1s    1.06345     1 1s   -3.67123     1 2py  -0.51544     1 2py   2.88334     2 1s   -1.06345
                                    2 1s    3.67123     2 2py   0.51544     2 2py  -2.88334     3 1s   -0.47741     4 1s    2.44013
                                    5 1s    0.47741     6 1s   -2.44013
   24.1     0.00000     1.34209     1 1s   -1.10422     1 1s    4.09731     1 2py  -0.38581     1 2pz   0.42354     1 2py   1.14025
                                    1 2pz  -2.15109     2 1s    1.10422     2 1s   -4.09731     2 2py   0.38581     2 2pz   0.42354
                                    2 2py  -1.14025     2 2pz  -2.15109     3 1s   -0.35038     4 1s   -0.30485     4 1s    0.74109
                                    5 1s    0.35038     6 1s    0.30485     6 1s   -0.74109
   25.1     0.00000     1.34332     1 1s   -0.86845     1 1s    1.63042     1 2py   0.40022     1 2pz  -0.32871     1 2py  -0.66038
                                    1 2pz   0.45952     2 1s   -0.86845     2 1s    1.63042     2 2py   0.40022     2 2pz   0.32871
                                    2 2py  -0.66038     2 2pz  -0.45952     4 1s    0.59729     4 1s   -1.50885     6 1s    0.59729
                                    6 1s   -1.50885
   26.1     0.00000     1.56664     1 1s   -0.63587     1 1s    0.88618     1 2pz  -0.25578     1 2py   1.45429     2 1s    0.63587
                                    2 1s   -0.88618     2 2pz  -0.25578     2 2py  -1.45429     3 1s   -0.45091     3 1s   -0.38376
                                    4 1s    0.83207     5 1s    0.45091     5 1s    0.38376     6 1s   -0.83207
   27.1     0.00000     1.73033     1 3d1+  0.60865     2 3d1+ -0.60865
   28.1     0.00000     1.81823     1 3d2-  0.66940     2 3d2-  0.66940
   29.1     0.00000     2.09141     1 1s   -0.52419     1 3d2+  0.59216     1 3d1- -0.34266     2 1s   -0.52419     2 3d2+  0.59216
                                    2 3d1-  0.34266     3 1s    0.45481     5 1s    0.45481
   30.1     0.00000     2.12043     1 3d2-  0.73592     2 3d2- -0.73592
   31.1     0.00000     2.37483     1 1s   -0.45858     1 1s    0.35255     1 2pz   0.33067     1 2pz  -0.32655     1 3d0   0.66149
                                    2 1s   -0.45858     2 1s    0.35255     2 2pz  -0.33067     2 2pz   0.32655     2 3d0   0.66149
   32.1     0.00000     2.52943     1 1s   -0.33955     1 2py   0.35871     1 2pz  -0.28758     1 3d2+  0.43215     1 3d1-  0.57723
                                    2 1s   -0.33955     2 2py   0.35871     2 2pz   0.28758     2 3d2+  0.43215     2 3d1- -0.57723
                                    4 1s    0.92671     6 1s    0.92671
   33.1     0.00000     2.55644     1 1s   -1.12262     1 3d2+  0.71639     1 3d1- -0.34024     2 1s    1.12262     2 3d2+ -0.71639
                                    2 3d1- -0.34024     3 1s    0.38902     4 1s    0.36717     5 1s   -0.38902     6 1s   -0.36717
   34.1     0.00000     2.70257     1 2px  -0.26377     1 3d1+  0.90238     2 2px   0.26377     2 3d1+  0.90238
   35.1     0.00000     3.05349     1 1s    0.31428     1 1s    2.09518     1 2pz  -0.77811     1 2pz  -1.19025     1 3d0   1.10592
                                    2 1s   -0.31428     2 1s   -2.09518     2 2pz  -0.77811     2 2pz  -1.19025     2 3d0  -1.10592
   36.1     0.00000     3.19615     1 1s   -0.60055     1 2py   0.66302     1 3d2+  0.38497     1 3d1-  0.93791     2 1s    0.60055
                                    2 2py  -0.66302     2 3d2+ -0.38497     2 3d1-  0.93791     4 1s    0.90583     6 1s   -0.90583


 HOMO      8.1    -0.372427 =     -10.1342eV
 LUMO      9.1     0.176288 =       4.7970eV
 LUMO-HOMO         0.548715 =      14.9313eV


 **********************************************************************************************************************************
 DATASETS  * FILE   NREC   LENGTH (MB)   RECORD NAMES
              1      19       30.63       500      610      700      900      950      970     1000      129      960     1100   
                                          VAR    BASINP    GEOM    SYMINP    ZMAT    AOBASIS   BASIS     P2S    ABASIS      S 
                                         1400     1410     1200     1210     1080     1600     1650     1300     1700   
                                           T        V       H0       H01     AOSYM     SMH    MOLCAS    ERIS     OPER   

              2       4        2.86       700     1000      520     2100   
                                         GEOM     BASIS   MCVARS     RHF  

 PROGRAMS   *        TOTAL    HF-SCF       INT
 CPU TIMES  *         0.45      0.09      0.26
 REAL TIME  *         0.69 SEC
 DISK USED  *        35.45 MB
 **********************************************************************************************************************************


 PROGRAM * MULTI (Direct Multiconfiguration SCF)       Authors: P.J. Knowles, H.-J. Werner (1984)


 Number of closed-shell orbitals:   7 (   7 )
 Number of active  orbitals:        2 (   2 )
 Number of external orbitals:      27 (  27 )

 State symmetry 1

 Number of electrons:     2    Spin symmetry=Singlet   Space symmetry=1
 Number of states:        3
 Number of CSFs:          3   (4 determinants, 4 intermediate states)

 Molecular orbitals read from record     2100.2  Type=RHF/CANONICAL (state 1.1)

 EXTRA SYMMETRY OF MOS IN SYMMETRY 1:   1 1 1 1 1 1 1 2 2 1   1 1 1 1 1 1 2 2 1 1   1 1 1 1 1 1 2 2 1 2   1 1 1 2 1 1

 Wavefunction dump at record             2140.2

 Convergence thresholds  0.10E-01 (gradient)  0.10E-05 (energy)  0.10E-02 (step length)

 Weight factors for state symmetry  1:    0.33333   0.33333   0.33333

 Number of orbital rotations:      257   (    14 Core/Active    189 Core/Virtual   0 Active/Active     54 Active/Virtual)
 Total number of variables:        269

 Micro-Iterations solved by the two-step solver

 ITER. MIC  NCI  NEG     ENERGY(VAR)     ENERGY(PROJ)   ENERGY CHANGE     GRAD(0)  GRAD(ORB)   GRAD(CI)     STEP       TIME

   1    3    3    0     -77.64256138     -77.64876120   -0.00619981    0.13208422 0.00000153 0.00000000  0.63D-01      0.06
   2    2    3    0     -77.64866342     -77.64866718   -0.00000375    0.00302367 0.00000185 0.00000000  0.16D-02      0.09
   3    2    3    0     -77.64866718     -77.64866718   -0.00000000    0.00000216 0.00000000 0.00000000  0.13D-05      0.13

 ** WVFN ****  CONVERGENCE REACHED, FINAL GRADIENT:  0.13D-11



 Results for state 1.1
 =====================

 !MCSCF STATE  1.1 Energy             -77.962212186113
 Nuclear energy                        33.72016058
 Kinetic energy                        78.29876746
 One electron energy                 -170.64556412
 Two electron energy                   58.96319134
 Virial ratio                           1.99570165

 !MCSCF STATE  1.1 Dipole moment        0.00000000    -0.07280394    -0.00000000
 Dipole moment /Debye                   0.00000000    -0.18503703    -0.00000000

 Results for state 2.1
 =====================

 !MCSCF STATE  2.1 Energy             -77.584767799487
 Nuclear energy                        33.72016058
 Kinetic energy                        78.48383896
 One electron energy                 -170.08107018
 Two electron energy                   58.77614180
 Virial ratio                           1.98854451

 !MCSCF STATE  2.1 Dipole moment        0.00000000    -0.07100497    -0.00000000
 Dipole moment /Debye                   0.00000000    -0.18046482    -0.00000000

 Results for state 3.1
 =====================

 !MCSCF STATE  3.1 Energy             -77.399021549574
 Nuclear energy                        33.72016058
 Kinetic energy                        78.66891045
 One electron energy                 -169.51657625
 Two electron energy                   58.39739412
 Virial ratio                           1.98385780

 !MCSCF STATE  3.1 Dipole moment        0.00000000    -0.06920601    -0.00000000
 Dipole moment /Debye                   0.00000000    -0.17589261    -0.00000000

 State-averaged charge density matrix saved on record  2140.2 (density set 1)

 !MCSCF expec         <1.1|DMY|1.1>    -0.072803936064 au =    -0.185037027821 Debye
 !MCSCF expec         <2.1|DMY|2.1>    -0.071004972272 au =    -0.180464817428 Debye
 !MCSCF trans         <3.1|DMY|1.1>    -0.000761663993 au =    -0.001935829971 Debye
 !MCSCF expec         <3.1|DMY|3.1>    -0.069206008481 au =    -0.175892607035 Debye

 !MCSCF trans         <2.1|DMZ|1.1>    -1.506703157002 au =    -3.829406609774 Debye
 !MCSCF trans         <3.1|DMZ|2.1>    -2.274108533430 au =    -5.779828766394 Debye


 NATURAL ORBITALS (state averaged)
 =================================

  Orbital  Occupation    Energy     Coefficients
    1.1     2.00000   -11.24321     1 1s    0.70418     2 1s    0.70418
    2.1     2.00000   -11.24188     1 1s    0.70448     2 1s   -0.70448
    3.1     2.00000    -1.05300     1 1s    0.31029     2 1s    0.31029
    4.1     2.00000    -0.82732     1 1s    0.25229     2 1s   -0.25229
    5.1     2.00000    -0.67916     1 2py   0.28701     2 2py   0.28701
    6.1     2.00000    -0.57552     1 2pz   0.33528     2 2pz  -0.33528
    7.1     2.00000    -0.49975     1 2py   0.30015     2 2py  -0.30015
    8.1     1.00000     0.03134     1 2px   0.38436     1 2px   0.68055     2 2px  -0.38436     2 2px  -0.68055
    9.1     1.00000    -0.22797     1 2px   0.36031     1 2px   0.31738     2 2px   0.36031     2 2px   0.31738
   10.1    -0.00000     0.22469     1 1s   -0.92069     1 2py  -0.38391     1 2pz  -0.43163     2 1s   -0.92069     2 2py  -0.38391
                                    2 2pz   0.43163     3 1s    1.14509     5 1s    1.14509
   11.1    -0.00000     0.29641     1 1s   -1.68327     1 2py  -0.36437     2 1s    1.68327     2 2py   0.36437     3 1s    1.15980
                                    4 1s    0.77620     5 1s   -1.15980     6 1s   -0.77620
   12.1    -0.00000     0.31284     1 1s   -1.40722     1 2py   0.72298     1 2pz  -0.51576     2 1s   -1.40722     2 2py   0.72298
                                    2 2pz   0.51576     4 1s    1.99362     6 1s    1.99362
   13.1    -0.00000     0.38285     1 1s   -1.69887     1 2py   1.76115     2 1s    1.69887     2 2py  -1.76115     3 1s   -0.97941
                                    4 1s    2.30774     5 1s    0.97941     6 1s   -2.30774
   14.1    -0.00000     0.49366     1 1s   -2.67808     1 2py  -0.61614     1 2pz   2.97934     2 1s    2.67808     2 2py   0.61614
                                    2 2pz   2.97934     4 1s   -1.33599     6 1s    1.33599
   15.1    -0.00000     0.64755     1 1s    0.42047     1 2pz  -0.50031     1 2py  -0.29039     1 2pz   1.03971     2 1s    0.42047
                                    2 2pz   0.50031     2 2py  -0.29039     2 2pz  -1.03971
   16.1    -0.00000     0.75086     1 1s    0.42244     1 1s   -0.95302     1 2py  -0.36504     1 2py   0.83145     2 1s    0.42244
                                    2 1s   -0.95302     2 2py  -0.36504     2 2py   0.83145     4 1s    0.38921     4 1s    0.60249
                                    6 1s    0.38921     6 1s    0.60249
   17.1    -0.00000     0.76868     1 2px  -0.74657     1 2px   0.63532     2 2px  -0.74657     2 2px   0.63532
   18.1    -0.00000     0.86969     1 2px  -0.80067     1 2px   1.10843     2 2px   0.80067     2 2px  -1.10843
   19.1    -0.00000     0.88511     1 1s    0.77339     1 1s   -1.36633     1 2pz  -0.40003     2 1s    0.77339     2 1s   -1.36633
                                    2 2pz   0.40003     3 1s    0.58939     4 1s    0.52589     5 1s    0.58939     6 1s    0.52589
   20.1    -0.00000     0.92115     1 1s   -0.93037     1 2pz   0.53678     1 2py   1.22919     1 2pz  -0.60369     2 1s    0.93037
                                    2 2pz   0.53678     2 2py  -1.22919     2 2pz  -0.60369     3 1s    0.44862     3 1s   -0.56643
                                    4 1s    0.34268     4 1s    0.99548     5 1s   -0.44862     5 1s    0.56643     6 1s   -0.34268
                                    6 1s   -0.99548
   21.1    -0.00000     1.03802     1 1s    0.58582     1 1s   -0.77728     1 2py   0.55029     1 2py  -0.88764     2 1s    0.58582
                                    2 1s   -0.77728     2 2py   0.55029     2 2py  -0.88764     3 1s   -0.51353     3 1s    1.21987
                                    4 1s   -0.45312     5 1s   -0.51353     5 1s    1.21987     6 1s   -0.45312
   22.1    -0.00000     1.07243     1 1s   -0.29902     1 2py  -0.62029     1 2pz  -0.53635     1 2py   1.62479     1 2pz   0.83957
                                    2 1s    0.29902     2 2py   0.62029     2 2pz  -0.53635     2 2py  -1.62479     2 2pz   0.83957
                                    3 1s    0.37067     3 1s   -1.34246     4 1s    0.40455     5 1s   -0.37067     5 1s    1.34246
                                    6 1s   -0.40455
   23.1    -0.00000     1.28925     1 1s    1.20053     1 1s   -4.17438     1 2py  -0.45079     1 2py   2.69498     1 2pz   0.36873
                                    2 1s   -1.20053     2 1s    4.17438     2 2py   0.45079     2 2py  -2.69498     2 2pz   0.36873
                                    3 1s   -0.43549     4 1s    2.33193     5 1s    0.43549     6 1s   -2.33193
   24.1    -0.00000     1.32443     1 1s   -0.96617     1 1s    3.61311     1 2py  -0.44222     1 2pz   0.43257     1 2py   1.48595
                                    1 2pz  -2.11924     2 1s    0.96617     2 1s   -3.61311     2 2py   0.44222     2 2pz   0.43257
                                    2 2py  -1.48595     2 2pz  -2.11924     3 1s   -0.41170     3 1s   -0.26155     4 1s   -0.29842
                                    4 1s    1.03335     5 1s    0.41170     5 1s    0.26155     6 1s    0.29842     6 1s   -1.03335
   25.1    -0.00000     1.33488     1 1s   -0.87654     1 1s    1.64536     1 2py   0.38183     1 2pz  -0.33337     1 2py  -0.64562
                                    1 2pz   0.46793     2 1s   -0.87654     2 1s    1.64536     2 2py   0.38183     2 2pz   0.33337
                                    2 2py  -0.64562     2 2pz  -0.46793     4 1s    0.59162     4 1s   -1.50419     6 1s    0.59162
                                    6 1s   -1.50419
   26.1    -0.00000     1.55848     1 1s   -0.63553     1 1s    0.89026     1 2pz  -0.26379     1 2py   1.45022     2 1s    0.63553
                                    2 1s   -0.89026     2 2pz  -0.26379     2 2py  -1.45022     3 1s   -0.44809     3 1s   -0.38898
                                    4 1s    0.82878     5 1s    0.44809     5 1s    0.38898     6 1s   -0.82878
   27.1    -0.00000     1.70535     1 3d1+  0.61054     2 3d1+ -0.61054
   28.1    -0.00000     1.80460     1 3d2-  0.67176     2 3d2-  0.67176
   29.1    -0.00000     2.07618     1 1s   -0.52461     1 3d2+  0.59229     1 3d1- -0.34131     2 1s   -0.52461     2 3d2+  0.59229
                                    2 3d1-  0.34131     3 1s    0.45742     5 1s    0.45742
   30.1    -0.00000     2.09782     1 3d2-  0.73591     2 3d2- -0.73591
   31.1    -0.00000     2.35648     1 1s   -0.45989     1 1s    0.34494     1 2pz   0.33587     1 2pz  -0.33269     1 3d0   0.66485
                                    2 1s   -0.45989     2 1s    0.34494     2 2pz  -0.33587     2 2pz   0.33269     2 3d0   0.66485
   32.1    -0.00000     2.51335     1 1s   -0.33559     1 2py   0.36512     1 2pz  -0.28373     1 3d2+  0.43300     1 3d1-  0.57865
                                    2 1s   -0.33559     2 2py   0.36512     2 2pz   0.28373     2 3d2+  0.43300     2 3d1- -0.57865
                                    4 1s    0.93412     6 1s    0.93412
   33.1    -0.00000     2.53778     1 1s   -1.13206     1 3d2+  0.71682     1 3d1- -0.33761     2 1s    1.13206     2 3d2+ -0.71682
                                    2 3d1- -0.33761     3 1s    0.39114     4 1s    0.37275     5 1s   -0.39114     6 1s   -0.37275
   34.1    -0.00000     2.68046     1 2px  -0.26451     1 3d1+  0.90278     2 2px   0.26451     2 3d1+  0.90278
   35.1    -0.00000     3.03608     1 1s    0.30768     1 1s    2.11504     1 2pz  -0.77231     1 2pz  -1.20342     1 3d0   1.10835
                                    2 1s   -0.30768     2 1s   -2.11504     2 2pz  -0.77231     2 2pz  -1.20342     2 3d0  -1.10835
   36.1    -0.00000     3.18314     1 1s   -0.61098     1 2py   0.66287     1 3d2+  0.38268     1 3d1-  0.93905     2 1s    0.61098
                                    2 2py  -0.66287     2 3d2+ -0.38268     2 3d1-  0.93905     4 1s    0.90901     6 1s   -0.90901


 Natural orbital dump (state averaged) at molpro section  2140.2    (Orbital set 2)



 **********************************************************************************************************************************
 DATASETS  * FILE   NREC   LENGTH (MB)   RECORD NAMES
              1      20       31.36       500      610      700      900      950      970     1000      129      960     1100   
                                          VAR    BASINP    GEOM    SYMINP    ZMAT    AOBASIS   BASIS     P2S    ABASIS      S 
                                         1400     1410     1200     1210     1080     1600     1650     1300     1700     1380   
                                           T        V       H0       H01     AOSYM     SMH    MOLCAS    ERIS     OPER     JKOP   

              2       5        5.42       700     1000      520     2100     2140   
                                         GEOM     BASIS   MCVARS     RHF     MCSCF   

 PROGRAMS   *        TOTAL     MULTI    HF-SCF       INT
 CPU TIMES  *         0.62      0.16      0.09      0.26
 REAL TIME  *         0.88 SEC
 DISK USED  *        38.55 MB
 **********************************************************************************************************************************
 Molecular orbitals read from record     2140.2  Type=MCSCF/NATURAL (state averaged)
 Occupation numbers read from record     2140.2  Type=MCSCF/NATURAL (state averaged)
 Orbital energies read from record       2140.2  Type=MCSCF/NATURAL (state averaged)
 Redundancy group numbers read from rec  2140.2  Type=MCSCF/NATURAL (state averaged)

 MULTI/6-31G* energy=    -77.399021549574

           MULTI          HF-SCF
    -77.39902155    -77.94420679
 **********************************************************************************************************************************
 Molpro calculation terminated
