
 Primary working directories    : /scratch.local/johan406.molpro_temp/molpro.ODCLem9iTm
 Secondary working directories  : /scratch.local/johan406.molpro_temp/molpro.ODCLem9iTm
 Wavefunction directory         : /home/goodpast/johan406/wfu/
 Main file repository           : /scratch.local/johan406.molpro_temp/molpro.ODCLem9iTm/

 id        : roweumn

 Nodes     nprocs
 cn0117       1

 Using customized tuning parameters: mindgm=1; mindgv=20; mindgc=4; mindgr=1; noblas=0; minvec=7
 default implementation of scratch files=df  


 Variables initialized (934), CPU time= 0.01 sec
                                                                                 !leave this line blank
 
 gprint, orbitals=30
 memory, 125., m
 symmetry, nosym
 nelect=16
 basis=6-31g*
 
 geometry={
 C -0.0 0.0037 0.6691
 C 0.0 0.0037 -0.6691
 H 0.0 0.8928 1.2753
 H 0.0 -0.937 1.1943
 H 0.0 0.8928 -1.2753
 H 0.0 -0.937 -1.1943
 }
 
 hf
 {multi,
 closed 7
 occ 9
 wf,spin=0;STATE,3
 }
 
 Commands  initialized (763), CPU time= 0.00 sec, 617 directives.
 Default parameters read. Elapsed time= 0.08 sec

 Checking input...
 Passed
1


                                         ***  PROGRAM SYSTEM MOLPRO  ***
                                       Copyright, TTI GmbH Stuttgart, 2015
                                    Version 2019.2 linked Oct 25 2019 22:50:27


 **********************************************************************************************************************************
 LABEL *                                                                                 
  64 bit serial version                                                                  DATE: 26-Jan-23          TIME: 19:34:10  
 **********************************************************************************************************************************

 SHA1:             8dbd9ae1082e4ce945b0f27595c9eb2d4aa09004
 **********************************************************************************************************************************


 Variable memory set to  125000000 words,  buffer space 

 SETTING NELECT         =        16.00000000                                  
 SETTING BASIS          =    6-31G*
 ZSYMEL=NOSYM


Geometry recognized as XYZ



 Recomputing integrals since basis changed


 Using spherical harmonics

 Library entry C      S 6-31G                selected for orbital group  1
 Library entry C      P 6-31G                selected for orbital group  1
 Library entry C      D 6-31G*               selected for orbital group  1
 Library entry H      S 6-31G                selected for orbital group  2


 PROGRAM * SEWARD (Integral evaluation for generally contracted gaussian basis sets)     Author: Roland Lindh, 1990

 Geometry written to block  1 of record 700


 Point group  C1  



 ATOMIC COORDINATES

 NR  ATOM    CHARGE       X              Y              Z

   1  C       6.00    0.000000000    0.006991987    1.264415750
   2  C       6.00    0.000000000    0.006991987   -1.264415750
   3  H       1.00    0.000000000    1.687147484    2.409967727
   4  H       1.00    0.000000000   -1.770673379    2.256899911
   5  H       1.00    0.000000000    1.687147484   -2.409967727
   6  H       1.00    0.000000000   -1.770673379   -2.256899911

 Bond lengths in Bohr (Angstrom)

 1-2  2.528831500  1-3  2.033522025  1-4  2.035956522  2-5  2.033522025  2-6  2.035956522
     ( 1.338200000)     ( 1.076093514)     ( 1.077381794)     ( 1.076093514)     ( 1.077381794)

 Bond angles

  1-2-5  124.28667701   1-2-6  119.17495693   2-1-3  124.28667701   2-1-4  119.17495693

  3-1-4  116.53836606   5-2-6  116.53836606

 NUCLEAR CHARGE:                   16
 NUMBER OF PRIMITIVE AOS:          72
 NUMBER OF SYMMETRY AOS:           70
 NUMBER OF CONTRACTIONS:           36   (   36A   )
 NUMBER OF CORE ORBITALS:           2   (    2A   )
 NUMBER OF VALENCE ORBITALS:       12   (   12A   )


 NUCLEAR REPULSION ENERGY   33.39435601

 EXTRA SYMMETRY OF AOS IN SYMMETRY 1:   1 1 1 2 1 1 2 1 1 1   2 2 1 1 1 1 1 2 1 1   2 1 1 1 2 2 1 1 1 1   1 1 1 1 1 1

 Eigenvalues of metric

         1 0.814E-02 0.176E-01 0.378E-01 0.461E-01 0.710E-01 0.192E+00 0.211E+00 0.226E+00


 Contracted 2-electron integrals neglected if value below      1.0D-11
 AO integral compression algorithm  1   Integral accuracy      1.0D-11

     0.786 MB (compressed) written to integral file ( 38.1%)


 NUMBER OF SORTED TWO-ELECTRON INTEGRALS:     222111.     BUFFER LENGTH:  32768
 NUMBER OF SEGMENTS:   1  SEGMENT LENGTH:     222111      RECORD LENGTH: 524288

 Memory used in sort:       0.78 MW

 SORT1 READ      284735. AND WROTE       98963. INTEGRALS IN      1 RECORDS. CPU TIME:     0.00 SEC, REAL TIME:     0.00 SEC
 SORT2 READ       98963. AND WROTE      222111. INTEGRALS IN      3 RECORDS. CPU TIME:     0.02 SEC, REAL TIME:     0.03 SEC

 FILE SIZES:   FILE 1:    30.9 MBYTE,  FILE 4:     4.2 MBYTE,   TOTAL:     35.1 MBYTE

 OPERATOR DM      FOR CENTER  0  COORDINATES:    0.000000    0.000000    0.000000


 **********************************************************************************************************************************
 DATASETS  * FILE   NREC   LENGTH (MB)   RECORD NAMES
              1      19       30.64       500      610      700      900      950      970     1000      129      960     1100   
                                          VAR    BASINP    GEOM    SYMINP    ZMAT    AOBASIS   BASIS     P2S    ABASIS      S 
                                         1400     1410     1200     1210     1080     1600     1650     1300     1700   
                                           T        V       H0       H01     AOSYM     SMH    MOLCAS    ERIS     OPER   

 PROGRAMS   *        TOTAL       INT
 CPU TIMES  *         0.35      0.26
 REAL TIME  *         0.57 SEC
 DISK USED  *        35.45 MB
 **********************************************************************************************************************************


 PROGRAM * RHF-SCF (CLOSED SHELL)       Authors: W. Meyer, H.-J. Werner


 NUMBER OF ELECTRONS:       8+    8-    SPACE SYMMETRY=1    SPIN SYMMETRY: Singlet 
 CONVERGENCE THRESHOLDS:    1.00E-05 (Density)    1.00E-07 (Energy)
 MAX. NUMBER OF ITERATIONS:       60
 INTERPOLATION TYPE:            DIIS
 INTERPOLATION STEPS:              2 (START)      1 (STEP)
 LEVEL SHIFTS:                  0.00 (CLOSED)  0.00 (OPEN) 



 Orbital guess generated from atomic densities. Full valence occupancy:    8

 Molecular orbital dump at record        2100.2

 Initial occupancy:   8

 ITERATION    DDIFF          GRAD             ENERGY        2-EL.EN.            DIPOLE MOMENTS         DIIS   ORB.
    1      0.000D+00      0.000D+00       -78.00607876    118.698503    0.00000   -0.02464    0.00000    0    start
    2      0.000D+00      0.858D-02       -78.02799332    116.860799    0.00000   -0.00302    0.00000    1    diag
    3      0.821D-02      0.292D-02       -78.03011732    117.491667   -0.00000   -0.00429   -0.00000    2    diag
    4      0.264D-02      0.712D-03       -78.03032621    117.392815    0.00000   -0.00263    0.00000    3    diag
    5      0.107D-02      0.679D-04       -78.03032832    117.395737   -0.00000   -0.00249   -0.00000    4    diag
    6      0.146D-03      0.815D-05       -78.03032835    117.395307    0.00000   -0.00250    0.00000    5    diag
    7      0.156D-04      0.119D-05       -78.03032835    117.395315   -0.00000   -0.00250   -0.00000    6    diag
    8      0.181D-05      0.144D-06       -78.03032835    117.395309   -0.00000   -0.00250   -0.00000    0    orth

 Final occupancy:   8

 !RHF STATE  1.1 Energy               -78.030328348012
 Nuclear energy                        33.39435601
 One-electron energy                 -170.12233868
 Two-electron energy                   58.69765432
 Virial quotient                       -1.00017617
 !RHF STATE  1.1 Dipole moment         -0.00000000    -0.00250464    -0.00000000
 Dipole moment /Debye                  -0.00000000    -0.00636575    -0.00000000

 ELECTRON ORBITALS
 =================

  Orbital  Occupation    Energy     Coefficients
    1.1     2.00000   -11.22541     1 1s    0.70418     2 1s    0.70418
    2.1     2.00000   -11.22382     1 1s    0.70454     2 1s   -0.70454
    3.1     2.00000    -1.02694     1 1s    0.30207     2 1s    0.30207
    4.1     2.00000    -0.79175     2 1s   -0.24191
    5.1     2.00000    -0.63860     1 2py   0.32041     2 2py   0.32041
    6.1     2.00000    -0.58256     1 2pz   0.40592     2 2pz  -0.40592
    7.1     2.00000    -0.50509     1 2py   0.30523     2 2py  -0.30523
    8.1     2.00000    -0.36934     1 2px   0.37332     1 2px   0.30789     2 2px   0.37332     2 2px   0.30789
    9.1     0.00000     0.17859     1 2px   0.34210     1 2px   0.73390     2 2px  -0.34210     2 2px  -0.73390
   10.1     0.00000     0.26582     1 1s   -1.47688     1 2pz  -0.63451     2 1s   -1.47688     2 2pz   0.63451     3 1s    0.89476
                                    4 1s    1.16289     5 1s    0.89476     6 1s    1.16289
   11.1     0.00000     0.29455     1 2py  -0.79793     2 2py  -0.79793     3 1s    1.24327     4 1s   -0.94088     5 1s    1.24327
                                    6 1s   -0.94088
   12.1     0.00000     0.30924     1 1s   -1.92259     2 1s    1.92259     3 1s    1.15325     4 1s    0.99671     5 1s   -1.15325
                                    6 1s   -0.99671
   13.1     0.00000     0.39165     1 2py   1.87486     2 2py  -1.87486     3 1s   -1.57058     4 1s    1.68831     5 1s    1.57058
                                    6 1s   -1.68831
   14.1     0.00000     0.49062     1 1s   -2.99810     1 2pz   2.96066     2 1s    2.99810     2 2pz   2.96066     3 1s   -0.64974
                                    4 1s   -0.53373     5 1s    0.64974     6 1s    0.53373
   15.1     0.00000     0.66924     1 2pz  -0.55321     1 2pz   1.03186     2 2pz   0.55321     2 2pz  -1.03186
   16.1     0.00000     0.76358     1 2py  -0.39511     1 2py   0.76402     2 2py  -0.39511     2 2py   0.76402     3 1s   -0.43090
                                    4 1s    0.33478     5 1s   -0.43090     6 1s    0.33478
   17.1     0.00000     0.77714     1 2px  -0.74056     1 2px   0.63955     2 2px  -0.74056     2 2px   0.63955
   18.1     0.00000     0.86388     1 1s   -0.88471     1 1s    1.45006     1 2pz   0.32465     2 1s   -0.88471     2 1s    1.45006
                                    2 2pz  -0.32465     3 1s   -0.35215     4 1s   -0.43401     4 1s   -0.25577     5 1s   -0.35215
                                    6 1s   -0.43401     6 1s   -0.25577
   19.1     0.00000     0.89041     1 2px  -0.81856     1 2px   1.07385     2 2px   0.81856     2 2px  -1.07385
   20.1     0.00000     0.95312     1 1s   -0.85840     1 2pz   0.59926     1 2pz  -0.47007     2 1s    0.85840     2 2pz   0.59926
                                    2 2pz  -0.47007     3 1s    0.40936     4 1s    0.36054     5 1s   -0.40936     6 1s   -0.36054
   21.1     0.00000     1.11523     1 2py  -0.68872     1 2py   1.09801     2 2py  -0.68872     2 2py   1.09801     3 1s    0.36059
                                    3 1s   -1.03383     4 1s   -0.40310     4 1s    1.08677     5 1s    0.36059     5 1s   -1.03383
                                    6 1s   -0.40310     6 1s    1.08677
   22.1     0.00000     1.16015     1 2py   0.92293     1 2py  -2.93868     2 2py  -0.92293     2 2py   2.93868     3 1s    1.55935
                                    4 1s   -1.45529     5 1s   -1.55935     6 1s    1.45529
   23.1     0.00000     1.21584     1 1s    1.03466     1 1s   -1.72499     1 2pz   0.36598     1 2pz  -0.49802     2 1s    1.03466
                                    2 1s   -1.72499     2 2pz  -0.36598     2 2pz   0.49802     3 1s   -0.45867     3 1s    0.92046
                                    4 1s   -0.42072     4 1s    0.81131     5 1s   -0.45867     5 1s    0.92046     6 1s   -0.42072
                                    6 1s    0.81131
   24.1     0.00000     1.22176     1 1s   -0.51969     1 1s    0.47514     1 2pz  -0.62795     1 2pz   1.24241     2 1s    0.51969
                                    2 1s   -0.47514     2 2pz  -0.62795     2 2pz   1.24241     3 1s    0.46179     3 1s   -0.95259
                                    4 1s    0.47714     4 1s   -0.98667     5 1s   -0.46179     5 1s    0.95259     6 1s   -0.47714
                                    6 1s    0.98667
   25.1     0.00000     1.33814     1 1s   -1.58788     1 1s    5.35325     1 2pz   0.26440     1 2pz  -1.89675     2 1s    1.58788
                                    2 1s   -5.35325     2 2pz   0.26440     2 2pz  -1.89675     3 1s   -0.27569     4 1s   -0.39655
                                    5 1s    0.27569     6 1s    0.39655
   26.1     0.00000     1.47478     1 1s   -0.82090     1 2py   2.53244     1 2pz   0.49697     2 1s    0.82090     2 2py  -2.53244
                                    2 2pz   0.49697     3 1s   -0.68245     3 1s   -0.69469     4 1s    0.70839     4 1s    0.64531
                                    5 1s    0.68245     5 1s    0.69469     6 1s   -0.70839     6 1s   -0.64531
   27.1     0.00000     1.73908     1 3d1+  0.61898     2 3d1+ -0.61898
   28.1     0.00000     1.82185     1 3d2-  0.68114     2 3d2-  0.68114
   29.1     0.00000     2.12795     1 3d2-  0.73619     2 3d2- -0.73619
   30.1     0.00000     2.20839     1 1s   -0.60582     1 3d2+  0.71371     2 1s   -0.60582     2 3d2+  0.71371     3 1s    0.38239
                                    4 1s    0.36926     5 1s    0.38239     6 1s    0.36926
   31.1     0.00000     2.32421     1 2py   0.26338     1 3d1-  0.66710     2 2py   0.26338     2 3d1- -0.66710     3 1s   -0.53888
                                    4 1s    0.44754     5 1s   -0.53888     6 1s    0.44754
   32.1     0.00000     2.41482     1 1s   -0.48436     1 2pz   0.27296     1 2pz  -0.42146     1 3d0   0.66739     2 1s   -0.48436
                                    2 2pz  -0.27296     2 2pz   0.42146     2 3d0   0.66739     4 1s    0.30927     6 1s    0.30927
   33.1     0.00000     2.62781     1 1s    0.29278     1 1s   -1.37610     1 2pz   0.29795     1 3d2+  0.79899     2 1s   -0.29278
                                    2 1s    1.37610     2 2pz   0.29795     2 3d2+ -0.79899     3 1s    0.39720     4 1s    0.49093
                                    5 1s   -0.39720     6 1s   -0.49093
   34.1     0.00000     2.70806     1 2px  -0.26451     1 3d1+  0.90269     2 2px   0.26451     2 3d1+  0.90269
   35.1     0.00000     3.04379     1 1s    1.49729     1 2pz  -0.55994     1 2py  -0.40144     1 2pz  -0.90961     1 3d0   0.76418
                                    1 3d1- -0.69907     2 1s   -1.49729     2 2pz  -0.55994     2 2py   0.40144     2 2pz  -0.90961
                                    2 3d0  -0.76418     2 3d1- -0.69907     3 1s    0.35029     4 1s   -0.30776     5 1s   -0.35029
                                    6 1s    0.30776
   36.1     0.00000     3.08119     1 1s    1.36526     1 2pz  -0.56583     1 2py   0.38637     1 2pz  -0.75929     1 3d0   0.80841
                                    1 3d1-  0.67322     2 1s   -1.36526     2 2pz  -0.56583     2 2py  -0.38637     2 2pz  -0.75929
                                    2 3d0  -0.80841     2 3d1-  0.67322     3 1s   -0.35608     4 1s    0.33280     5 1s    0.35608
                                    6 1s   -0.33280


 HOMO      8.1    -0.369344 =     -10.0504eV
 LUMO      9.1     0.178593 =       4.8598eV
 LUMO-HOMO         0.547937 =      14.9101eV


 **********************************************************************************************************************************
 DATASETS  * FILE   NREC   LENGTH (MB)   RECORD NAMES
              1      19       30.64       500      610      700      900      950      970     1000      129      960     1100   
                                          VAR    BASINP    GEOM    SYMINP    ZMAT    AOBASIS   BASIS     P2S    ABASIS      S 
                                         1400     1410     1200     1210     1080     1600     1650     1300     1700   
                                           T        V       H0       H01     AOSYM     SMH    MOLCAS    ERIS     OPER   

              2       4        2.86       700     1000      520     2100   
                                         GEOM     BASIS   MCVARS     RHF  

 PROGRAMS   *        TOTAL    HF-SCF       INT
 CPU TIMES  *         0.45      0.10      0.26
 REAL TIME  *         0.69 SEC
 DISK USED  *        35.45 MB
 **********************************************************************************************************************************


 PROGRAM * MULTI (Direct Multiconfiguration SCF)       Authors: P.J. Knowles, H.-J. Werner (1984)


 Number of closed-shell orbitals:   7 (   7 )
 Number of active  orbitals:        2 (   2 )
 Number of external orbitals:      27 (  27 )

 State symmetry 1

 Number of electrons:     2    Spin symmetry=Singlet   Space symmetry=1
 Number of states:        3
 Number of CSFs:          3   (4 determinants, 4 intermediate states)

 Molecular orbitals read from record     2100.2  Type=RHF/CANONICAL (state 1.1)

 EXTRA SYMMETRY OF MOS IN SYMMETRY 1:   1 1 1 1 1 1 1 2 2 1   1 1 1 1 1 1 2 1 2 1   1 1 1 1 1 1 2 2 2 1   1 1 1 2 1 1

 Wavefunction dump at record             2140.2

 Convergence thresholds  0.10E-01 (gradient)  0.10E-05 (energy)  0.10E-02 (step length)

 Weight factors for state symmetry  1:    0.33333   0.33333   0.33333

 Number of orbital rotations:      257   (    14 Core/Active    189 Core/Virtual   0 Active/Active     54 Active/Virtual)
 Total number of variables:        269

 Micro-Iterations solved by the two-step solver

 ITER. MIC  NCI  NEG     ENERGY(VAR)     ENERGY(PROJ)   ENERGY CHANGE     GRAD(0)  GRAD(ORB)   GRAD(CI)     STEP       TIME

   1    3    3    0     -77.72908190     -77.73533021   -0.00624830    0.13264320 0.00000154 0.00000000  0.63D-01      0.07
   2    2    3    0     -77.73523154     -77.73523532   -0.00000378    0.00304680 0.00000186 0.00000000  0.16D-02      0.10
   3    2    3    0     -77.73523532     -77.73523532   -0.00000000    0.00000216 0.00000000 0.00000000  0.13D-05      0.13

 ** WVFN ****  CONVERGENCE REACHED, FINAL GRADIENT:  0.13D-11



 Results for state 1.1
 =====================

 !MCSCF STATE  1.1 Energy             -78.047995280144
 Nuclear energy                        33.39435601
 Kinetic energy                        78.08498709
 One electron energy                 -170.25465940
 Two electron energy                   58.81230811
 Virial ratio                           1.99952626

 !MCSCF STATE  1.1 Dipole moment        0.00000000    -0.00387616    -0.00000000
 Dipole moment /Debye                   0.00000000    -0.00985157    -0.00000000

 Results for state 2.1
 =====================

 !MCSCF STATE  2.1 Energy             -77.671981038229
 Nuclear energy                        33.39435601
 Kinetic energy                        78.26521120
 One electron energy                 -169.68101703
 Two electron energy                   58.61467998
 Virial ratio                           1.99242026

 !MCSCF STATE  2.1 Dipole moment        0.00000000    -0.00403247    -0.00000000
 Dipole moment /Debye                   0.00000000    -0.01024885    -0.00000000

 Results for state 3.1
 =====================

 !MCSCF STATE  3.1 Energy             -77.485729644247
 Nuclear energy                        33.39435601
 Kinetic energy                        78.44543531
 One electron energy                 -169.10737465
 Two electron energy                   58.22728900
 Virial ratio                           1.98776595

 !MCSCF STATE  3.1 Dipole moment        0.00000000    -0.00418879    -0.00000000
 Dipole moment /Debye                   0.00000000    -0.01064614    -0.00000000

 State-averaged charge density matrix saved on record  2140.2 (density set 1)

 !MCSCF expec         <1.1|DMY|1.1>    -0.003876159645 au =    -0.009851569831 Debye
 !MCSCF expec         <2.1|DMY|2.1>    -0.004032473372 au =    -0.010248853673 Debye
 !MCSCF trans         <3.1|DMY|1.1>     0.000065704252 au =     0.000166992613 Debye
 !MCSCF expec         <3.1|DMY|3.1>    -0.004188787099 au =    -0.010646137515 Debye

 !MCSCF trans         <2.1|DMZ|1.1>    -1.510435288249 au =    -3.838892119908 Debye
 !MCSCF trans         <3.1|DMZ|2.1>    -2.273334397183 au =    -5.777861237192 Debye


 NATURAL ORBITALS (state averaged)
 =================================

  Orbital  Occupation    Energy     Coefficients
    1.1     2.00000   -11.24114     1 1s    0.70420     2 1s    0.70420
    2.1     2.00000   -11.23982     1 1s    0.70450     2 1s   -0.70450
    3.1     2.00000    -1.04171     1 1s    0.31009     2 1s    0.31009
    4.1     2.00000    -0.79956     1 1s    0.28736     2 1s   -0.28736
    5.1     2.00000    -0.65138     1 2py   0.32632     2 2py   0.32632
    6.1     2.00000    -0.59775     1 2pz   0.40787     2 2pz  -0.40787
    7.1     2.00000    -0.51173     1 2py   0.31173     2 2py  -0.31173
    8.1     1.00000     0.03371     1 2px   0.38008     1 2px   0.68688     2 2px  -0.38008     2 2px  -0.68688
    9.1     1.00000    -0.22546     1 2px   0.35793     1 2px   0.31930     2 2px   0.35793     2 2px   0.31930
   10.1    -0.00000     0.26279     1 1s   -1.45898     1 2pz  -0.63274     2 1s   -1.45898     2 2pz   0.63274     3 1s    0.83021
                                    4 1s    1.20800     5 1s    0.83021     6 1s    1.20800
   11.1    -0.00000     0.28638     1 1s   -0.30606     1 2py  -0.78053     2 1s   -0.30606     2 2py  -0.78053     3 1s    1.27991
                                    4 1s   -0.87062     5 1s    1.27991     6 1s   -0.87062
   12.1    -0.00000     0.30616     1 1s   -1.94762     2 1s    1.94762     3 1s    1.14361     4 1s    0.99539     5 1s   -1.14361
                                    6 1s   -0.99539
   13.1    -0.00000     0.38745     1 2py   0.25151     1 2py   1.86064     2 2py  -0.25151     2 2py  -1.86064     3 1s   -1.56576
                                    4 1s    1.67979     5 1s    1.56576     6 1s   -1.67979
   14.1    -0.00000     0.48782     1 1s   -2.97520     1 2pz   2.94227     2 1s    2.97520     2 2pz   2.94227     3 1s   -0.66037
                                    4 1s   -0.54194     5 1s    0.66037     6 1s    0.54194
   15.1    -0.00000     0.65774     1 1s    0.25879     1 2pz  -0.54476     1 2pz   1.00782     2 1s    0.25879     2 2pz   0.54476
                                    2 2pz  -1.00782
   16.1    -0.00000     0.75334     1 2py  -0.40663     1 2py   0.77284     2 2py  -0.40663     2 2py   0.77284     3 1s   -0.42043
                                    4 1s    0.33666     5 1s   -0.42043     6 1s    0.33666
   17.1    -0.00000     0.77111     1 2px  -0.74718     1 2px   0.63428     2 2px  -0.74718     2 2px   0.63428
   18.1    -0.00000     0.86084     1 1s   -0.87925     1 1s    1.47709     1 2pz   0.37328     2 1s   -0.87925     2 1s    1.47709
                                    2 2pz  -0.37328     3 1s   -0.36014     4 1s   -0.43064     4 1s   -0.26577     5 1s   -0.36014
                                    6 1s   -0.43064     6 1s   -0.26577
   19.1    -0.00000     0.87278     1 2px  -0.80297     1 2px   1.10434     2 2px   0.80297     2 2px  -1.10434
   20.1    -0.00000     0.93431     1 1s   -0.70140     1 2pz   0.60412     1 2pz  -0.55418     2 1s    0.70140     2 2pz   0.60412
                                    2 2pz  -0.55418     3 1s    0.40731     4 1s    0.36267     5 1s   -0.40731     6 1s   -0.36267
   21.1    -0.00000     1.09970     1 2py  -0.67709     1 2py   1.09957     2 2py  -0.67709     2 2py   1.09957     3 1s    0.36179
                                    3 1s   -1.04467     4 1s   -0.40351     4 1s    1.09405     5 1s    0.36179     5 1s   -1.04467
                                    6 1s   -0.40351     6 1s    1.09405
   22.1    -0.00000     1.14759     1 2py   0.92020     1 2py  -2.94362     2 2py  -0.92020     2 2py   2.94362     3 1s    1.55980
                                    4 1s   -1.47103     5 1s   -1.55980     6 1s    1.47103
   23.1    -0.00000     1.21258     1 1s    1.02985     1 1s   -1.72123     1 2pz   0.36959     1 2pz  -0.50365     2 1s    1.02985
                                    2 1s   -1.72123     2 2pz  -0.36959     2 2pz   0.50365     3 1s   -0.45853     3 1s    0.91893
                                    4 1s   -0.42197     4 1s    0.81221     5 1s   -0.45853     5 1s    0.91893     6 1s   -0.42197
                                    6 1s    0.81221
   24.1    -0.00000     1.21931     1 1s   -0.45495     1 1s    0.25963     1 2pz  -0.64194     1 2pz   1.32267     2 1s    0.45495
                                    2 1s   -0.25963     2 2pz  -0.64194     2 2pz   1.32267     3 1s    0.46591     3 1s   -0.95358
                                    4 1s    0.47835     4 1s   -0.95760     5 1s   -0.46591     5 1s    0.95358     6 1s   -0.47835
                                    6 1s    0.95760
   25.1    -0.00000     1.31843     1 1s   -1.61040     1 1s    5.38490     1 2pz  -1.84495     2 1s    1.61040     2 1s   -5.38490
                                    2 2pz  -1.84495     3 1s   -0.31484     4 1s   -0.44000     5 1s    0.31484     6 1s    0.44000
   26.1    -0.00000     1.46608     1 1s   -0.79571     1 2py   2.53606     1 2pz   0.48697     2 1s    0.79571     2 2py  -2.53606
                                    2 2pz   0.48697     3 1s   -0.68410     3 1s   -0.69545     4 1s    0.70482     4 1s    0.64671
                                    5 1s    0.68410     5 1s    0.69545     6 1s   -0.70482     6 1s   -0.64671
   27.1    -0.00000     1.71336     1 3d1+  0.61873     2 3d1+ -0.61873
   28.1    -0.00000     1.80798     1 3d2-  0.68116     2 3d2-  0.68116
   29.1    -0.00000     2.10483     1 3d2-  0.73619     2 3d2- -0.73619
   30.1    -0.00000     2.19296     1 1s   -0.60170     1 3d2+  0.71326     2 1s   -0.60170     2 3d2+  0.71326     3 1s    0.38447
                                    4 1s    0.37102     5 1s    0.38447     6 1s    0.37102
   31.1    -0.00000     2.30759     1 2py   0.26895     1 3d1-  0.66302     2 2py   0.26895     2 3d1- -0.66302     3 1s   -0.54206
                                    4 1s    0.44669     5 1s   -0.54206     6 1s    0.44669
   32.1    -0.00000     2.39507     1 1s   -0.48047     1 2pz   0.27764     1 2pz  -0.42214     1 3d0   0.66484     2 1s   -0.48047
                                    2 2pz  -0.27764     2 2pz   0.42214     2 3d0   0.66484     4 1s    0.31582     6 1s    0.31582
   33.1    -0.00000     2.60809     1 1s    0.29365     1 1s   -1.38226     1 2pz   0.29689     1 3d2+  0.79823     2 1s   -0.29365
                                    2 1s    1.38226     2 2pz   0.29689     2 3d2+ -0.79823     3 1s    0.40031     4 1s    0.49399
                                    5 1s   -0.40031     6 1s   -0.49399
   34.1    -0.00000     2.68552     1 2px  -0.26527     1 3d1+  0.90308     2 2px   0.26527     2 3d1+  0.90308
   35.1    -0.00000     3.02811     1 1s    1.60856     1 2pz  -0.59200     1 2py  -0.37446     1 2pz  -0.97056     1 3d0   0.81937
                                    1 3d1- -0.65074     2 1s   -1.60856     2 2pz  -0.59200     2 2py   0.37446     2 2pz  -0.97056
                                    2 3d0  -0.81937     2 3d1- -0.65074     3 1s    0.32513     4 1s   -0.28697     5 1s   -0.32513
                                    6 1s    0.28697
   36.1    -0.00000     3.06599     1 1s    1.27421     1 2pz  -0.52087     1 2py   0.41291     1 2pz  -0.70295     1 3d0   0.75484
                                    1 3d1-  0.71951     2 1s   -1.27421     2 2pz  -0.52087     2 2py  -0.41291     2 2pz  -0.70295
                                    2 3d0  -0.75484     2 3d1-  0.71951     3 1s   -0.38197     4 1s    0.35411     5 1s    0.38197
                                    6 1s   -0.35411


 Natural orbital dump (state averaged) at molpro section  2140.2    (Orbital set 2)



 **********************************************************************************************************************************
 DATASETS  * FILE   NREC   LENGTH (MB)   RECORD NAMES
              1      20       31.36       500      610      700      900      950      970     1000      129      960     1100   
                                          VAR    BASINP    GEOM    SYMINP    ZMAT    AOBASIS   BASIS     P2S    ABASIS      S 
                                         1400     1410     1200     1210     1080     1600     1650     1300     1700     1380   
                                           T        V       H0       H01     AOSYM     SMH    MOLCAS    ERIS     OPER     JKOP   

              2       5        5.42       700     1000      520     2100     2140   
                                         GEOM     BASIS   MCVARS     RHF     MCSCF   

 PROGRAMS   *        TOTAL     MULTI    HF-SCF       INT
 CPU TIMES  *         0.62      0.17      0.10      0.26
 REAL TIME  *         0.89 SEC
 DISK USED  *        38.55 MB
 **********************************************************************************************************************************
 Molecular orbitals read from record     2140.2  Type=MCSCF/NATURAL (state averaged)
 Occupation numbers read from record     2140.2  Type=MCSCF/NATURAL (state averaged)
 Orbital energies read from record       2140.2  Type=MCSCF/NATURAL (state averaged)
 Redundancy group numbers read from rec  2140.2  Type=MCSCF/NATURAL (state averaged)

 MULTI/6-31G* energy=    -77.485729644247

           MULTI          HF-SCF
    -77.48572964    -78.03032835
 **********************************************************************************************************************************
 Molpro calculation terminated
