
 Primary working directories    : /scratch.local/johan406.molpro_temp/molpro.k2NvF9hhzh
 Secondary working directories  : /scratch.local/johan406.molpro_temp/molpro.k2NvF9hhzh
 Wavefunction directory         : /home/goodpast/johan406/wfu/
 Main file repository           : /scratch.local/johan406.molpro_temp/molpro.k2NvF9hhzh/

 id        : roweumn

 Nodes     nprocs
 cn0117       1

 Using customized tuning parameters: mindgm=1; mindgv=20; mindgc=4; mindgr=1; noblas=0; minvec=7
 default implementation of scratch files=df  


 Variables initialized (934), CPU time= 0.00 sec
                                                                                 !leave this line blank
 
 gprint, orbitals=30
 memory, 125., m
 symmetry, nosym
 nelect=16
 basis=6-31g*
 
 geometry={
 C -0.0 0.0123 0.6691
 C 0.0 0.0123 -0.6691
 H 0.0 0.841 1.3703
 H 0.0 -0.9888 1.0993
 H 0.0 0.841 -1.3703
 H 0.0 -0.9888 -1.0993
 }
 
 hf
 {multi,
 closed 7
 occ 9
 wf,spin=0;STATE,3
 }
 
 Commands  initialized (763), CPU time= 0.01 sec, 617 directives.
 Default parameters read. Elapsed time= 0.09 sec

 Checking input...
 Passed
1


                                         ***  PROGRAM SYSTEM MOLPRO  ***
                                       Copyright, TTI GmbH Stuttgart, 2015
                                    Version 2019.2 linked Oct 25 2019 22:50:27


 **********************************************************************************************************************************
 LABEL *                                                                                 
  64 bit serial version                                                                  DATE: 26-Jan-23          TIME: 19:39:24  
 **********************************************************************************************************************************

 SHA1:             8dbd9ae1082e4ce945b0f27595c9eb2d4aa09004
 **********************************************************************************************************************************


 Variable memory set to  125000000 words,  buffer space 

 SETTING NELECT         =        16.00000000                                  
 SETTING BASIS          =    6-31G*
 ZSYMEL=NOSYM


Geometry recognized as XYZ



 Recomputing integrals since basis changed


 Using spherical harmonics

 Library entry C      S 6-31G                selected for orbital group  1
 Library entry C      P 6-31G                selected for orbital group  1
 Library entry C      D 6-31G*               selected for orbital group  1
 Library entry H      S 6-31G                selected for orbital group  2


 PROGRAM * SEWARD (Integral evaluation for generally contracted gaussian basis sets)     Author: Roland Lindh, 1990

 Geometry written to block  1 of record 700


 Point group  C1  



 ATOMIC COORDINATES

 NR  ATOM    CHARGE       X              Y              Z

   1  C       6.00    0.000000000    0.023243631    1.264415750
   2  C       6.00    0.000000000    0.023243631   -1.264415750
   3  H       1.00    0.000000000    1.589259671    2.589491708
   4  H       1.00    0.000000000   -1.868561192    2.077375929
   5  H       1.00    0.000000000    1.589259671   -2.589491708
   6  H       1.00    0.000000000   -1.868561192   -2.077375929

 Bond lengths in Bohr (Angstrom)

 1-2  2.528831500  1-3  2.051397702  1-4  2.059084685  2-5  2.051397702  2-6  2.059084685
     ( 1.338200000)     ( 1.085552914)     ( 1.089620691)     ( 1.085552914)     ( 1.089620691)

 Bond angles

  1-2-5  130.23604837   1-2-6  113.25451711   2-1-3  130.23604837   2-1-4  113.25451711

  3-1-4  116.50943452   5-2-6  116.50943452

 NUCLEAR CHARGE:                   16
 NUMBER OF PRIMITIVE AOS:          72
 NUMBER OF SYMMETRY AOS:           70
 NUMBER OF CONTRACTIONS:           36   (   36A   )
 NUMBER OF CORE ORBITALS:           2   (    2A   )
 NUMBER OF VALENCE ORBITALS:       12   (   12A   )


 NUCLEAR REPULSION ENERGY   33.27316591

 EXTRA SYMMETRY OF AOS IN SYMMETRY 1:   1 1 1 2 1 1 2 1 1 1   2 2 1 1 1 1 1 2 1 1   2 1 1 1 2 2 1 1 1 1   1 1 1 1 1 1

 Eigenvalues of metric

         1 0.690E-02 0.210E-01 0.390E-01 0.467E-01 0.718E-01 0.189E+00 0.220E+00 0.229E+00


 Contracted 2-electron integrals neglected if value below      1.0D-11
 AO integral compression algorithm  1   Integral accuracy      1.0D-11

     0.786 MB (compressed) written to integral file ( 38.1%)


 NUMBER OF SORTED TWO-ELECTRON INTEGRALS:     222111.     BUFFER LENGTH:  32768
 NUMBER OF SEGMENTS:   1  SEGMENT LENGTH:     222111      RECORD LENGTH: 524288

 Memory used in sort:       0.78 MW

 SORT1 READ      284735. AND WROTE       98967. INTEGRALS IN      1 RECORDS. CPU TIME:     0.00 SEC, REAL TIME:     0.01 SEC
 SORT2 READ       98967. AND WROTE      222111. INTEGRALS IN      3 RECORDS. CPU TIME:     0.02 SEC, REAL TIME:     0.02 SEC

 FILE SIZES:   FILE 1:    30.9 MBYTE,  FILE 4:     4.2 MBYTE,   TOTAL:     35.1 MBYTE

 OPERATOR DM      FOR CENTER  0  COORDINATES:    0.000000    0.000000    0.000000


 **********************************************************************************************************************************
 DATASETS  * FILE   NREC   LENGTH (MB)   RECORD NAMES
              1      19       30.63       500      610      700      900      950      970     1000      129      960     1100   
                                          VAR    BASINP    GEOM    SYMINP    ZMAT    AOBASIS   BASIS     P2S    ABASIS      S 
                                         1400     1410     1200     1210     1080     1600     1650     1300     1700   
                                           T        V       H0       H01     AOSYM     SMH    MOLCAS    ERIS     OPER   

 PROGRAMS   *        TOTAL       INT
 CPU TIMES  *         0.34      0.25
 REAL TIME  *         0.56 SEC
 DISK USED  *        35.45 MB
 **********************************************************************************************************************************


 PROGRAM * RHF-SCF (CLOSED SHELL)       Authors: W. Meyer, H.-J. Werner


 NUMBER OF ELECTRONS:       8+    8-    SPACE SYMMETRY=1    SPIN SYMMETRY: Singlet 
 CONVERGENCE THRESHOLDS:    1.00E-05 (Density)    1.00E-07 (Energy)
 MAX. NUMBER OF ITERATIONS:       60
 INTERPOLATION TYPE:            DIIS
 INTERPOLATION STEPS:              2 (START)      1 (STEP)
 LEVEL SHIFTS:                  0.00 (CLOSED)  0.00 (OPEN) 



 Orbital guess generated from atomic densities. Full valence occupancy:    8

 Molecular orbital dump at record        2100.2

 Initial occupancy:   8

 ITERATION    DDIFF          GRAD             ENERGY        2-EL.EN.            DIPOLE MOMENTS         DIIS   ORB.
    1      0.000D+00      0.000D+00       -78.00129708    118.453107   -0.00000   -0.08152   -0.00000    0    start
    2      0.000D+00      0.850D-02       -78.02276620    116.631623   -0.00000   -0.00884   -0.00000    1    diag
    3      0.819D-02      0.290D-02       -78.02486257    117.264955    0.00000   -0.01340    0.00000    2    diag
    4      0.268D-02      0.709D-03       -78.02506826    117.164510    0.00000   -0.00786    0.00000    3    diag
    5      0.107D-02      0.684D-04       -78.02507042    117.167620    0.00000   -0.00742   -0.00000    4    diag
    6      0.147D-03      0.885D-05       -78.02507046    117.167201   -0.00000   -0.00745    0.00000    5    diag
    7      0.173D-04      0.131D-05       -78.02507046    117.167205   -0.00000   -0.00745   -0.00000    6    diag
    8      0.217D-05      0.195D-06       -78.02507046    117.167199   -0.00000   -0.00746    0.00000    0    orth

 Final occupancy:   8

 !RHF STATE  1.1 Energy               -78.025070459754
 Nuclear energy                        33.27316591
 One-electron energy                 -169.88183599
 Two-electron energy                   58.58359963
 Virial quotient                       -1.00087991
 !RHF STATE  1.1 Dipole moment         -0.00000000    -0.00745647     0.00000000
 Dipole moment /Debye                  -0.00000000    -0.01895122     0.00000000

 ELECTRON ORBITALS
 =================

  Orbital  Occupation    Energy     Coefficients
    1.1     2.00000   -11.22893     1 1s    0.70419     2 1s    0.70419
    2.1     2.00000   -11.22734     1 1s    0.70455     2 1s   -0.70455
    3.1     2.00000    -1.02742     1 1s    0.30138     2 1s    0.30138
    4.1     2.00000    -0.78715     2 1s   -0.24263
    5.1     2.00000    -0.63793     1 2py   0.30802     2 2py   0.30802
    6.1     2.00000    -0.58005     1 2pz   0.39372     2 2pz  -0.39372
    7.1     2.00000    -0.49812     1 2py   0.30333     2 2py  -0.30333
    8.1     2.00000    -0.37038     1 2px   0.37374     1 2px   0.30746     2 2px   0.37374     2 2px   0.30746
    9.1     0.00000     0.17839     1 2px   0.34272     1 2px   0.73321     2 2px  -0.34272     2 2px  -0.73321
   10.1     0.00000     0.25903     1 1s   -1.30765     1 2py   0.37811     1 2pz  -0.52668     2 1s   -1.30765     2 2py   0.37811
                                    2 2pz   0.52668     3 1s    0.54343     4 1s    1.30188     5 1s    0.54343     6 1s    1.30188
   11.1     0.00000     0.29291     1 1s   -0.66075     1 2py  -0.69640     1 2pz  -0.37814     2 1s   -0.66075     2 2py  -0.69640
                                    2 2pz   0.37814     3 1s    1.43995     4 1s   -0.57143     5 1s    1.43995     6 1s   -0.57143
   12.1     0.00000     0.30502     1 1s   -1.77233     2 1s    1.77233     3 1s    1.29435     4 1s    0.81549     5 1s   -1.29435
                                    6 1s   -0.81549
   13.1     0.00000     0.39449     1 1s   -0.74108     1 2py   0.25221     1 2py   1.81756     1 2pz   0.37589     2 1s    0.74108
                                    2 2py  -0.25221     2 2py  -1.81756     2 2pz   0.37589     3 1s   -1.39547     4 1s    1.78017
                                    5 1s    1.39547     6 1s   -1.78017
   14.1     0.00000     0.48945     1 1s   -3.08207     1 2pz   3.00259     2 1s    3.08207     2 2pz   3.00259     3 1s   -0.79211
                                    4 1s   -0.37865     5 1s    0.79211     6 1s    0.37865
   15.1     0.00000     0.66880     1 2pz  -0.52901     1 2pz   0.97212     2 2pz   0.52901     2 2pz  -0.97212
   16.1     0.00000     0.77432     1 1s    0.61122     1 2py  -0.36198     1 2py   0.68188     1 2pz   0.53493     2 1s    0.61122
                                    2 2py  -0.36198     2 2py   0.68188     2 2pz  -0.53493     3 1s   -0.50368     5 1s   -0.50368
   17.1     0.00000     0.77593     1 2px  -0.74023     1 2px   0.63975     2 2px  -0.74023     2 2px   0.63975
   18.1     0.00000     0.87762     1 1s   -0.85239     1 1s    1.29911     1 2py  -0.38376     2 1s   -0.85239     2 1s    1.29911
                                    2 2py  -0.38376     4 1s   -0.50045     4 1s   -0.28580     6 1s   -0.50045     6 1s   -0.28580
   19.1     0.00000     0.88930     1 2px  -0.81836     1 2px   1.07428     2 2px   0.81836     2 2px  -1.07428
   20.1     0.00000     0.94174     1 1s   -0.77038     1 2pz   0.56808     1 2pz  -0.48039     2 1s    0.77038     2 2pz   0.56808
                                    2 2pz  -0.48039     3 1s    0.46733     4 1s    0.31712     5 1s   -0.46733     6 1s   -0.31712
   21.1     0.00000     1.10006     1 2py   0.67622     1 2py  -1.05677     2 2py   0.67622     2 2py  -1.05677     3 1s   -0.31982
                                    3 1s    0.95237     4 1s    0.44884     4 1s   -1.09861     5 1s   -0.31982     5 1s    0.95237
                                    6 1s    0.44884     6 1s   -1.09861
   22.1     0.00000     1.15152     1 2py   0.89799     1 2py  -2.85365     1 2pz  -0.66269     2 2py  -0.89799     2 2py   2.85365
                                    2 2pz  -0.66269     3 1s    1.61964     4 1s   -1.29821     5 1s   -1.61964     6 1s    1.29821
   23.1     0.00000     1.20682     1 1s    1.02162     1 1s   -1.70343     1 2pz   0.36393     1 2pz  -0.51140     2 1s    1.02162
                                    2 1s   -1.70343     2 2pz  -0.36393     2 2pz   0.51140     3 1s   -0.49128     3 1s    1.01463
                                    4 1s   -0.37817     4 1s    0.69710     5 1s   -0.49128     5 1s    1.01463     6 1s   -0.37817
                                    6 1s    0.69710
   24.1     0.00000     1.21014     1 1s   -0.48258     1 1s    0.36045     1 2pz  -0.63441     1 2pz   1.29567     2 1s    0.48258
                                    2 1s   -0.36045     2 2pz  -0.63441     2 2pz   1.29567     3 1s    0.43837     3 1s   -0.92929
                                    4 1s    0.49251     4 1s   -1.01429     5 1s   -0.43837     5 1s    0.92929     6 1s   -0.49251
                                    6 1s    1.01429
   25.1     0.00000     1.33457     1 1s   -1.53697     1 1s    5.04721     1 2pz   0.29370     1 2pz  -1.77506     2 1s    1.53697
                                    2 1s   -5.04721     2 2pz   0.29370     2 2pz  -1.77506     3 1s   -0.25438     4 1s   -0.54765
                                    5 1s    0.25438     6 1s    0.54765
   26.1     0.00000     1.47842     1 1s    0.42477     1 1s   -2.62869     1 2py   2.45206     1 2pz   1.60004     2 1s   -0.42477
                                    2 1s    2.62869     2 2py  -2.45206     2 2pz   1.60004     3 1s   -0.64125     3 1s   -0.74215
                                    4 1s    0.71265     4 1s    0.58647     5 1s    0.64125     5 1s    0.74215     6 1s   -0.71265
                                    6 1s   -0.58647
   27.1     0.00000     1.73806     1 3d1+  0.61838     2 3d1+ -0.61838
   28.1     0.00000     1.82291     1 3d2-  0.68052     2 3d2-  0.68052
   29.1     0.00000     2.12942     1 3d2-  0.73613     2 3d2- -0.73613
   30.1     0.00000     2.20561     1 1s   -0.56382     1 3d2+  0.69996     2 1s   -0.56382     2 3d2+  0.69996     3 1s    0.45664
                                    4 1s    0.31450     5 1s    0.45664     6 1s    0.31450
   31.1     0.00000     2.26697     1 1s    0.31006     1 2pz   0.26998     1 3d0  -0.29940     1 3d1-  0.59652     2 1s    0.31006
                                    2 2pz  -0.26998     2 3d0  -0.29940     2 3d1- -0.59652     3 1s   -0.42950     4 1s    0.39937
                                    5 1s   -0.42950     6 1s    0.39937
   32.1     0.00000     2.45028     1 1s   -0.42560     1 2pz   0.26276     1 2pz  -0.34587     1 3d0   0.63571     1 3d1-  0.28941
                                    2 1s   -0.42560     2 2pz  -0.26276     2 2pz   0.34587     2 3d0   0.63571     2 3d1- -0.28941
                                    4 1s    0.39685     6 1s    0.39685
   33.1     0.00000     2.62972     1 1s    0.31247     1 1s   -1.64039     1 2py   0.59329     1 2pz   0.53896     1 3d2+  0.79480
                                    2 1s   -0.31247     2 1s    1.64039     2 2py  -0.59329     2 2pz   0.53896     2 3d2+ -0.79480
                                    3 1s    0.27349     4 1s    0.58371     5 1s   -0.27349     6 1s   -0.58371
   34.1     0.00000     2.70674     1 2px  -0.26468     1 3d1+  0.90264     2 2px   0.26468     2 3d1+  0.90264
   35.1     0.00000     2.99038     1 1s   -1.44921     1 2pz   0.48178     1 2py   0.35945     1 2pz   0.98126     1 3d0  -0.61649
                                    1 3d1-  0.78857     2 1s    1.44921     2 2pz   0.48178     2 2py  -0.35945     2 2pz   0.98126
                                    2 3d0   0.61649     2 3d1-  0.78857     3 1s   -0.39221     4 1s    0.25252     5 1s    0.39221
                                    6 1s   -0.25252
   36.1     0.00000     3.11301     1 1s    0.27928     1 1s    1.42814     1 2pz  -0.62710     1 2pz  -0.74195     1 3d0   0.93110
                                    1 3d1-  0.55410     2 1s   -0.27928     2 1s   -1.42814     2 2pz  -0.62710     2 2pz  -0.74195
                                    2 3d0  -0.93110     2 3d1-  0.55410     3 1s   -0.35085     4 1s    0.26037     5 1s    0.35085
                                    6 1s   -0.26037


 HOMO      8.1    -0.370376 =     -10.0785eV
 LUMO      9.1     0.178387 =       4.8542eV
 LUMO-HOMO         0.548764 =      14.9326eV


 **********************************************************************************************************************************
 DATASETS  * FILE   NREC   LENGTH (MB)   RECORD NAMES
              1      19       30.63       500      610      700      900      950      970     1000      129      960     1100   
                                          VAR    BASINP    GEOM    SYMINP    ZMAT    AOBASIS   BASIS     P2S    ABASIS      S 
                                         1400     1410     1200     1210     1080     1600     1650     1300     1700   
                                           T        V       H0       H01     AOSYM     SMH    MOLCAS    ERIS     OPER   

              2       4        2.86       700     1000      520     2100   
                                         GEOM     BASIS   MCVARS     RHF  

 PROGRAMS   *        TOTAL    HF-SCF       INT
 CPU TIMES  *         0.45      0.11      0.25
 REAL TIME  *         0.69 SEC
 DISK USED  *        35.45 MB
 **********************************************************************************************************************************


 PROGRAM * MULTI (Direct Multiconfiguration SCF)       Authors: P.J. Knowles, H.-J. Werner (1984)


 Number of closed-shell orbitals:   7 (   7 )
 Number of active  orbitals:        2 (   2 )
 Number of external orbitals:      27 (  27 )

 State symmetry 1

 Number of electrons:     2    Spin symmetry=Singlet   Space symmetry=1
 Number of states:        3
 Number of CSFs:          3   (4 determinants, 4 intermediate states)

 Molecular orbitals read from record     2100.2  Type=RHF/CANONICAL (state 1.1)

 EXTRA SYMMETRY OF MOS IN SYMMETRY 1:   1 1 1 1 1 1 1 2 2 1   1 1 1 1 1 1 2 1 2 1   1 1 1 1 1 1 2 2 2 1   1 1 1 2 1 1

 Wavefunction dump at record             2140.2

 Convergence thresholds  0.10E-01 (gradient)  0.10E-05 (energy)  0.10E-02 (step length)

 Weight factors for state symmetry  1:    0.33333   0.33333   0.33333

 Number of orbital rotations:      257   (    14 Core/Active    189 Core/Virtual   0 Active/Active     54 Active/Virtual)
 Total number of variables:        269

 Micro-Iterations solved by the two-step solver

 ITER. MIC  NCI  NEG     ENERGY(VAR)     ENERGY(PROJ)   ENERGY CHANGE     GRAD(0)  GRAD(ORB)   GRAD(CI)     STEP       TIME

   1    3    3    0     -77.72314289     -77.72940855   -0.00626566    0.13263546 0.00000157 0.00000000  0.63D-01      0.06
   2    2    3    0     -77.72930915     -77.72931298   -0.00000383    0.00306538 0.00000190 0.00000000  0.16D-02      0.09
   3    2    3    0     -77.72931298     -77.72931298   -0.00000000    0.00000221 0.00000000 0.00000000  0.14D-05      0.13

 ** WVFN ****  CONVERGENCE REACHED, FINAL GRADIENT:  0.13D-11



 Results for state 1.1
 =====================

 !MCSCF STATE  1.1 Energy             -78.042703954528
 Nuclear energy                        33.27316591
 Kinetic energy                        78.02555288
 One electron energy                 -170.01555958
 Two electron energy                   58.69968972
 Virial ratio                           2.00021981

 !MCSCF STATE  1.1 Dipole moment        0.00000000    -0.01189850    -0.00000000
 Dipole moment /Debye                   0.00000000    -0.03024098    -0.00000000

 Results for state 2.1
 =====================

 !MCSCF STATE  2.1 Energy             -77.666024557649
 Nuclear energy                        33.27316591
 Kinetic energy                        78.20634251
 One electron energy                 -169.44140229
 Two electron energy                   58.50221183
 Virial ratio                           1.99309112

 !MCSCF STATE  2.1 Dipole moment        0.00000000    -0.01240254    -0.00000000
 Dipole moment /Debye                   0.00000000    -0.03152204    -0.00000000

 Results for state 3.1
 =====================

 !MCSCF STATE  3.1 Energy             -77.479210438768
 Nuclear energy                        33.27316591
 Kinetic energy                        78.38713214
 One electron energy                 -168.86724501
 Two electron energy                   58.11486866
 Virial ratio                           1.98841747

 !MCSCF STATE  3.1 Dipole moment        0.00000000    -0.01290658    -0.00000000
 Dipole moment /Debye                   0.00000000    -0.03280310    -0.00000000

 State-averaged charge density matrix saved on record  2140.2 (density set 1)

 !MCSCF expec         <1.1|DMY|1.1>    -0.011898496577 au =    -0.030240980930 Debye
 !MCSCF expec         <2.1|DMY|2.1>    -0.012402537131 au =    -0.031522040321 Debye
 !MCSCF trans         <3.1|DMY|1.1>     0.000211467113 au =     0.000537460584 Debye
 !MCSCF expec         <3.1|DMY|3.1>    -0.012906577685 au =    -0.032803099713 Debye

 !MCSCF trans         <2.1|DMZ|1.1>    -1.510315689450 au =    -3.838588149992 Debye
 !MCSCF trans         <3.1|DMZ|2.1>    -2.271495221706 au =    -5.773186825583 Debye


 NATURAL ORBITALS (state averaged)
 =================================

  Orbital  Occupation    Energy     Coefficients
    1.1     2.00000   -11.24447     1 1s    0.70421     2 1s    0.70421
    2.1     2.00000   -11.24315     1 1s    0.70451     2 1s   -0.70451
    3.1     2.00000    -1.04239     1 1s    0.30927     2 1s    0.30927
    4.1     2.00000    -0.79478     1 1s    0.28890     2 1s   -0.28890
    5.1     2.00000    -0.65005     1 2py   0.31578     2 2py   0.31578
    6.1     2.00000    -0.59548     1 2pz   0.39782     2 2pz  -0.39782
    7.1     2.00000    -0.50485     1 2py   0.30978     2 2py  -0.30978
    8.1     1.00000     0.03350     1 2px   0.38076     1 2px   0.68610     2 2px  -0.38076     2 2px  -0.68610
    9.1     1.00000    -0.22631     1 2px   0.35830     1 2px   0.31892     2 2px   0.35830     2 2px   0.31892
   10.1    -0.00000     0.25404     1 1s   -1.23152     1 2py   0.44041     1 2pz  -0.49239     2 1s   -1.23152     2 2py   0.44041
                                    2 2pz   0.49239     3 1s    0.40107     4 1s    1.34731     5 1s    0.40107     6 1s    1.34731
   11.1    -0.00000     0.28667     1 1s   -0.78787     1 2py  -0.64689     1 2pz  -0.42841     2 1s   -0.78787     2 2py  -0.64689
                                    2 2pz   0.42841     3 1s    1.48026     4 1s   -0.43082     5 1s    1.48026     6 1s   -0.43082
   12.1    -0.00000     0.30208     1 1s   -1.80583     2 1s    1.80583     3 1s    1.27745     4 1s    0.82124     5 1s   -1.27745
                                    6 1s   -0.82124
   13.1    -0.00000     0.38996     1 1s   -0.72963     1 2py   0.25588     1 2py   1.80462     1 2pz   0.37380     2 1s    0.72963
                                    2 2py  -0.25588     2 2py  -1.80462     2 2pz   0.37380     3 1s   -1.39437     4 1s    1.76998
                                    5 1s    1.39437     6 1s   -1.76998
   14.1    -0.00000     0.48632     1 1s   -3.05530     1 2pz   2.98323     2 1s    3.05530     2 2pz   2.98323     3 1s   -0.80614
                                    4 1s   -0.38555     5 1s    0.80614     6 1s    0.38555
   15.1    -0.00000     0.65647     1 1s    0.28665     1 2pz  -0.51763     1 2pz   0.94673     2 1s    0.28665     2 2pz   0.51763
                                    2 2pz  -0.94673
   16.1    -0.00000     0.76676     1 1s    0.54737     1 2py  -0.37610     1 2py   0.70436     1 2pz   0.54409     2 1s    0.54737
                                    2 2py  -0.37610     2 2py   0.70436     2 2pz  -0.54409     3 1s   -0.48605     5 1s   -0.48605
   17.1    -0.00000     0.77000     1 2px  -0.74688     1 2px   0.63447     2 2px  -0.74688     2 2px   0.63447
   18.1    -0.00000     0.87176     1 2px  -0.80271     1 2px   1.10478     2 2px   0.80271     2 2px  -1.10478
   19.1    -0.00000     0.87273     1 1s   -0.85729     1 1s    1.34681     1 2py  -0.36115     2 1s   -0.85729     2 1s    1.34681
                                    2 2py  -0.36115     3 1s   -0.26145     4 1s   -0.49211     4 1s   -0.29735     5 1s   -0.26145
                                    6 1s   -0.49211     6 1s   -0.29735
   20.1    -0.00000     0.92433     1 1s   -0.62496     1 2pz   0.57489     1 2pz  -0.55993     2 1s    0.62496     2 2pz   0.57489
                                    2 2pz  -0.55993     3 1s    0.46040     4 1s    0.32298     5 1s   -0.46040     6 1s   -0.32298
   21.1    -0.00000     1.08474     1 2py   0.66437     1 2py  -1.05706     2 2py   0.66437     2 2py  -1.05706     3 1s   -0.32146
                                    3 1s    0.96516     4 1s    0.45004     4 1s   -1.10341     5 1s   -0.32146     5 1s    0.96516
                                    6 1s    0.45004     6 1s   -1.10341
   22.1    -0.00000     1.13939     1 2py   0.89736     1 2py  -2.85842     1 2pz  -0.63976     2 2py  -0.89736     2 2py   2.85842
                                    2 2pz  -0.63976     3 1s    1.60405     4 1s   -1.33147     5 1s   -1.60405     6 1s    1.33147
   23.1    -0.00000     1.20366     1 1s    1.01709     1 1s   -1.70048     1 2pz   0.36739     1 2pz  -0.51726     2 1s    1.01709
                                    2 1s   -1.70048     2 2pz  -0.36739     2 2pz   0.51726     3 1s   -0.49051     3 1s    1.01301
                                    4 1s   -0.38028     4 1s    0.69894     5 1s   -0.49051     5 1s    1.01301     6 1s   -0.38028
                                    6 1s    0.69894
   24.1    -0.00000     1.20754     1 1s   -0.42719     1 2pz  -0.64959     1 2pz   1.38865     2 1s    0.42719     2 2pz  -0.64959
                                    2 2pz   1.38865     3 1s    0.44435     3 1s   -0.96645     4 1s    0.49002     4 1s   -0.95855
                                    5 1s   -0.44435     5 1s    0.96645     6 1s   -0.49002     6 1s    0.95855
   25.1    -0.00000     1.31498     1 1s   -1.56131     1 1s    5.10173     1 2pz   0.26644     1 2pz  -1.74021     2 1s    1.56131
                                    2 1s   -5.10173     2 2pz   0.26644     2 2pz  -1.74021     4 1s   -0.59098     6 1s    0.59098
   26.1    -0.00000     1.46902     1 1s    0.40914     1 1s   -2.56164     1 2py   2.45487     1 2pz   1.57344     2 1s   -0.40914
                                    2 1s    2.56164     2 2py  -2.45487     2 2pz   1.57344     3 1s   -0.64936     3 1s   -0.73995
                                    4 1s    0.70578     4 1s    0.58664     5 1s    0.64936     5 1s    0.73995     6 1s   -0.70578
                                    6 1s   -0.58664
   27.1    -0.00000     1.71246     1 3d1+  0.61824     2 3d1+ -0.61824
   28.1    -0.00000     1.80918     1 3d2-  0.68067     2 3d2-  0.68067
   29.1    -0.00000     2.10645     1 3d2-  0.73613     2 3d2- -0.73613
   30.1    -0.00000     2.19017     1 1s   -0.55903     1 3d2+  0.69914     2 1s   -0.55903     2 3d2+  0.69914     3 1s    0.46168
                                    4 1s    0.31366     5 1s    0.46168     6 1s    0.31366
   31.1    -0.00000     2.24963     1 1s    0.31300     1 2pz   0.27208     1 3d0  -0.30581     1 3d1-  0.59143     2 1s    0.31300
                                    2 2pz  -0.27208     2 3d0  -0.30581     2 3d1- -0.59143     3 1s   -0.42800     4 1s    0.40035
                                    5 1s   -0.42800     6 1s    0.40035
   32.1    -0.00000     2.43153     1 1s   -0.42116     1 2pz   0.26680     1 2pz  -0.34553     1 3d0   0.63272     1 3d1-  0.29448
                                    2 1s   -0.42116     2 2pz  -0.26680     2 2pz   0.34553     2 3d0   0.63272     2 3d1- -0.29448
                                    4 1s    0.40130     6 1s    0.40130
   33.1    -0.00000     2.61040     1 1s    0.31362     1 1s   -1.64874     1 2py   0.59660     1 2pz   0.53943     1 3d2+  0.79404
                                    2 1s   -0.31362     2 1s    1.64874     2 2py  -0.59660     2 2pz   0.53943     2 3d2+ -0.79404
                                    3 1s    0.27665     4 1s    0.58668     5 1s   -0.27665     6 1s   -0.58668
   34.1    -0.00000     2.68432     1 2px  -0.26544     1 3d1+  0.90303     2 2px   0.26544     2 3d1+  0.90303
   35.1    -0.00000     2.97526     1 1s   -1.49960     1 2pz   0.48957     1 2py   0.35676     1 2pz   1.00760     1 3d0  -0.63604
                                    1 3d1-  0.77718     2 1s    1.49960     2 2pz   0.48957     2 2py  -0.35676     2 2pz   1.00760
                                    2 3d0   0.63604     2 3d1-  0.77718     3 1s   -0.38569     4 1s    0.25101     5 1s    0.38569
                                    6 1s   -0.25101
   36.1    -0.00000     3.09731     1 1s    0.27132     1 1s    1.41449     1 2pz  -0.61146     1 2py   0.25615     1 2pz  -0.73087
                                    1 3d0   0.91983     1 3d1-  0.56936     2 1s   -0.27132     2 1s   -1.41449     2 2pz  -0.61146
                                    2 2py  -0.25615     2 2pz  -0.73087     2 3d0  -0.91983     2 3d1-  0.56936     3 1s   -0.36082
                                    4 1s    0.26632     5 1s    0.36082     6 1s   -0.26632


 EXTRA SYMMETRY OF MOS IN SYMMETRY 1:   1 1 1 1 1 1 1 2 2 1   1 1 1 1 1 1 2 2 1 1   1 1 1 1 1 1 2 2 2 1   1 1 1 2 1 1

 Natural orbital dump (state averaged) at molpro section  2140.2    (Orbital set 2)



 **********************************************************************************************************************************
 DATASETS  * FILE   NREC   LENGTH (MB)   RECORD NAMES
              1      20       31.36       500      610      700      900      950      970     1000      129      960     1100   
                                          VAR    BASINP    GEOM    SYMINP    ZMAT    AOBASIS   BASIS     P2S    ABASIS      S 
                                         1400     1410     1200     1210     1080     1600     1650     1300     1700     1380   
                                           T        V       H0       H01     AOSYM     SMH    MOLCAS    ERIS     OPER     JKOP   

              2       5        5.42       700     1000      520     2100     2140   
                                         GEOM     BASIS   MCVARS     RHF     MCSCF   

 PROGRAMS   *        TOTAL     MULTI    HF-SCF       INT
 CPU TIMES  *         0.61      0.16      0.11      0.25
 REAL TIME  *         0.88 SEC
 DISK USED  *        38.55 MB
 **********************************************************************************************************************************
 Molecular orbitals read from record     2140.2  Type=MCSCF/NATURAL (state averaged)
 Occupation numbers read from record     2140.2  Type=MCSCF/NATURAL (state averaged)
 Orbital energies read from record       2140.2  Type=MCSCF/NATURAL (state averaged)
 Redundancy group numbers read from rec  2140.2  Type=MCSCF/NATURAL (state averaged)

 MULTI/6-31G* energy=    -77.479210438768

           MULTI          HF-SCF
    -77.47921044    -78.02507046
 **********************************************************************************************************************************
 Molpro calculation terminated
