
 Primary working directories    : /scratch.local/johan406.molpro_temp/molpro.cC3sqURHuJ
 Secondary working directories  : /scratch.local/johan406.molpro_temp/molpro.cC3sqURHuJ
 Wavefunction directory         : /home/goodpast/johan406/wfu/
 Main file repository           : /scratch.local/johan406.molpro_temp/molpro.cC3sqURHuJ/

 id        : roweumn

 Nodes     nprocs
 cn0117       1

 Using customized tuning parameters: mindgm=1; mindgv=20; mindgc=4; mindgr=1; noblas=0; minvec=7
 default implementation of scratch files=df  


 Variables initialized (934), CPU time= 0.01 sec
                                                                                 !leave this line blank
 
 gprint, orbitals=30
 memory, 125., m
 symmetry, nosym
 nelect=16
 basis=6-31g*
 
 geometry={
 C -0.0 0.0147 0.6691
 C 0.0 0.0147 -0.6691
 H 0.0 0.8266 1.3967
 H 0.0 -1.0032 1.0729
 H 0.0 0.8266 -1.3967
 H 0.0 -1.0032 -1.0729
 }
 
 hf
 {multi,
 closed 7
 occ 9
 wf,spin=0;STATE,3
 }
 
 Commands  initialized (763), CPU time= 0.00 sec, 617 directives.
 Default parameters read. Elapsed time= 0.09 sec

 Checking input...
 Passed
1


                                         ***  PROGRAM SYSTEM MOLPRO  ***
                                       Copyright, TTI GmbH Stuttgart, 2015
                                    Version 2019.2 linked Oct 25 2019 22:50:27


 **********************************************************************************************************************************
 LABEL *                                                                                 
  64 bit serial version                                                                  DATE: 26-Jan-23          TIME: 19:40:51  
 **********************************************************************************************************************************

 SHA1:             8dbd9ae1082e4ce945b0f27595c9eb2d4aa09004
 **********************************************************************************************************************************


 Variable memory set to  125000000 words,  buffer space 

 SETTING NELECT         =        16.00000000                                  
 SETTING BASIS          =    6-31G*
 ZSYMEL=NOSYM


Geometry recognized as XYZ



 Recomputing integrals since basis changed


 Using spherical harmonics

 Library entry C      S 6-31G                selected for orbital group  1
 Library entry C      P 6-31G                selected for orbital group  1
 Library entry C      D 6-31G*               selected for orbital group  1
 Library entry H      S 6-31G                selected for orbital group  2


 PROGRAM * SEWARD (Integral evaluation for generally contracted gaussian basis sets)     Author: Roland Lindh, 1990

 Geometry written to block  1 of record 700


 Point group  C1  



 ATOMIC COORDINATES

 NR  ATOM    CHARGE       X              Y              Z

   1  C       6.00    0.000000000    0.027778974    1.264415750
   2  C       6.00    0.000000000    0.027778974   -1.264415750
   3  H       1.00    0.000000000    1.562047615    2.639380478
   4  H       1.00    0.000000000   -1.895773248    2.027487159
   5  H       1.00    0.000000000    1.562047615   -2.639380478
   6  H       1.00    0.000000000   -1.895773248   -2.027487159

 Bond lengths in Bohr (Angstrom)

 1-2  2.528831500  1-3  2.060220441  1-4  2.069379406  2-5  2.060220441  2-6  2.069379406
     ( 1.338200000)     ( 1.090221707)     ( 1.095068423)     ( 1.090221707)     ( 1.095068423)

 Bond angles

  1-2-5  131.86572566   1-2-6  111.63818239   2-1-3  131.86572566   2-1-4  111.63818239

  3-1-4  116.49609195   5-2-6  116.49609195

 NUCLEAR CHARGE:                   16
 NUMBER OF PRIMITIVE AOS:          72
 NUMBER OF SYMMETRY AOS:           70
 NUMBER OF CONTRACTIONS:           36   (   36A   )
 NUMBER OF CORE ORBITALS:           2   (    2A   )
 NUMBER OF VALENCE ORBITALS:       12   (   12A   )


 NUCLEAR REPULSION ENERGY   33.21750200

 EXTRA SYMMETRY OF AOS IN SYMMETRY 1:   1 1 1 2 1 1 2 1 1 1   2 2 1 1 1 1 1 2 1 1   2 1 1 1 2 2 1 1 1 1   1 1 1 1 1 1

 Eigenvalues of metric

         1 0.651E-02 0.225E-01 0.395E-01 0.469E-01 0.723E-01 0.188E+00 0.223E+00 0.230E+00


 Contracted 2-electron integrals neglected if value below      1.0D-11
 AO integral compression algorithm  1   Integral accuracy      1.0D-11

     0.786 MB (compressed) written to integral file ( 38.1%)


 NUMBER OF SORTED TWO-ELECTRON INTEGRALS:     222111.     BUFFER LENGTH:  32768
 NUMBER OF SEGMENTS:   1  SEGMENT LENGTH:     222111      RECORD LENGTH: 524288

 Memory used in sort:       0.78 MW

 SORT1 READ      284735. AND WROTE       98967. INTEGRALS IN      1 RECORDS. CPU TIME:     0.00 SEC, REAL TIME:     0.00 SEC
 SORT2 READ       98967. AND WROTE      222111. INTEGRALS IN      3 RECORDS. CPU TIME:     0.02 SEC, REAL TIME:     0.03 SEC

 FILE SIZES:   FILE 1:    30.9 MBYTE,  FILE 4:     4.2 MBYTE,   TOTAL:     35.1 MBYTE

 OPERATOR DM      FOR CENTER  0  COORDINATES:    0.000000    0.000000    0.000000


 **********************************************************************************************************************************
 DATASETS  * FILE   NREC   LENGTH (MB)   RECORD NAMES
              1      19       30.63       500      610      700      900      950      970     1000      129      960     1100   
                                          VAR    BASINP    GEOM    SYMINP    ZMAT    AOBASIS   BASIS     P2S    ABASIS      S 
                                         1400     1410     1200     1210     1080     1600     1650     1300     1700   
                                           T        V       H0       H01     AOSYM     SMH    MOLCAS    ERIS     OPER   

 PROGRAMS   *        TOTAL       INT
 CPU TIMES  *         0.34      0.25
 REAL TIME  *         0.57 SEC
 DISK USED  *        35.45 MB
 **********************************************************************************************************************************


 PROGRAM * RHF-SCF (CLOSED SHELL)       Authors: W. Meyer, H.-J. Werner


 NUMBER OF ELECTRONS:       8+    8-    SPACE SYMMETRY=1    SPIN SYMMETRY: Singlet 
 CONVERGENCE THRESHOLDS:    1.00E-05 (Density)    1.00E-07 (Energy)
 MAX. NUMBER OF ITERATIONS:       60
 INTERPOLATION TYPE:            DIIS
 INTERPOLATION STEPS:              2 (START)      1 (STEP)
 LEVEL SHIFTS:                  0.00 (CLOSED)  0.00 (OPEN) 



 Orbital guess generated from atomic densities. Full valence occupancy:    8

 Molecular orbital dump at record        2100.2

 Initial occupancy:   8

 ITERATION    DDIFF          GRAD             ENERGY        2-EL.EN.            DIPOLE MOMENTS         DIIS   ORB.
    1      0.000D+00      0.000D+00       -77.99880377    118.339807   -0.00000   -0.09702   -0.00000    0    start
    2      0.000D+00      0.846D-02       -78.02007137    116.525814   -0.00000   -0.00984    0.00000    1    diag
    3      0.818D-02      0.289D-02       -78.02215539    117.160321   -0.00000   -0.01546    0.00000    2    diag
    4      0.269D-02      0.708D-03       -78.02235969    117.059130    0.00000   -0.00883    0.00000    3    diag
    5      0.107D-02      0.687D-04       -78.02236187    117.062323   -0.00000   -0.00831   -0.00000    4    diag
    6      0.148D-03      0.918D-05       -78.02236191    117.061909   -0.00000   -0.00835    0.00000    5    diag
    7      0.181D-04      0.137D-05       -78.02236191    117.061911   -0.00000   -0.00835   -0.00000    6    diag
    8      0.234D-05      0.215D-06       -78.02236191    117.061905   -0.00000   -0.00836    0.00000    0    orth

 Final occupancy:   8

 !RHF STATE  1.1 Energy               -78.022361914442
 Nuclear energy                        33.21750200
 One-electron energy                 -169.77081662
 Two-electron energy                   58.53095271
 Virial quotient                       -1.00119581
 !RHF STATE  1.1 Dipole moment         -0.00000000    -0.00835658     0.00000000
 Dipole moment /Debye                  -0.00000000    -0.02123892     0.00000000

 ELECTRON ORBITALS
 =================

  Orbital  Occupation    Energy     Coefficients
    1.1     2.00000   -11.23056     1 1s    0.70420     2 1s    0.70420
    2.1     2.00000   -11.22897     1 1s    0.70455     2 1s   -0.70455
    3.1     2.00000    -1.02764     1 1s    0.30107     2 1s    0.30107
    4.1     2.00000    -0.78503     2 1s   -0.24302
    5.1     2.00000    -0.63755     1 2py   0.30288     2 2py   0.30288
    6.1     2.00000    -0.57899     1 2pz   0.38870     2 2pz  -0.38870
    7.1     2.00000    -0.49487     1 2py   0.30248     2 2py  -0.30248
    8.1     2.00000    -0.37086     1 2px   0.37394     1 2px   0.30726     2 2px   0.37394     2 2px   0.30726
    9.1     0.00000     0.17829     1 2px   0.34302     1 2px   0.73288     2 2px  -0.34302     2 2px  -0.73288
   10.1     0.00000     0.25606     1 1s   -1.24529     1 2py   0.42664     1 2pz  -0.48672     2 1s   -1.24529     2 2py   0.42664
                                    2 2pz   0.48672     3 1s    0.45852     4 1s    1.30900     5 1s    0.45852     6 1s    1.30900
   11.1     0.00000     0.29196     1 1s   -0.74586     1 2py  -0.65883     1 2pz  -0.42852     2 1s   -0.74586     2 2py  -0.65883
                                    2 2pz   0.42852     3 1s    1.46457     4 1s   -0.48442     5 1s    1.46457     6 1s   -0.48442
   12.1     0.00000     0.30307     1 1s   -1.71000     1 2py  -0.27459     1 2pz  -0.27116     2 1s    1.71000     2 2py   0.27459
                                    2 2pz  -0.27116     3 1s    1.32137     4 1s    0.77089     5 1s   -1.32137     6 1s   -0.77089
   13.1     0.00000     0.39562     1 1s   -0.84511     1 2py   0.25418     1 2py   1.79249     1 2pz   0.42361     2 1s    0.84511
                                    2 2py  -0.25418     2 2py  -1.79249     2 2pz   0.42361     3 1s   -1.34081     4 1s    1.79699
                                    5 1s    1.34081     6 1s   -1.79699
   14.1     0.00000     0.48900     1 1s   -3.12290     1 2pz   3.02349     2 1s    3.12290     2 2pz   3.02349     3 1s   -0.83600
                                    4 1s   -0.32777     5 1s    0.83600     6 1s    0.32777
   15.1     0.00000     0.66877     1 1s    0.26311     1 2pz  -0.51957     1 2pz   0.95047     2 1s    0.26311     2 2pz   0.51957
                                    2 2pz  -0.95047
   16.1     0.00000     0.77537     1 2px  -0.74008     1 2px   0.63985     2 2px  -0.74008     2 2px   0.63985
   17.1     0.00000     0.77891     1 1s   -0.27556     1 1s    0.71060     1 2py  -0.34785     1 2py   0.64607     1 2pz   0.61483
                                    2 1s   -0.27556     2 1s    0.71060     2 2py  -0.34785     2 2py   0.64607     2 2pz  -0.61483
                                    3 1s   -0.51623     5 1s   -0.51623
   18.1     0.00000     0.88407     1 1s   -0.83742     1 1s    1.23171     1 2py  -0.45507     2 1s   -0.83742     2 1s    1.23171
                                    2 2py  -0.45507     4 1s   -0.51110     4 1s   -0.29132     6 1s   -0.51110     6 1s   -0.29132
   19.1     0.00000     0.88879     1 2px  -0.81826     1 2px   1.07449     2 2px   0.81826     2 2px  -1.07449
   20.1     0.00000     0.93699     1 1s   -0.73257     1 2pz   0.55505     1 2pz  -0.48402     2 1s    0.73257     2 2pz   0.55505
                                    2 2pz  -0.48402     3 1s    0.48193     4 1s    0.30907     5 1s   -0.48193     6 1s   -0.30907
   21.1     0.00000     1.09355     1 2py   0.66992     1 2py  -1.03699     2 2py   0.66992     2 2py  -1.03699     3 1s   -0.31206
                                    3 1s    0.92963     4 1s    0.46123     4 1s   -1.09139     5 1s   -0.31206     5 1s    0.92963
                                    6 1s    0.46123     6 1s   -1.09139
   22.1     0.00000     1.14741     1 2py   0.88764     1 2py  -2.81310     1 2pz  -0.78162     2 2py  -0.88764     2 2py   2.81310
                                    2 2pz  -0.78162     3 1s    1.62103     4 1s   -1.25230     5 1s   -1.62103     6 1s    1.25230
   23.1     0.00000     1.20251     1 1s    1.01703     1 1s   -1.69498     1 2pz   0.36281     1 2pz  -0.51602     2 1s    1.01703
                                    2 1s   -1.69498     2 2pz  -0.36281     2 2pz   0.51602     3 1s   -0.49750     3 1s    1.03121
                                    4 1s   -0.36832     4 1s    0.67267     5 1s   -0.49750     5 1s    1.03121     6 1s   -0.36832
                                    6 1s    0.67267
   24.1     0.00000     1.20483     1 1s   -0.46970     1 1s    0.31517     1 2pz  -0.63696     1 2pz   1.32191     2 1s    0.46970
                                    2 1s   -0.31517     2 2pz  -0.63696     2 2pz   1.32191     3 1s    0.42995     3 1s   -0.93090
                                    4 1s    0.49641     4 1s   -1.01815     5 1s   -0.42995     5 1s    0.93090     6 1s   -0.49641
                                    6 1s    1.01815
   25.1     0.00000     1.33314     1 1s   -1.51409     1 1s    4.91941     1 2pz   0.30682     1 2pz  -1.72829     2 1s    1.51409
                                    2 1s   -4.91941     2 2pz   0.30682     2 2pz  -1.72829     3 1s   -0.27374     4 1s   -0.58768
                                    5 1s    0.27374     6 1s    0.58768
   26.1     0.00000     1.47983     1 1s    0.49938     1 1s   -3.08894     1 2py   2.41883     1 2pz   1.88367     2 1s   -0.49938
                                    2 1s    3.08894     2 2py  -2.41883     2 2pz   1.88367     3 1s   -0.63019     3 1s   -0.75319
                                    4 1s    0.70834     4 1s    0.57208     5 1s    0.63019     5 1s    0.75319     6 1s   -0.70834
                                    6 1s   -0.57208
   27.1     0.00000     1.73760     1 3d1+  0.61815     2 3d1+ -0.61815
   28.1     0.00000     1.82336     1 3d2-  0.68028     2 3d2-  0.68028
   29.1     0.00000     2.13007     1 3d2-  0.73611     2 3d2- -0.73611
   30.1     0.00000     2.20137     1 1s   -0.52294     1 2pz  -0.28308     1 3d2+  0.66502     1 3d1- -0.26640     2 1s   -0.52294
                                    2 2pz   0.28308     2 3d2+  0.66502     2 3d1-  0.26640     3 1s    0.51075     4 1s    0.25556
                                    5 1s    0.51075     6 1s    0.25556
   31.1     0.00000     2.25075     1 1s    0.33925     1 2pz   0.25436     1 3d0  -0.30272     1 3d2+  0.25319     1 3d1-  0.55572
                                    2 1s    0.33925     2 2pz  -0.25436     2 3d0  -0.30272     2 3d2+  0.25319     2 3d1- -0.55572
                                    3 1s   -0.34302     4 1s    0.43295     5 1s   -0.34302     6 1s    0.43295
   32.1     0.00000     2.45921     1 1s   -0.41847     1 2pz   0.26515     1 2pz  -0.33309     1 3d0   0.63824     1 3d1-  0.28804
                                    2 1s   -0.41847     2 2pz  -0.26515     2 2pz   0.33309     2 3d0   0.63824     2 3d1- -0.28804
                                    4 1s    0.39639     6 1s    0.39639
   33.1     0.00000     2.62883     1 1s    0.32087     1 1s   -1.75484     1 2py   0.68650     1 2pz   0.64385     1 3d2+  0.79268
                                    2 1s   -0.32087     2 1s    1.75484     2 2py  -0.68650     2 2pz   0.64385     2 3d2+ -0.79268
                                    3 1s   -0.26013     4 1s    0.60440     5 1s    0.26013     6 1s   -0.60440
   34.1     0.00000     2.70615     1 2px  -0.26475     1 3d1+  0.90263     2 2px   0.26475     2 3d1+  0.90263
   35.1     0.00000     2.97473     1 1s   -1.41833     1 2pz   0.46240     1 2py   0.32140     1 2pz   0.98942     1 3d0  -0.58101
                                    1 3d1-  0.80501     2 1s    1.41833     2 2pz   0.46240     2 2py  -0.32140     2 2pz   0.98942
                                    2 3d0   0.58101     2 3d1-  0.80501     3 1s   -0.39773     5 1s    0.39773
   36.1     0.00000     3.11980     1 1s    0.28600     1 1s    1.45539     1 2pz  -0.63857     1 2pz  -0.75037     1 3d0   0.95567
                                    1 3d1-  0.52481     2 1s   -0.28600     2 1s   -1.45539     2 2pz  -0.63857     2 2pz  -0.75037
                                    2 3d0  -0.95567     2 3d1-  0.52481     3 1s   -0.34853     5 1s    0.34853


 HOMO      8.1    -0.370858 =     -10.0916eV
 LUMO      9.1     0.178289 =       4.8515eV
 LUMO-HOMO         0.549146 =      14.9430eV


 **********************************************************************************************************************************
 DATASETS  * FILE   NREC   LENGTH (MB)   RECORD NAMES
              1      19       30.63       500      610      700      900      950      970     1000      129      960     1100   
                                          VAR    BASINP    GEOM    SYMINP    ZMAT    AOBASIS   BASIS     P2S    ABASIS      S 
                                         1400     1410     1200     1210     1080     1600     1650     1300     1700   
                                           T        V       H0       H01     AOSYM     SMH    MOLCAS    ERIS     OPER   

              2       4        2.86       700     1000      520     2100   
                                         GEOM     BASIS   MCVARS     RHF  

 PROGRAMS   *        TOTAL    HF-SCF       INT
 CPU TIMES  *         0.44      0.10      0.25
 REAL TIME  *         0.69 SEC
 DISK USED  *        35.45 MB
 **********************************************************************************************************************************


 PROGRAM * MULTI (Direct Multiconfiguration SCF)       Authors: P.J. Knowles, H.-J. Werner (1984)


 Number of closed-shell orbitals:   7 (   7 )
 Number of active  orbitals:        2 (   2 )
 Number of external orbitals:      27 (  27 )

 State symmetry 1

 Number of electrons:     2    Spin symmetry=Singlet   Space symmetry=1
 Number of states:        3
 Number of CSFs:          3   (4 determinants, 4 intermediate states)

 Molecular orbitals read from record     2100.2  Type=RHF/CANONICAL (state 1.1)

 EXTRA SYMMETRY OF MOS IN SYMMETRY 1:   1 1 1 1 1 1 1 2 2 1   1 1 1 1 1 2 1 1 2 1   1 1 1 1 1 1 2 2 2 1   1 1 1 2 1 1

 Wavefunction dump at record             2140.2

 Convergence thresholds  0.10E-01 (gradient)  0.10E-05 (energy)  0.10E-02 (step length)

 Weight factors for state symmetry  1:    0.33333   0.33333   0.33333

 Number of orbital rotations:      257   (    14 Core/Active    189 Core/Virtual   0 Active/Active     54 Active/Virtual)
 Total number of variables:        269

 Micro-Iterations solved by the two-step solver

 ITER. MIC  NCI  NEG     ENERGY(VAR)     ENERGY(PROJ)   ENERGY CHANGE     GRAD(0)  GRAD(ORB)   GRAD(CI)     STEP       TIME

   1    3    3    0     -77.72011984     -77.72639352   -0.00627368    0.13263110 0.00000159 0.00000000  0.63D-01      0.06
   2    2    3    0     -77.72629378     -77.72629764   -0.00000386    0.00307398 0.00000191 0.00000000  0.16D-02      0.10
   3    2    3    0     -77.72629764     -77.72629764   -0.00000000    0.00000222 0.00000000 0.00000000  0.14D-05      0.13

 ** WVFN ****  CONVERGENCE REACHED, FINAL GRADIENT:  0.14D-11



 Results for state 1.1
 =====================

 !MCSCF STATE  1.1 Energy             -78.039980695645
 Nuclear energy                        33.21750200
 Kinetic energy                        77.99855237
 One electron energy                 -169.90518012
 Two electron energy                   58.64769743
 Virial ratio                           2.00053114

 !MCSCF STATE  1.1 Dipole moment        0.00000000    -0.01360087     0.00000000
 Dipole moment /Debye                   0.00000000    -0.03456770     0.00000000

 Results for state 2.1
 =====================

 !MCSCF STATE  2.1 Energy             -77.662992056581
 Nuclear energy                        33.21750200
 Kinetic energy                        78.17961429
 One electron energy                 -169.33081304
 Two electron energy                   58.45031898
 Virial ratio                           1.99339185

 !MCSCF STATE  2.1 Dipole moment        0.00000000    -0.01419336     0.00000000
 Dipole moment /Debye                   0.00000000    -0.03607356     0.00000000

 Results for state 3.1
 =====================

 !MCSCF STATE  3.1 Energy             -77.475920168434
 Nuclear energy                        33.21750200
 Kinetic energy                        78.36067621
 One electron energy                 -168.75644596
 Two electron energy                   58.06302379
 Virial ratio                           1.98870918

 !MCSCF STATE  3.1 Dipole moment        0.00000000    -0.01478585    -0.00000000
 Dipole moment /Debye                   0.00000000    -0.03757942    -0.00000000

 State-averaged charge density matrix saved on record  2140.2 (density set 1)

 !MCSCF expec         <1.1|DMY|1.1>    -0.013600869582 au =    -0.034567698112 Debye
 !MCSCF expec         <2.1|DMY|2.1>    -0.014193359381 au =    -0.036073558335 Debye
 !MCSCF trans         <3.1|DMY|1.1>     0.000248364350 au =     0.000631237865 Debye
 !MCSCF expec         <3.1|DMY|3.1>    -0.014785849180 au =    -0.037579418559 Debye

 !MCSCF trans         <2.1|DMZ|1.1>    -1.510249787784 au =    -3.838420655635 Debye
 !MCSCF trans         <3.1|DMZ|2.1>    -2.270649919844 au =    -5.771038423277 Debye


 NATURAL ORBITALS (state averaged)
 =================================

  Orbital  Occupation    Energy     Coefficients
    1.1     2.00000   -11.24601     1 1s    0.70421     2 1s    0.70421
    2.1     2.00000   -11.24470     1 1s    0.70451     2 1s   -0.70451
    3.1     2.00000    -1.04271     1 1s    0.30890     2 1s    0.30890
    4.1     2.00000    -0.79257     1 1s    0.28965     2 1s   -0.28965
    5.1     2.00000    -0.64939     1 2py   0.31137     2 2py   0.31137
    6.1     2.00000    -0.59451     1 2pz   0.39364     2 2pz  -0.39364
    7.1     2.00000    -0.50164     1 2py   0.30890     2 2py  -0.30890
    8.1     1.00000     0.03340     1 2px   0.38108     1 2px   0.68572     2 2px  -0.38108     2 2px  -0.68572
    9.1     1.00000    -0.22671     1 2px   0.35847     1 2px   0.31874     2 2px   0.35847     2 2px   0.31874
   10.1    -0.00000     0.25047     1 1s   -1.16146     1 2py   0.48411     1 2pz  -0.44791     2 1s   -1.16146     2 2py   0.48411
                                    2 2pz   0.44791     3 1s    0.31520     4 1s    1.34510     5 1s    0.31520     6 1s    1.34510
   11.1    -0.00000     0.28631     1 1s   -0.86599     1 2py  -0.60520     1 2pz  -0.47403     2 1s   -0.86599     2 2py  -0.60520
                                    2 2pz   0.47403     3 1s    1.49653     4 1s   -0.34428     5 1s    1.49653     6 1s   -0.34428
   12.1    -0.00000     0.30018     1 1s   -1.74660     1 2py  -0.26047     2 1s    1.74660     2 2py   0.26047     3 1s    1.30324
                                    4 1s    0.77754     5 1s   -1.30324     6 1s   -0.77754
   13.1    -0.00000     0.39096     1 1s   -0.83390     1 2py   0.25789     1 2py   1.77989     1 2pz   0.42191     2 1s    0.83390
                                    2 2py  -0.25789     2 2py  -1.77989     2 2pz   0.42191     3 1s   -1.34015     4 1s    1.78691
                                    5 1s    1.34015     6 1s   -1.78691
   14.1    -0.00000     0.48573     1 1s   -3.09435     1 2pz   3.00369     2 1s    3.09435     2 2pz   3.00369     3 1s   -0.85090
                                    4 1s   -0.33476     5 1s    0.85090     6 1s    0.33476
   15.1    -0.00000     0.65615     1 1s    0.29781     1 2pz  -0.50752     1 2pz   0.92576     2 1s    0.29781     2 2pz   0.50752
                                    2 2pz  -0.92576
   16.1    -0.00000     0.76948     1 2px  -0.74675     1 2px   0.63456     2 2px  -0.74675     2 2px   0.63456
   17.1    -0.00000     0.77241     1 1s    0.64365     1 2py  -0.36328     1 2py   0.67349     1 2pz   0.62656     2 1s    0.64365
                                    2 2py  -0.36328     2 2py   0.67349     2 2pz  -0.62656     3 1s   -0.49866     5 1s   -0.49866
   18.1    -0.00000     0.87129     1 2px  -0.80259     1 2px   1.10499     2 2px   0.80259     2 2px  -1.10499
   19.1    -0.00000     0.87840     1 1s   -0.84611     1 1s    1.28593     1 2py  -0.43272     2 1s   -0.84611     2 1s    1.28593
                                    2 2py  -0.43272     4 1s   -0.50304     4 1s   -0.30429     6 1s   -0.50304     6 1s   -0.30429
   20.1    -0.00000     0.92019     1 1s   -0.59209     1 2pz   0.56258     1 2py   0.26492     1 2pz  -0.56139     2 1s    0.59209
                                    2 2pz   0.56258     2 2py  -0.26492     2 2pz  -0.56139     3 1s    0.47380     4 1s    0.31565
                                    5 1s   -0.47380     6 1s   -0.31565
   21.1    -0.00000     1.07834     1 2py   0.65782     1 2py  -1.03644     2 2py   0.65782     2 2py  -1.03644     3 1s   -0.31352
                                    3 1s    0.94207     4 1s    0.46312     4 1s   -1.09582     5 1s   -0.31352     5 1s    0.94207
                                    6 1s    0.46312     6 1s   -1.09582
   22.1    -0.00000     1.13547     1 2py   0.88773     1 2py  -2.81752     1 2pz  -0.75328     2 2py  -0.88773     2 2py   2.81752
                                    2 2pz  -0.75328     3 1s    1.60140     4 1s   -1.28981     5 1s   -1.60140     6 1s    1.28981
   23.1    -0.00000     1.19941     1 1s    1.01249     1 1s   -1.69222     1 2pz   0.36624     1 2pz  -0.52211     2 1s    1.01249
                                    2 1s   -1.69222     2 2pz  -0.36624     2 2pz   0.52211     3 1s   -0.49679     3 1s    1.03027
                                    4 1s   -0.37036     4 1s    0.67405     5 1s   -0.49679     5 1s    1.03027     6 1s   -0.37036
                                    6 1s    0.67405
   24.1    -0.00000     1.20219     1 1s   -0.41849     1 2pz  -0.65254     1 2pz   1.41995     2 1s    0.41849     2 2pz  -0.65254
                                    2 2pz   1.41995     3 1s    0.43603     3 1s   -0.97697     4 1s    0.49302     4 1s   -0.95748
                                    5 1s   -0.43603     5 1s    0.97697     6 1s   -0.49302     6 1s    0.95748
   25.1    -0.00000     1.31357     1 1s   -1.53896     1 1s    4.98176     1 2pz   0.28010     1 2pz  -1.69980     2 1s    1.53896
                                    2 1s   -4.98176     2 2pz   0.28010     2 2pz  -1.69980     3 1s   -0.25615     4 1s   -0.63008
                                    5 1s    0.25615     6 1s    0.63008
   26.1    -0.00000     1.47018     1 1s    0.48215     1 1s   -3.01537     1 2py   2.42105     1 2pz   1.85444     2 1s   -0.48215
                                    2 1s    3.01537     2 2py  -2.42105     2 2pz   1.85444     3 1s   -0.63975     3 1s   -0.74989
                                    4 1s    0.70108     4 1s    0.57164     5 1s    0.63975     5 1s    0.74989     6 1s   -0.70108
                                    6 1s   -0.57164
   27.1    -0.00000     1.71206     1 3d1+  0.61805     2 3d1+ -0.61805
   28.1    -0.00000     1.80970     1 3d2-  0.68047     2 3d2-  0.68047
   29.1    -0.00000     2.10717     1 3d2-  0.73611     2 3d2- -0.73611
   30.1    -0.00000     2.18579     1 1s   -0.51609     1 2pz  -0.29070     1 3d2+  0.66176     1 3d1- -0.27181     2 1s   -0.51609
                                    2 2pz   0.29070     2 3d2+  0.66176     2 3d1-  0.27181     3 1s    0.51818     4 1s    0.25093
                                    5 1s    0.51818     6 1s    0.25093
   31.1    -0.00000     2.23351     1 1s    0.34133     1 1s   -0.25292     1 2pz   0.25275     1 3d0  -0.30801     1 3d2+  0.26046
                                    1 3d1-  0.54864     2 1s    0.34133     2 1s   -0.25292     2 2pz  -0.25275     2 3d0  -0.30801
                                    2 3d2+  0.26046     2 3d1- -0.54864     3 1s   -0.33681     4 1s    0.43616     5 1s   -0.33681
                                    6 1s    0.43616
   32.1    -0.00000     2.44063     1 1s   -0.41426     1 2pz   0.26930     1 2pz  -0.33294     1 3d0   0.63559     1 3d1-  0.29232
                                    2 1s   -0.41426     2 2pz  -0.26930     2 2pz   0.33294     2 3d0   0.63559     2 3d1- -0.29232
                                    4 1s    0.40032     6 1s    0.40032
   33.1    -0.00000     2.60970     1 1s    0.32217     1 1s   -1.76430     1 2py   0.69045     1 2pz   0.64506     1 3d2+  0.79194
                                    2 1s   -0.32217     2 1s    1.76430     2 2py  -0.69045     2 2pz   0.64506     2 3d2+ -0.79194
                                    3 1s   -0.26157     4 1s    0.60739     5 1s    0.26157     6 1s   -0.60739
   34.1    -0.00000     2.68378     1 2px  -0.26552     1 3d1+  0.90300     2 2px   0.26552     2 3d1+  0.90300
   35.1    -0.00000     2.95968     1 1s   -1.46503     1 2pz   0.46832     1 2py   0.32098     1 2pz   1.01394     1 3d0  -0.59757
                                    1 3d1-  0.79622     2 1s    1.46503     2 2pz   0.46832     2 2py  -0.32098     2 2pz   1.01394
                                    2 3d0   0.59757     2 3d1-  0.79622     3 1s   -0.39265     5 1s    0.39265
   36.1    -0.00000     3.10404     1 1s    0.27881     1 1s    1.44732     1 2pz  -0.62492     1 2pz  -0.74274     1 3d0   0.94731
                                    1 3d1-  0.53747     2 1s   -0.27881     2 1s   -1.44732     2 2pz  -0.62492     2 2pz  -0.74274
                                    2 3d0  -0.94731     2 3d1-  0.53747     3 1s   -0.35710     5 1s    0.35710


 EXTRA SYMMETRY OF MOS IN SYMMETRY 1:   1 1 1 1 1 1 1 2 2 1   1 1 1 1 1 2 1 2 1 1   1 1 1 1 1 1 2 2 2 1   1 1 1 2 1 1

 Natural orbital dump (state averaged) at molpro section  2140.2    (Orbital set 2)



 **********************************************************************************************************************************
 DATASETS  * FILE   NREC   LENGTH (MB)   RECORD NAMES
              1      20       31.36       500      610      700      900      950      970     1000      129      960     1100   
                                          VAR    BASINP    GEOM    SYMINP    ZMAT    AOBASIS   BASIS     P2S    ABASIS      S 
                                         1400     1410     1200     1210     1080     1600     1650     1300     1700     1380   
                                           T        V       H0       H01     AOSYM     SMH    MOLCAS    ERIS     OPER     JKOP   

              2       5        5.42       700     1000      520     2100     2140   
                                         GEOM     BASIS   MCVARS     RHF     MCSCF   

 PROGRAMS   *        TOTAL     MULTI    HF-SCF       INT
 CPU TIMES  *         0.60      0.16      0.10      0.25
 REAL TIME  *         0.88 SEC
 DISK USED  *        38.55 MB
 **********************************************************************************************************************************
 Molecular orbitals read from record     2140.2  Type=MCSCF/NATURAL (state averaged)
 Occupation numbers read from record     2140.2  Type=MCSCF/NATURAL (state averaged)
 Orbital energies read from record       2140.2  Type=MCSCF/NATURAL (state averaged)
 Redundancy group numbers read from rec  2140.2  Type=MCSCF/NATURAL (state averaged)

 MULTI/6-31G* energy=    -77.475920168434

           MULTI          HF-SCF
    -77.47592017    -78.02236191
 **********************************************************************************************************************************
 Molpro calculation terminated
