
 Primary working directories    : /scratch.local/johan406.molpro_temp/molpro.Q4PgTV9rty
 Secondary working directories  : /scratch.local/johan406.molpro_temp/molpro.Q4PgTV9rty
 Wavefunction directory         : /home/goodpast/johan406/wfu/
 Main file repository           : /scratch.local/johan406.molpro_temp/molpro.Q4PgTV9rty/

 id        : roweumn

 Nodes     nprocs
 cn0117       1

 Using customized tuning parameters: mindgm=1; mindgv=20; mindgc=4; mindgr=1; noblas=0; minvec=7
 default implementation of scratch files=df  


 Variables initialized (934), CPU time= 0.00 sec
                                                                                 !leave this line blank
 
 gprint, orbitals=30
 memory, 125., m
 symmetry, nosym
 nelect=16
 basis=6-31g*
 
 geometry={
 C -0.0182 0.0 0.6691
 C -0.0182 0.0 -0.6691
 H 0.114 0.9149 1.2348
 H 0.114 -0.9149 1.2348
 H 0.114 0.9149 -1.2348
 H 0.114 -0.9149 -1.2348
 }
 
 hf
 {multi,
 closed 7
 occ 9
 wf,spin=0;STATE,3
 }
 
 Commands  initialized (763), CPU time= 0.01 sec, 617 directives.
 Default parameters read. Elapsed time= 0.09 sec

 Checking input...
 Passed
1


                                         ***  PROGRAM SYSTEM MOLPRO  ***
                                       Copyright, TTI GmbH Stuttgart, 2015
                                    Version 2019.2 linked Oct 25 2019 22:50:27


 **********************************************************************************************************************************
 LABEL *                                                                                 
  64 bit serial version                                                                  DATE: 26-Jan-23          TIME: 19:47:11  
 **********************************************************************************************************************************

 SHA1:             8dbd9ae1082e4ce945b0f27595c9eb2d4aa09004
 **********************************************************************************************************************************


 Variable memory set to  125000000 words,  buffer space 

 SETTING NELECT         =        16.00000000                                  
 SETTING BASIS          =    6-31G*
 ZSYMEL=NOSYM


Geometry recognized as XYZ



 Recomputing integrals since basis changed


 Using spherical harmonics

 Library entry C      S 6-31G                selected for orbital group  1
 Library entry C      P 6-31G                selected for orbital group  1
 Library entry C      D 6-31G*               selected for orbital group  1
 Library entry H      S 6-31G                selected for orbital group  2


 PROGRAM * SEWARD (Integral evaluation for generally contracted gaussian basis sets)     Author: Roland Lindh, 1990

 Geometry written to block  1 of record 700


 Point group  C1  



 ATOMIC COORDINATES

 NR  ATOM    CHARGE       X              Y              Z

   1  C       6.00   -0.034393015    0.000000000    1.264415750
   2  C       6.00   -0.034393015    0.000000000   -1.264415750
   3  H       1.00    0.215428778    1.728910431    2.333433819
   4  H       1.00    0.215428778   -1.728910431    2.333433819
   5  H       1.00    0.215428778    1.728910431   -2.333433819
   6  H       1.00    0.215428778   -1.728910431   -2.333433819

 Bond lengths in Bohr (Angstrom)

 1-2  2.528831500  1-3  2.048009238  1-4  2.048009238  2-5  2.048009238  2-6  2.048009238
     ( 1.338200000)     ( 1.083759817)     ( 1.083759817)     ( 1.083759817)     ( 1.083759817)

 Bond angles

  1-2-5  121.46510111   1-2-6  121.46510111   2-1-3  121.46510111   2-1-4  121.46510111

  3-1-4  115.17066721   5-2-6  115.17066721

 NUCLEAR CHARGE:                   16
 NUMBER OF PRIMITIVE AOS:          72
 NUMBER OF SYMMETRY AOS:           70
 NUMBER OF CONTRACTIONS:           36   (   36A   )
 NUMBER OF CORE ORBITALS:           2   (    2A   )
 NUMBER OF VALENCE ORBITALS:       12   (   12A   )


 NUCLEAR REPULSION ENERGY   33.30654690


 Eigenvalues of metric

         1 0.829E-02 0.192E-01 0.380E-01 0.458E-01 0.739E-01 0.192E+00 0.212E+00 0.226E+00


 Contracted 2-electron integrals neglected if value below      1.0D-11
 AO integral compression algorithm  1   Integral accuracy      1.0D-11

     1.049 MB (compressed) written to integral file ( 50.9%)


 NUMBER OF SORTED TWO-ELECTRON INTEGRALS:     222111.     BUFFER LENGTH:  32768
 NUMBER OF SEGMENTS:   1  SEGMENT LENGTH:     222111      RECORD LENGTH: 524288

 Memory used in sort:       0.78 MW

 SORT1 READ      284735. AND WROTE      157595. INTEGRALS IN      1 RECORDS. CPU TIME:     0.01 SEC, REAL TIME:     0.00 SEC
 SORT2 READ      157595. AND WROTE      222111. INTEGRALS IN      4 RECORDS. CPU TIME:     0.02 SEC, REAL TIME:     0.02 SEC

 FILE SIZES:   FILE 1:    31.1 MBYTE,  FILE 4:     4.2 MBYTE,   TOTAL:     35.4 MBYTE

 OPERATOR DM      FOR CENTER  0  COORDINATES:    0.000000    0.000000    0.000000


 **********************************************************************************************************************************
 DATASETS  * FILE   NREC   LENGTH (MB)   RECORD NAMES
              1      19       30.88       500      610      700      900      950      970     1000      129      960     1100   
                                          VAR    BASINP    GEOM    SYMINP    ZMAT    AOBASIS   BASIS     P2S    ABASIS      S 
                                         1400     1410     1200     1210     1080     1600     1650     1300     1700   
                                           T        V       H0       H01     AOSYM     SMH    MOLCAS    ERIS     OPER   

 PROGRAMS   *        TOTAL       INT
 CPU TIMES  *         0.35      0.25
 REAL TIME  *         0.57 SEC
 DISK USED  *        35.71 MB
 **********************************************************************************************************************************


 PROGRAM * RHF-SCF (CLOSED SHELL)       Authors: W. Meyer, H.-J. Werner


 NUMBER OF ELECTRONS:       8+    8-    SPACE SYMMETRY=1    SPIN SYMMETRY: Singlet 
 CONVERGENCE THRESHOLDS:    1.00E-05 (Density)    1.00E-07 (Energy)
 MAX. NUMBER OF ITERATIONS:       60
 INTERPOLATION TYPE:            DIIS
 INTERPOLATION STEPS:              2 (START)      1 (STEP)
 LEVEL SHIFTS:                  0.00 (CLOSED)  0.00 (OPEN) 



 Orbital guess generated from atomic densities. Full valence occupancy:    8

 Molecular orbital dump at record        2100.2

 Initial occupancy:   8

 ITERATION    DDIFF          GRAD             ENERGY        2-EL.EN.            DIPOLE MOMENTS         DIIS   ORB.
    1      0.000D+00      0.000D+00       -78.00175133    118.533657    0.16503    0.00000   -0.00000    0    start
    2      0.000D+00      0.854D-02       -78.02347649    116.694359    0.13553    0.00000   -0.00000    1    diag
    3      0.815D-02      0.292D-02       -78.02561400    117.328732    0.14930    0.00000   -0.00000    2    diag
    4      0.264D-02      0.715D-03       -78.02582669    117.228581    0.14778   -0.00000    0.00000    3    diag
    5      0.107D-02      0.700D-04       -78.02582896    117.231595    0.14810   -0.00000   -0.00000    4    diag
    6      0.148D-03      0.893D-05       -78.02582900    117.231139    0.14805    0.00000    0.00000    5    diag
    7      0.171D-04      0.139D-05       -78.02582900    117.231145    0.14805    0.00000   -0.00000    6    diag
    8      0.265D-05      0.219D-06       -78.02582900    117.231139    0.14805    0.00000    0.00000    0    orth

 Final occupancy:   8

 !RHF STATE  1.1 Energy               -78.025829003429
 Nuclear energy                        33.30654690
 One-electron energy                 -169.94794542
 Two-electron energy                   58.61556952
 Virial quotient                       -1.00063247
 !RHF STATE  1.1 Dipole moment          0.14804565     0.00000000     0.00000000
 Dipole moment /Debye                   0.37626986     0.00000000     0.00000000

 ELECTRON ORBITALS
 =================

  Orbital  Occupation    Energy     Coefficients
    1.1     2.00000   -11.22762     1 1s    0.70419     2 1s    0.70419
    2.1     2.00000   -11.22603     1 1s    0.70455     2 1s   -0.70455
    3.1     2.00000    -1.02684     1 1s    0.30181     2 1s    0.30181
    4.1     2.00000    -0.78958     1 1s    0.24540
    5.1     2.00000    -0.63451     1 2py   0.32092     2 2py   0.32092
    6.1     2.00000    -0.58325     1 2pz   0.40372     2 2pz  -0.40372
    7.1     2.00000    -0.50069     1 2py   0.30397     2 2py  -0.30397
    8.1     2.00000    -0.36988     1 2px   0.37009     1 2px   0.30620     2 2px   0.37009     2 2px   0.30620
    9.1     0.00000     0.17233     1 2px   0.33706     1 2px   0.70476     2 2px  -0.33706     2 2px  -0.70476
   10.1     0.00000     0.26498     1 1s   -1.47600     1 2pz  -0.63808     2 1s   -1.47600     2 2pz   0.63808     3 1s    1.03290
                                    4 1s    1.03290     5 1s    1.03290     6 1s    1.03290
   11.1     0.00000     0.29003     1 2py  -0.25141     1 2py  -0.79449     2 2py  -0.25141     2 2py  -0.79449     3 1s    1.07921
                                    4 1s   -1.07921     5 1s    1.07921     6 1s   -1.07921
   12.1     0.00000     0.30891     1 1s    1.94363     1 2px   0.25363     2 1s   -1.94363     2 2px  -0.25363     3 1s   -1.06702
                                    4 1s   -1.06702     5 1s    1.06702     6 1s    1.06702
   13.1     0.00000     0.39308     1 2py  -0.25346     1 2py  -1.82072     2 2py   0.25346     2 2py   1.82072     3 1s    1.58744
                                    4 1s   -1.58744     5 1s   -1.58744     6 1s    1.58744
   14.1     0.00000     0.49221     1 1s   -2.99829     1 2pz   2.94726     2 1s    2.99829     2 2pz   2.94726     3 1s   -0.59142
                                    4 1s   -0.59142     5 1s    0.59142     6 1s    0.59142
   15.1     0.00000     0.66926     1 2pz  -0.55717     1 2pz   1.03322     2 2pz   0.55717     2 2pz  -1.03322
   16.1     0.00000     0.76170     1 2py  -0.40624     1 2py   0.75512     2 2py  -0.40624     2 2py   0.75512     3 1s   -0.38504
                                    4 1s    0.38504     5 1s   -0.38504     6 1s    0.38504
   17.1     0.00000     0.77666     1 2px  -0.73735     1 2px   0.63904     2 2px  -0.73735     2 2px   0.63904
   18.1     0.00000     0.87090     1 1s   -0.87780     1 1s    1.45676     1 2pz   0.34843     2 1s   -0.87780     2 1s    1.45676
                                    2 2pz  -0.34843     3 1s   -0.40263     4 1s   -0.40263     5 1s   -0.40263     6 1s   -0.40263
   19.1     0.00000     0.88942     1 2px  -0.81333     1 2px   1.08776     2 2px   0.81333     2 2px  -1.08776
   20.1     0.00000     0.96497     1 1s   -0.76445     1 2pz   0.61738     1 2pz  -0.53832     2 1s    0.76445     2 2pz   0.61738
                                    2 2pz  -0.53832     3 1s    0.38014     4 1s    0.38014     5 1s   -0.38014     6 1s   -0.38014
   21.1     0.00000     1.10608     1 2py  -0.68238     1 2py   1.07654     2 2py  -0.68238     2 2py   1.07654     3 1s    0.38474
                                    3 1s   -1.04447     4 1s   -0.38474     4 1s    1.04447     5 1s    0.38474     5 1s   -1.04447
                                    6 1s   -0.38474     6 1s    1.04447
   22.1     0.00000     1.14320     1 2py   0.91390     1 2py  -2.97973     2 2py  -0.91390     2 2py   2.97973     3 1s    1.47036
                                    4 1s   -1.47036     5 1s   -1.47036     6 1s    1.47036
   23.1     0.00000     1.20884     1 1s    1.03880     1 1s   -1.72995     1 2pz   0.36150     1 2pz  -0.49492     2 1s    1.03880
                                    2 1s   -1.72995     2 2pz  -0.36150     2 2pz   0.49492     3 1s   -0.43558     3 1s    0.86684
                                    4 1s   -0.43558     4 1s    0.86684     5 1s   -0.43558     5 1s    0.86684     6 1s   -0.43558
                                    6 1s    0.86684
   24.1     0.00000     1.21740     1 1s   -0.55735     1 1s    0.61061     1 2pz  -0.61012     1 2pz   1.17144     2 1s    0.55735
                                    2 1s   -0.61061     2 2pz  -0.61012     2 2pz   1.17144     3 1s    0.46945     3 1s   -0.97069
                                    4 1s    0.46945     4 1s   -0.97069     5 1s   -0.46945     5 1s    0.97069     6 1s   -0.46945
                                    6 1s    0.97069
   25.1     0.00000     1.34276     1 1s   -1.58564     1 1s    5.39633     1 2pz   0.26420     1 2pz  -1.92681     2 1s    1.58564
                                    2 1s   -5.39633     2 2pz   0.26420     2 2pz  -1.92681     3 1s   -0.31787     4 1s   -0.31787
                                    5 1s    0.31787     6 1s    0.31787
   26.1     0.00000     1.39643     1 2py   1.99922     2 2py  -1.99922     3 1s   -0.67938     3 1s   -0.39144     4 1s    0.67938
                                    4 1s    0.39144     5 1s    0.67938     5 1s    0.39144     6 1s   -0.67938     6 1s   -0.39144
   27.1     0.00000     1.73980     1 3d1+  0.61047     2 3d1+ -0.61047
   28.1     0.00000     1.81894     1 3d2-  0.66123     2 3d2-  0.66123
   29.1     0.00000     2.19065     1 2py   0.80040     1 3d2-  0.72160     2 2py  -0.80040     2 3d2- -0.72160     3 1s   -0.27886
                                    4 1s    0.27886     5 1s    0.27886     6 1s   -0.27886
   30.1     0.00000     2.19179     1 1s   -0.60890     1 3d2+  0.70193     2 1s   -0.60890     2 3d2+  0.70193     3 1s    0.36736
                                    4 1s    0.36736     5 1s    0.36736     6 1s    0.36736
   31.1     0.00000     2.33068     1 2py   0.26298     1 3d1-  0.67110     2 2py   0.26298     2 3d1- -0.67110     3 1s   -0.51105
                                    4 1s    0.51105     5 1s   -0.51105     6 1s    0.51105
   32.1     0.00000     2.40885     1 1s   -0.50663     1 2pz   0.28433     1 2pz  -0.44472     1 3d0   0.69068     2 1s   -0.50663
                                    2 2pz  -0.28433     2 2pz   0.44472     2 3d0   0.69068
   33.1     0.00000     2.57920     1 1s    0.28515     1 1s   -1.28143     1 3d1+  0.30440     1 3d2+  0.74089     2 1s   -0.28515
                                    2 1s    1.28143     2 3d1+  0.30440     2 3d2+ -0.74089     3 1s    0.39085     4 1s    0.39085
                                    5 1s   -0.39085     6 1s   -0.39085
   34.1     0.00000     2.73062     1 1s    0.55836     1 3d1+  0.85130     1 3d2+ -0.28087     2 1s   -0.55836     2 3d1+  0.85130
                                    2 3d2+  0.28087
   35.1     0.00000     3.04838     1 2py   0.49018     1 3d1-  0.95408     2 2py  -0.49018     2 3d1-  0.95408     3 1s   -0.46705
                                    4 1s    0.46705     5 1s    0.46705     6 1s   -0.46705
   36.1     0.00000     3.06236     1 1s    0.31913     1 1s    2.00784     1 2pz  -0.79706     1 2pz  -1.17302     1 3d0   1.11197
                                    2 1s   -0.31913     2 1s   -2.00784     2 2pz  -0.79706     2 2pz  -1.17302     2 3d0  -1.11197


 HOMO      8.1    -0.369876 =     -10.0648eV
 LUMO      9.1     0.172329 =       4.6893eV
 LUMO-HOMO         0.542205 =      14.7541eV


 **********************************************************************************************************************************
 DATASETS  * FILE   NREC   LENGTH (MB)   RECORD NAMES
              1      19       30.88       500      610      700      900      950      970     1000      129      960     1100   
                                          VAR    BASINP    GEOM    SYMINP    ZMAT    AOBASIS   BASIS     P2S    ABASIS      S 
                                         1400     1410     1200     1210     1080     1600     1650     1300     1700   
                                           T        V       H0       H01     AOSYM     SMH    MOLCAS    ERIS     OPER   

              2       4        2.86       700     1000      520     2100   
                                         GEOM     BASIS   MCVARS     RHF  

 PROGRAMS   *        TOTAL    HF-SCF       INT
 CPU TIMES  *         0.45      0.10      0.25
 REAL TIME  *         0.70 SEC
 DISK USED  *        35.71 MB
 **********************************************************************************************************************************


 PROGRAM * MULTI (Direct Multiconfiguration SCF)       Authors: P.J. Knowles, H.-J. Werner (1984)


 Number of closed-shell orbitals:   7 (   7 )
 Number of active  orbitals:        2 (   2 )
 Number of external orbitals:      27 (  27 )

 State symmetry 1

 Number of electrons:     2    Spin symmetry=Singlet   Space symmetry=1
 Number of states:        3
 Number of CSFs:          3   (4 determinants, 4 intermediate states)

 Molecular orbitals read from record     2100.2  Type=RHF/CANONICAL (state 1.1)

 Wavefunction dump at record             2140.2

 Convergence thresholds  0.10E-01 (gradient)  0.10E-05 (energy)  0.10E-02 (step length)

 Weight factors for state symmetry  1:    0.33333   0.33333   0.33333

 Number of orbital rotations:      257   (    14 Core/Active    189 Core/Virtual   0 Active/Active     54 Active/Virtual)
 Total number of variables:        269

 Micro-Iterations solved by the two-step solver

 ITER. MIC  NCI  NEG     ENERGY(VAR)     ENERGY(PROJ)   ENERGY CHANGE     GRAD(0)  GRAD(ORB)   GRAD(CI)     STEP       TIME

   1    6    5    0     -77.72876124     -77.73606966   -0.00730842    0.13635433 0.00252405 0.00000000  0.97D-01      0.10
   2    5    5    0     -77.73581424     -77.73583536   -0.00002112    0.00740560 0.00000426 0.00000000  0.42D-02      0.17
   3    3    4    0     -77.73583538     -77.73583538   -0.00000000    0.00001225 0.00000000 0.00000000  0.14D-04      0.23

 ** WVFN ****  CONVERGENCE REACHED, FINAL GRADIENT:  0.16D-09



 Results for state 1.1
 =====================

 !MCSCF STATE  1.1 Energy             -78.043042289412
 Nuclear energy                        33.30654690
 Kinetic energy                        78.05330267
 One electron energy                 -170.08477401
 Two electron energy                   58.73518482
 Virial ratio                           1.99986855

 !MCSCF STATE  1.1 Dipole moment        0.14807018    -0.00000000    -0.00000000
 Dipole moment /Debye                   0.37633222    -0.00000000    -0.00000000

 Results for state 2.1
 =====================

 !MCSCF STATE  2.1 Energy             -77.673997938382
 Nuclear energy                        33.30654690
 Kinetic energy                        78.23412876
 One electron energy                 -169.50631836
 Two electron energy                   58.52577352
 Virial ratio                           1.99284033

 !MCSCF STATE  2.1 Dipole moment        0.21562007    -0.00000000    -0.00000000
 Dipole moment /Debye                   0.54801565    -0.00000000    -0.00000000

 Results for state 3.1
 =====================

 !MCSCF STATE  3.1 Energy             -77.490465910688
 Nuclear energy                        33.30654690
 Kinetic energy                        78.41495484
 One electron energy                 -168.92786271
 Two electron energy                   58.13084990
 Virial ratio                           1.98821030

 !MCSCF STATE  3.1 Dipole moment        0.28316995    -0.00000000     0.00000000
 Dipole moment /Debye                   0.71969908    -0.00000000     0.00000000

 State-averaged charge density matrix saved on record  2140.2 (density set 1)

 !MCSCF expec         <1.1|DMX|1.1>     0.148070183976 au =     0.376332218189 Debye
 !MCSCF expec         <2.1|DMX|2.1>     0.215620066777 au =     0.548015649318 Debye
 !MCSCF trans         <3.1|DMX|1.1>    -0.028589658423 au =    -0.072662904054 Debye
 !MCSCF expec         <3.1|DMX|3.1>     0.283169949578 au =     0.719699080448 Debye

 !MCSCF trans         <2.1|DMZ|1.1>    -1.487198843633 au =    -3.779834837001 Debye
 !MCSCF trans         <3.1|DMZ|2.1>    -2.244354563756 au =    -5.704206672152 Debye


 NATURAL ORBITALS (state averaged)
 =================================

  Orbital  Occupation    Energy     Coefficients
    1.1     2.00000   -11.24365     1 1s    0.70421     2 1s    0.70421
    2.1     2.00000   -11.24233     1 1s    0.70451     2 1s   -0.70451
    3.1     2.00000    -1.04214     1 1s    0.30992     2 1s    0.30992
    4.1     2.00000    -0.79780     1 1s    0.29238     2 1s   -0.29238
    5.1     2.00000    -0.64772     1 2py   0.32673     2 2py   0.32673
    6.1     2.00000    -0.59818     1 2pz   0.40222     2 2pz  -0.40222
    7.1     2.00000    -0.50780     1 2py   0.31063     2 2py  -0.31063
    8.1     1.00000     0.02844     1 2px   0.37704     1 2px   0.66855     2 2px  -0.37704     2 2px  -0.66855
    9.1     1.00000    -0.22600     1 2px   0.35239     1 2px   0.31733     2 2px   0.35239     2 2px   0.31733
   10.1    -0.00000     0.26163     1 1s   -1.47200     1 2pz  -0.64344     2 1s   -1.47200     2 2pz   0.64344     3 1s    1.03178
                                    4 1s    1.03178     5 1s    1.03178     6 1s    1.03178
   11.1    -0.00000     0.28140     1 2py  -0.25059     1 2py  -0.78402     2 2py  -0.25059     2 2py  -0.78402     3 1s    1.07062
                                    4 1s   -1.07062     5 1s    1.07062     6 1s   -1.07062
   12.1    -0.00000     0.30491     1 1s    1.96300     2 1s   -1.96300     3 1s   -1.06437     4 1s   -1.06437     5 1s    1.06437
                                    6 1s    1.06437
   13.1    -0.00000     0.38823     1 2py  -0.25742     1 2py  -1.80579     2 2py   0.25742     2 2py   1.80579     3 1s    1.58030
                                    4 1s   -1.58030     5 1s   -1.58030     6 1s    1.58030
   14.1    -0.00000     0.48868     1 1s   -2.97311     1 2pz   2.92989     2 1s    2.97311     2 2pz   2.92989     3 1s   -0.60018
                                    4 1s   -0.60018     5 1s    0.60018     6 1s    0.60018
   15.1    -0.00000     0.65814     1 1s    0.26328     1 2pz  -0.54867     1 2pz   1.01120     2 1s    0.26328     2 2pz   0.54867
                                    2 2pz  -1.01120
   16.1    -0.00000     0.75157     1 2py  -0.41626     1 2py   0.76271     2 2py  -0.41626     2 2py   0.76271     3 1s   -0.38056
                                    4 1s    0.38056     5 1s   -0.38056     6 1s    0.38056
   17.1    -0.00000     0.77119     1 2px  -0.74557     1 2px   0.63936     2 2px  -0.74557     2 2px   0.63936
   18.1    -0.00000     0.86689     1 1s   -0.87562     1 1s    1.48035     1 2pz   0.39151     2 1s   -0.87562     2 1s    1.48035
                                    2 2pz  -0.39151     3 1s   -0.40352     4 1s   -0.40352     5 1s   -0.40352     6 1s   -0.40352
   19.1    -0.00000     0.87222     1 2px  -0.79797     1 2px   1.12361     2 2px   0.79797     2 2px  -1.12361
   20.1    -0.00000     0.94607     1 1s   -0.60510     1 2pz   0.62173     1 2pz  -0.61664     2 1s    0.60510     2 2pz   0.62173
                                    2 2pz  -0.61664     3 1s    0.37977     4 1s    0.37977     5 1s   -0.37977     6 1s   -0.37977
   21.1    -0.00000     1.09084     1 2py  -0.67099     1 2py   1.07853     2 2py  -0.67099     2 2py   1.07853     3 1s    0.38546
                                    3 1s   -1.05348     4 1s   -0.38546     4 1s    1.05348     5 1s    0.38546     5 1s   -1.05348
                                    6 1s   -0.38546     6 1s    1.05348
   22.1    -0.00000     1.13105     1 2py   0.91115     1 2py  -2.97847     2 2py  -0.91115     2 2py   2.97847     3 1s    1.47724
                                    4 1s   -1.47724     5 1s   -1.47724     6 1s    1.47724
   23.1    -0.00000     1.20465     1 1s    1.03405     1 1s   -1.72632     1 2pz   0.36575     1 2pz  -0.50049     2 1s    1.03405
                                    2 1s   -1.72632     2 2pz  -0.36575     2 2pz   0.50049     3 1s   -0.43620     3 1s    0.86668
                                    4 1s   -0.43620     4 1s    0.86668     5 1s   -0.43620     5 1s    0.86668     6 1s   -0.43620
                                    6 1s    0.86668
   24.1    -0.00000     1.21430     1 1s   -0.51130     1 1s    0.45841     1 2pz  -0.62262     1 2pz   1.22971     2 1s    0.51130
                                    2 1s   -0.45841     2 2pz  -0.62262     2 2pz   1.22971     3 1s    0.47151     3 1s   -0.96139
                                    4 1s    0.47151     4 1s   -0.96139     5 1s   -0.47151     5 1s    0.96139     6 1s   -0.47151
                                    6 1s    0.96139
   25.1    -0.00000     1.32288     1 1s   -1.60298     1 1s    5.42454     1 2pz  -1.88897     2 1s    1.60298     2 1s   -5.42454
                                    2 2pz  -1.88897     3 1s   -0.34865     4 1s   -0.34865     5 1s    0.34865     6 1s    0.34865
   26.1    -0.00000     1.38823     1 2py   2.00885     2 2py  -2.00885     3 1s   -0.67773     3 1s   -0.39535     4 1s    0.67773
                                    4 1s    0.39535     5 1s    0.67773     5 1s    0.39535     6 1s   -0.67773     6 1s   -0.39535
   27.1    -0.00000     1.71486     1 3d1+  0.61051     2 3d1+ -0.61051
   28.1    -0.00000     1.80500     1 3d2-  0.66126     2 3d2-  0.66126
   29.1    -0.00000     2.16775     1 2py   0.81126     1 3d2-  0.72123     2 2py  -0.81126     2 3d2- -0.72123     3 1s   -0.28322
                                    4 1s    0.28322     5 1s    0.28322     6 1s   -0.28322
   30.1    -0.00000     2.17649     1 1s   -0.60469     1 3d2+  0.70188     2 1s   -0.60469     2 3d2+  0.70188     3 1s    0.36932
                                    4 1s    0.36932     5 1s    0.36932     6 1s    0.36932
   31.1    -0.00000     2.31447     1 2py   0.26890     1 3d1-  0.66953     2 2py   0.26890     2 3d1- -0.66953     3 1s   -0.51418
                                    4 1s    0.51418     5 1s   -0.51418     6 1s    0.51418
   32.1    -0.00000     2.38856     1 1s   -0.50500     1 2pz   0.29009     1 2pz  -0.44733     1 3d0   0.69055     2 1s   -0.50500
                                    2 2pz  -0.29009     2 2pz   0.44733     2 3d0   0.69055
   33.1    -0.00000     2.56068     1 1s    0.28667     1 1s   -1.29346     1 3d1+  0.30361     1 3d2+  0.74047     2 1s   -0.28667
                                    2 1s    1.29346     2 3d1+  0.30361     2 3d2+ -0.74047     3 1s    0.39373     4 1s    0.39373
                                    5 1s   -0.39373     6 1s   -0.39373
   34.1    -0.00000     2.70761     1 1s    0.54365     1 3d1+  0.85199     1 3d2+ -0.27979     2 1s   -0.54365     2 3d1+  0.85199
                                    2 3d2+  0.27979
   35.1    -0.00000     3.03570     1 2py   0.49085     1 3d1-  0.95368     2 2py  -0.49085     2 3d1-  0.95368     3 1s   -0.46925
                                    4 1s    0.46925     5 1s    0.46925     6 1s   -0.46925
   36.1    -0.00000     3.04384     1 1s    0.31159     1 1s    2.03473     1 2pz  -0.78970     1 2pz  -1.18681     1 3d0   1.11363
                                    2 1s   -0.31159     2 1s   -2.03473     2 2pz  -0.78970     2 2pz  -1.18681     2 3d0  -1.11363


 Natural orbital dump (state averaged) at molpro section  2140.2    (Orbital set 2)



 **********************************************************************************************************************************
 DATASETS  * FILE   NREC   LENGTH (MB)   RECORD NAMES
              1      20       31.61       500      610      700      900      950      970     1000      129      960     1100   
                                          VAR    BASINP    GEOM    SYMINP    ZMAT    AOBASIS   BASIS     P2S    ABASIS      S 
                                         1400     1410     1200     1210     1080     1600     1650     1300     1700     1380   
                                           T        V       H0       H01     AOSYM     SMH    MOLCAS    ERIS     OPER     JKOP   

              2       5        5.42       700     1000      520     2100     2140   
                                         GEOM     BASIS   MCVARS     RHF     MCSCF   

 PROGRAMS   *        TOTAL     MULTI    HF-SCF       INT
 CPU TIMES  *         0.73      0.27      0.10      0.25
 REAL TIME  *         1.01 SEC
 DISK USED  *        38.79 MB
 **********************************************************************************************************************************
 Molecular orbitals read from record     2140.2  Type=MCSCF/NATURAL (state averaged)
 Occupation numbers read from record     2140.2  Type=MCSCF/NATURAL (state averaged)
 Orbital energies read from record       2140.2  Type=MCSCF/NATURAL (state averaged)
 Redundancy group numbers read from rec  2140.2  Type=MCSCF/NATURAL (state averaged)

 MULTI/6-31G* energy=    -77.490465910688

           MULTI          HF-SCF
    -77.49046591    -78.02582900
 **********************************************************************************************************************************
 Molpro calculation terminated
