
 Primary working directories    : /scratch.local/johan406.molpro_temp/molpro.nt0SBOKnvL
 Secondary working directories  : /scratch.local/johan406.molpro_temp/molpro.nt0SBOKnvL
 Wavefunction directory         : /home/goodpast/johan406/wfu/
 Main file repository           : /scratch.local/johan406.molpro_temp/molpro.nt0SBOKnvL/

 id        : roweumn

 Nodes     nprocs
 cn0117       1

 Using customized tuning parameters: mindgm=1; mindgv=20; mindgc=4; mindgr=1; noblas=0; minvec=7
 default implementation of scratch files=df  


 Variables initialized (934), CPU time= 0.00 sec
                                                                                 !leave this line blank
 
 gprint, orbitals=30
 memory, 125., m
 symmetry, nosym
 nelect=16
 basis=6-31g*
 
 geometry={
 C -0.0259 0.0 0.6691
 C -0.0259 0.0 -0.6691
 H 0.162 0.9149 1.2348
 H 0.162 -0.9149 1.2348
 H 0.162 0.9149 -1.2348
 H 0.162 -0.9149 -1.2348
 }
 
 hf
 {multi,
 closed 7
 occ 9
 wf,spin=0;STATE,3
 }
 
 Commands  initialized (763), CPU time= 0.00 sec, 617 directives.
 Default parameters read. Elapsed time= 0.08 sec

 Checking input...
 Passed
1


                                         ***  PROGRAM SYSTEM MOLPRO  ***
                                       Copyright, TTI GmbH Stuttgart, 2015
                                    Version 2019.2 linked Oct 25 2019 22:50:27


 **********************************************************************************************************************************
 LABEL *                                                                                 
  64 bit serial version                                                                  DATE: 26-Jan-23          TIME: 19:49:36  
 **********************************************************************************************************************************

 SHA1:             8dbd9ae1082e4ce945b0f27595c9eb2d4aa09004
 **********************************************************************************************************************************


 Variable memory set to  125000000 words,  buffer space 

 SETTING NELECT         =        16.00000000                                  
 SETTING BASIS          =    6-31G*
 ZSYMEL=NOSYM


Geometry recognized as XYZ



 Recomputing integrals since basis changed


 Using spherical harmonics

 Library entry C      S 6-31G                selected for orbital group  1
 Library entry C      P 6-31G                selected for orbital group  1
 Library entry C      D 6-31G*               selected for orbital group  1
 Library entry H      S 6-31G                selected for orbital group  2


 PROGRAM * SEWARD (Integral evaluation for generally contracted gaussian basis sets)     Author: Roland Lindh, 1990

 Geometry written to block  1 of record 700


 Point group  C1  



 ATOMIC COORDINATES

 NR  ATOM    CHARGE       X              Y              Z

   1  C       6.00   -0.048943907    0.000000000    1.264415750
   2  C       6.00   -0.048943907    0.000000000   -1.264415750
   3  H       1.00    0.306135632    1.728910431    2.333433819
   4  H       1.00    0.306135632   -1.728910431    2.333433819
   5  H       1.00    0.306135632    1.728910431   -2.333433819
   6  H       1.00    0.306135632   -1.728910431   -2.333433819

 Bond lengths in Bohr (Angstrom)

 1-2  2.528831500  1-3  2.063495188  1-4  2.063495188  2-5  2.063495188  2-6  2.063495188
     ( 1.338200000)     ( 1.091954628)     ( 1.091954628)     ( 1.091954628)     ( 1.091954628)

 Bond angles

  1-2-5  121.20233166   1-2-6  121.20233166   2-1-3  121.20233166   2-1-4  121.20233166

  3-1-4  113.82867081   5-2-6  113.82867081

 NUCLEAR CHARGE:                   16
 NUMBER OF PRIMITIVE AOS:          72
 NUMBER OF SYMMETRY AOS:           70
 NUMBER OF CONTRACTIONS:           36   (   36A   )
 NUMBER OF CORE ORBITALS:           2   (    2A   )
 NUMBER OF VALENCE ORBITALS:       12   (   12A   )


 NUCLEAR REPULSION ENERGY   33.20669428


 Eigenvalues of metric

         1 0.826E-02 0.211E-01 0.383E-01 0.456E-01 0.769E-01 0.192E+00 0.214E+00 0.227E+00


 Contracted 2-electron integrals neglected if value below      1.0D-11
 AO integral compression algorithm  1   Integral accuracy      1.0D-11

     1.049 MB (compressed) written to integral file ( 51.1%)


 NUMBER OF SORTED TWO-ELECTRON INTEGRALS:     222111.     BUFFER LENGTH:  32768
 NUMBER OF SEGMENTS:   1  SEGMENT LENGTH:     222111      RECORD LENGTH: 524288

 Memory used in sort:       0.78 MW

 SORT1 READ      284735. AND WROTE      157595. INTEGRALS IN      1 RECORDS. CPU TIME:     0.00 SEC, REAL TIME:     0.00 SEC
 SORT2 READ      157595. AND WROTE      222111. INTEGRALS IN      4 RECORDS. CPU TIME:     0.02 SEC, REAL TIME:     0.03 SEC

 FILE SIZES:   FILE 1:    31.1 MBYTE,  FILE 4:     4.2 MBYTE,   TOTAL:     35.4 MBYTE

 OPERATOR DM      FOR CENTER  0  COORDINATES:    0.000000    0.000000    0.000000


 **********************************************************************************************************************************
 DATASETS  * FILE   NREC   LENGTH (MB)   RECORD NAMES
              1      19       30.88       500      610      700      900      950      970     1000      129      960     1100   
                                          VAR    BASINP    GEOM    SYMINP    ZMAT    AOBASIS   BASIS     P2S    ABASIS      S 
                                         1400     1410     1200     1210     1080     1600     1650     1300     1700   
                                           T        V       H0       H01     AOSYM     SMH    MOLCAS    ERIS     OPER   

 PROGRAMS   *        TOTAL       INT
 CPU TIMES  *         0.35      0.26
 REAL TIME  *         0.57 SEC
 DISK USED  *        35.71 MB
 **********************************************************************************************************************************


 PROGRAM * RHF-SCF (CLOSED SHELL)       Authors: W. Meyer, H.-J. Werner


 NUMBER OF ELECTRONS:       8+    8-    SPACE SYMMETRY=1    SPIN SYMMETRY: Singlet 
 CONVERGENCE THRESHOLDS:    1.00E-05 (Density)    1.00E-07 (Energy)
 MAX. NUMBER OF ITERATIONS:       60
 INTERPOLATION TYPE:            DIIS
 INTERPOLATION STEPS:              2 (START)      1 (STEP)
 LEVEL SHIFTS:                  0.00 (CLOSED)  0.00 (OPEN) 



 Orbital guess generated from atomic densities. Full valence occupancy:    8

 Molecular orbital dump at record        2100.2

 Initial occupancy:   8

 ITERATION    DDIFF          GRAD             ENERGY        2-EL.EN.            DIPOLE MOMENTS         DIIS   ORB.
    1      0.000D+00      0.000D+00       -77.99660744    118.343850    0.23444    0.00000    0.00000    0    start
    2      0.000D+00      0.849D-02       -78.01810858    116.504343    0.19011    0.00000   -0.00000    1    diag
    3      0.809D-02      0.293D-02       -78.02025893    117.142640    0.20995   -0.00000    0.00000    2    diag
    4      0.264D-02      0.718D-03       -78.02047560    117.041005    0.20753   -0.00000    0.00000    3    diag
    5      0.107D-02      0.723D-04       -78.02047809    117.044136    0.20796   -0.00000   -0.00000    4    diag
    6      0.152D-03      0.976D-05       -78.02047813    117.043653    0.20788    0.00000   -0.00000    5    diag
    7      0.188D-04      0.160D-05       -78.02047814    117.043658    0.20789    0.00000    0.00000    6    diag
    8      0.337D-05      0.276D-06       -78.02047814    117.043653    0.20788   -0.00000    0.00000    0    orth

 Final occupancy:   8

 !RHF STATE  1.1 Energy               -78.020478135048
 Nuclear energy                        33.20669428
 One-electron energy                 -169.74899869
 Two-electron energy                   58.52182627
 Virial quotient                       -1.00115119
 !RHF STATE  1.1 Dipole moment          0.20788153    -0.00000000     0.00000000
 Dipole moment /Debye                   0.52834753    -0.00000000     0.00000000

 ELECTRON ORBITALS
 =================

  Orbital  Occupation    Energy     Coefficients
    1.1     2.00000   -11.23020     1 1s    0.70420     2 1s    0.70420
    2.1     2.00000   -11.22860     1 1s    0.70456     2 1s   -0.70456
    3.1     2.00000    -1.02678     1 1s    0.30148     2 1s    0.30148
    4.1     2.00000    -0.78691     1 1s    0.24905
    5.1     2.00000    -0.63040     1 2py   0.32009     2 2py   0.32009
    6.1     2.00000    -0.58364     1 2pz   0.40022     2 2pz  -0.40022
    7.1     2.00000    -0.49564     1 2py   0.30249     2 2py  -0.30249
    8.1     2.00000    -0.37051     1 2px   0.36698     1 2px   0.30449     2 2px   0.36698     2 2px   0.30449
    9.1     0.00000     0.16624     1 2px   0.33246     1 2px   0.67799     2 2px  -0.33246     2 2px  -0.67799
   10.1     0.00000     0.26335     1 1s   -1.45425     1 2pz  -0.62857     2 1s   -1.45425     2 2pz   0.62857     3 1s    1.02363
                                    4 1s    1.02363     5 1s    1.02363     6 1s    1.02363
   11.1     0.00000     0.28536     1 2py  -0.25088     1 2py  -0.77893     2 2py  -0.25088     2 2py  -0.77893     3 1s    1.05624
                                    4 1s   -1.05624     5 1s    1.05624     6 1s   -1.05624
   12.1     0.00000     0.30808     1 1s    1.94709     1 2px   0.35169     2 1s   -1.94709     2 2px  -0.35169     3 1s   -1.05753
                                    4 1s   -1.05753     5 1s    1.05753     6 1s    1.05753
   13.1     0.00000     0.39438     1 2py   0.25896     1 2py   1.76622     2 2py  -0.25896     2 2py  -1.76622     3 1s   -1.54453
                                    4 1s    1.54453     5 1s    1.54453     6 1s   -1.54453
   14.1     0.00000     0.49353     1 1s   -3.00692     1 2pz   2.93717     2 1s    3.00692     2 2pz   2.93717     3 1s   -0.58942
                                    4 1s   -0.58942     5 1s    0.58942     6 1s    0.58942
   15.1     0.00000     0.66914     1 2pz  -0.55821     1 2pz   1.02757     2 2pz   0.55821     2 2pz  -1.02757
   16.1     0.00000     0.76135     1 2py  -0.41362     1 2py   0.73905     2 2py  -0.41362     2 2py   0.73905     3 1s   -0.38369
                                    4 1s    0.38369     5 1s   -0.38369     6 1s    0.38369
   17.1     0.00000     0.77605     1 2px  -0.73404     1 2px   0.63822     2 2px  -0.73404     2 2px   0.63822
   18.1     0.00000     0.87939     1 1s   -0.86650     1 1s    1.44462     1 2pz   0.35592     2 1s   -0.86650     2 1s    1.44462
                                    2 2pz  -0.35592     3 1s   -0.41007     4 1s   -0.41007     5 1s   -0.41007     6 1s   -0.41007
   19.1     0.00000     0.88855     1 2px  -0.80906     1 2px   1.09846     2 2px   0.80906     2 2px  -1.09846
   20.1     0.00000     0.97537     1 1s   -0.65463     1 2pz   0.63102     1 2pz  -0.60893     2 1s    0.65463     2 2pz   0.63102
                                    2 2pz  -0.60893     3 1s    0.37658     4 1s    0.37658     5 1s   -0.37658     6 1s   -0.37658
   21.1     0.00000     1.09584     1 2py  -0.67513     1 2py   1.05289     2 2py  -0.67513     2 2py   1.05289     3 1s    0.38758
                                    3 1s   -1.02665     4 1s   -0.38758     4 1s    1.02665     5 1s    0.38758     5 1s   -1.02665
                                    6 1s   -0.38758     6 1s    1.02665
   22.1     0.00000     1.12554     1 2py  -0.89739     1 2py   2.98697     2 2py   0.89739     2 2py  -2.98697     3 1s   -1.41385
                                    4 1s    1.41385     5 1s    1.41385     6 1s   -1.41385
   23.1     0.00000     1.20098     1 1s    1.04224     1 1s   -1.73380     1 2pz   0.35693     1 2pz  -0.49391     2 1s    1.04224
                                    2 1s   -1.73380     2 2pz  -0.35693     2 2pz   0.49391     3 1s   -0.43033     3 1s    0.86681
                                    4 1s   -0.43033     4 1s    0.86681     5 1s   -0.43033     5 1s    0.86681     6 1s   -0.43033
                                    6 1s    0.86681
   24.1     0.00000     1.21153     1 1s   -0.58603     1 1s    0.71830     1 2pz  -0.59381     1 2pz   1.11061     2 1s    0.58603
                                    2 1s   -0.71830     2 2pz  -0.59381     2 2pz   1.11061     3 1s    0.46880     3 1s   -0.97018
                                    4 1s    0.46880     4 1s   -0.97018     5 1s   -0.46880     5 1s    0.97018     6 1s   -0.46880
                                    6 1s    0.97018
   25.1     0.00000     1.34144     1 2py   1.55456     2 2py  -1.55456     3 1s   -0.66936     4 1s    0.66936     5 1s    0.66936
                                    6 1s   -0.66936
   26.1     0.00000     1.34773     1 1s   -1.57904     1 1s    5.40441     1 2pz   0.26351     1 2pz  -1.93533     2 1s    1.57904
                                    2 1s   -5.40441     2 2pz   0.26351     2 2pz  -1.93533     3 1s   -0.30410     4 1s   -0.30410
                                    5 1s    0.30410     6 1s    0.30410
   27.1     0.00000     1.74058     1 3d1+  0.60195     2 3d1+ -0.60195
   28.1     0.00000     1.81615     1 3d2-  0.64235     2 3d2-  0.64235
   29.1     0.00000     2.17566     1 1s   -0.60853     1 3d2+  0.69038     2 1s   -0.60853     2 3d2+  0.69038     3 1s    0.36000
                                    4 1s    0.36000     5 1s    0.36000     6 1s    0.36000
   30.1     0.00000     2.23542     1 2py   0.92257     1 3d2-  0.71405     2 2py  -0.92257     2 3d2- -0.71405     3 1s   -0.31119
                                    4 1s    0.31119     5 1s    0.31119     6 1s   -0.31119
   31.1     0.00000     2.32670     1 3d2-  0.25273     1 3d1-  0.65087     2 3d2-  0.25273     2 3d1- -0.65087     3 1s   -0.50270
                                    4 1s    0.50270     5 1s   -0.50270     6 1s    0.50270
   32.1     0.00000     2.40976     1 1s   -0.50510     1 2pz   0.28657     1 2pz  -0.44227     1 3d0   0.69176     2 1s   -0.50510
                                    2 2pz  -0.28657     2 2pz   0.44227     2 3d0   0.69176
   33.1     0.00000     2.54401     1 1s    0.29621     1 1s   -1.30207     1 3d1+  0.31026     1 3d2+  0.73134     2 1s   -0.29621
                                    2 1s    1.30207     2 3d1+  0.31026     2 3d2+ -0.73134     3 1s    0.37194     4 1s    0.37194
                                    5 1s   -0.37194     6 1s   -0.37194
   34.1     0.00000     2.74096     1 1s    0.62196     1 3d1+  0.85040     1 3d2+ -0.28702     2 1s   -0.62196     2 3d1+  0.85040
                                    2 3d2+  0.28702
   35.1     0.00000     3.03190     1 2py   0.42303     1 3d1-  0.93870     2 2py  -0.42303     2 3d1-  0.93870     3 1s   -0.45538
                                    4 1s    0.45538     5 1s    0.45538     6 1s   -0.45538
   36.1     0.00000     3.06252     1 1s    0.32219     1 1s    1.99263     1 2pz  -0.79719     1 2pz  -1.16762     1 3d0   1.11192
                                    2 1s   -0.32219     2 1s   -1.99263     2 2pz  -0.79719     2 2pz  -1.16762     2 3d0  -1.11192


 HOMO      8.1    -0.370511 =     -10.0821eV
 LUMO      9.1     0.166243 =       4.5237eV
 LUMO-HOMO         0.536754 =      14.6058eV


 **********************************************************************************************************************************
 DATASETS  * FILE   NREC   LENGTH (MB)   RECORD NAMES
              1      19       30.88       500      610      700      900      950      970     1000      129      960     1100   
                                          VAR    BASINP    GEOM    SYMINP    ZMAT    AOBASIS   BASIS     P2S    ABASIS      S 
                                         1400     1410     1200     1210     1080     1600     1650     1300     1700   
                                           T        V       H0       H01     AOSYM     SMH    MOLCAS    ERIS     OPER   

              2       4        2.86       700     1000      520     2100   
                                         GEOM     BASIS   MCVARS     RHF  

 PROGRAMS   *        TOTAL    HF-SCF       INT
 CPU TIMES  *         0.45      0.10      0.26
 REAL TIME  *         0.71 SEC
 DISK USED  *        35.71 MB
 **********************************************************************************************************************************


 PROGRAM * MULTI (Direct Multiconfiguration SCF)       Authors: P.J. Knowles, H.-J. Werner (1984)


 Number of closed-shell orbitals:   7 (   7 )
 Number of active  orbitals:        2 (   2 )
 Number of external orbitals:      27 (  27 )

 State symmetry 1

 Number of electrons:     2    Spin symmetry=Singlet   Space symmetry=1
 Number of states:        3
 Number of CSFs:          3   (4 determinants, 4 intermediate states)

 Molecular orbitals read from record     2100.2  Type=RHF/CANONICAL (state 1.1)

 Wavefunction dump at record             2140.2

 Convergence thresholds  0.10E-01 (gradient)  0.10E-05 (energy)  0.10E-02 (step length)

 Weight factors for state symmetry  1:    0.33333   0.33333   0.33333

 Number of orbital rotations:      257   (    14 Core/Active    189 Core/Virtual   0 Active/Active     54 Active/Virtual)
 Total number of variables:        269

 Micro-Iterations solved by the two-step solver

 ITER. MIC  NCI  NEG     ENERGY(VAR)     ENERGY(PROJ)   ENERGY CHANGE     GRAD(0)  GRAD(ORB)   GRAD(CI)     STEP       TIME

   1    6    5    0     -77.72751135     -77.73566449   -0.00815313    0.13934085 0.00457445 0.00000000  0.11D+00      0.10
   2    4    4    0     -77.73537224     -77.73539464   -0.00002240    0.00779195 0.00000240 0.00000000  0.39D-02      0.16
   3    3    4    0     -77.73539466     -77.73539466   -0.00000000    0.00001227 0.00000000 0.00000000  0.12D-04      0.22

 ** WVFN ****  CONVERGENCE REACHED, FINAL GRADIENT:  0.15D-09



 Results for state 1.1
 =====================

 !MCSCF STATE  1.1 Energy             -78.037311194693
 Nuclear energy                        33.20669428
 Kinetic energy                        78.01563941
 One electron energy                 -169.89059309
 Two electron energy                   58.64658761
 Virial ratio                           2.00027779

 !MCSCF STATE  1.1 Dipole moment        0.20827837    -0.00000000    -0.00000000
 Dipole moment /Debye                   0.52935615    -0.00000000    -0.00000000

 Results for state 2.1
 =====================

 !MCSCF STATE  2.1 Energy             -77.674836557534
 Nuclear energy                        33.20669428
 Kinetic energy                        78.19688159
 One electron energy                 -169.30711204
 Two electron energy                   58.42558121
 Virial ratio                           1.99332397

 !MCSCF STATE  2.1 Dipole moment        0.29673458     0.00000000    -0.00000000
 Dipole moment /Debye                   0.75417467     0.00000000    -0.00000000

 Results for state 3.1
 =====================

 !MCSCF STATE  3.1 Energy             -77.494036234007
 Nuclear energy                        33.20669428
 Kinetic energy                        78.37812377
 One electron energy                 -168.72363100
 Two electron energy                   58.02290048
 Virial ratio                           1.98872023

 !MCSCF STATE  3.1 Dipole moment        0.38519079     0.00000000    -0.00000000
 Dipole moment /Debye                   0.97899320     0.00000000    -0.00000000

 State-averaged charge density matrix saved on record  2140.2 (density set 1)

 !MCSCF expec         <1.1|DMX|1.1>     0.208278373641 au =     0.529356148879 Debye
 !MCSCF expec         <2.1|DMX|2.1>     0.296734580377 au =     0.754174674795 Debye
 !MCSCF trans         <3.1|DMX|1.1>    -0.037723894794 au =    -0.095878296529 Debye
 !MCSCF expec         <3.1|DMX|3.1>     0.385190787113 au =     0.978993200711 Debye

 !MCSCF trans         <2.1|DMZ|1.1>    -1.465321137165 au =    -3.724230895795 Debye
 !MCSCF trans         <3.1|DMZ|2.1>    -2.217926391345 au =    -5.637037357715 Debye


 NATURAL ORBITALS (state averaged)
 =================================

  Orbital  Occupation    Energy     Coefficients
    1.1     2.00000   -11.24653     1 1s    0.70422     2 1s    0.70422
    2.1     2.00000   -11.24521     1 1s    0.70452     2 1s   -0.70452
    3.1     2.00000    -1.04260     1 1s    0.30968     2 1s    0.30968
    4.1     2.00000    -0.79552     1 1s    0.29748     2 1s   -0.29748
    5.1     2.00000    -0.64395     1 2py   0.32602     2 2py   0.32602
    6.1     2.00000    -0.59839     1 2pz   0.39579     2 2pz  -0.39579
    7.1     2.00000    -0.50319     1 2py   0.30928     2 2py  -0.30928
    8.1     1.00000     0.02324     1 2px   0.37406     1 2px   0.65091     2 2px  -0.37406     2 2px  -0.65091
    9.1     1.00000    -0.22662     1 2px   0.34720     1 2px   0.31534     2 2px   0.34720     2 2px   0.31534
   10.1    -0.00000     0.25945     1 1s   -1.45019     1 2pz  -0.63343     2 1s   -1.45019     2 2pz   0.63343     3 1s    1.02190
                                    4 1s    1.02190     5 1s    1.02190     6 1s    1.02190
   11.1    -0.00000     0.27658     1 2py  -0.25081     1 2py  -0.76777     2 2py  -0.25081     2 2py  -0.76777     3 1s    1.04763
                                    4 1s   -1.04763     5 1s    1.04763     6 1s   -1.04763
   12.1    -0.00000     0.30328     1 1s    1.96214     1 2px   0.31713     2 1s   -1.96214     2 2px  -0.31713     3 1s   -1.05710
                                    4 1s   -1.05710     5 1s    1.05710     6 1s    1.05710
   13.1    -0.00000     0.38892     1 2py   0.26333     1 2py   1.75066     2 2py  -0.26333     2 2py  -1.75066     3 1s   -1.53706
                                    4 1s    1.53706     5 1s    1.53706     6 1s   -1.53706
   14.1    -0.00000     0.48929     1 1s   -2.97909     1 2pz   2.92056     2 1s    2.97909     2 2pz   2.92056     3 1s   -0.59773
                                    4 1s   -0.59773     5 1s    0.59773     6 1s    0.59773
   15.1    -0.00000     0.65829     1 1s    0.27024     1 2pz  -0.54930     1 2pz   1.00692     2 1s    0.27024     2 2pz   0.54930
                                    2 2pz  -1.00692
   16.1    -0.00000     0.75154     1 2py  -0.42251     1 2py   0.74695     2 2py  -0.42251     2 2py   0.74695     3 1s   -0.37936
                                    4 1s    0.37936     5 1s   -0.37936     6 1s    0.37936
   17.1    -0.00000     0.77114     1 2px  -0.74371     1 2px   0.64313     2 2px  -0.74371     2 2px   0.64313
   18.1    -0.00000     0.87187     1 2px  -0.79473     1 2px   1.13901     2 2px   0.79473     2 2px  -1.13901
   19.1    -0.00000     0.87423     1 1s   -0.86832     1 1s    1.46841     1 2pz   0.39589     2 1s   -0.86832     2 1s    1.46841
                                    2 2pz  -0.39589     3 1s   -0.41028     4 1s   -0.41028     5 1s   -0.41028     6 1s   -0.41028
   20.1    -0.00000     0.95642     1 1s   -0.49557     1 2pz   0.63531     1 2pz  -0.68255     2 1s    0.49557     2 2pz   0.63531
                                    2 2pz  -0.68255     3 1s    0.37613     4 1s    0.37613     5 1s   -0.37613     6 1s   -0.37613
   21.1    -0.00000     1.08089     1 2py  -0.66392     1 2py   1.05514     2 2py  -0.66392     2 2py   1.05514     3 1s    0.38833
                                    3 1s   -1.03564     4 1s   -0.38833     4 1s    1.03564     5 1s    0.38833     5 1s   -1.03564
                                    6 1s   -0.38833     6 1s    1.03564
   22.1    -0.00000     1.11392     1 2py  -0.89535     1 2py   2.98163     2 2py   0.89535     2 2py  -2.98163     3 1s   -1.42097
                                    4 1s    1.42097     5 1s    1.42097     6 1s   -1.42097
   23.1    -0.00000     1.19594     1 1s    1.03749     1 1s   -1.73024     1 2pz   0.36174     1 2pz  -0.49939     2 1s    1.03749
                                    2 1s   -1.73024     2 2pz  -0.36174     2 2pz   0.49939     3 1s   -0.43111     3 1s    0.86684
                                    4 1s   -0.43111     4 1s    0.86684     5 1s   -0.43111     5 1s    0.86684     6 1s   -0.43111
                                    6 1s    0.86684
   24.1    -0.00000     1.20775     1 1s   -0.55487     1 1s    0.61568     1 2pz  -0.60543     1 2pz   1.15293     2 1s    0.55487
                                    2 1s   -0.61568     2 2pz  -0.60543     2 2pz   1.15293     3 1s    0.46996     3 1s   -0.96464
                                    4 1s    0.46996     4 1s   -0.96464     5 1s   -0.46996     5 1s    0.96464     6 1s   -0.46996
                                    6 1s    0.96464
   25.1    -0.00000     1.32777     1 1s   -1.59189     1 1s    5.42970     1 2pz  -1.90849     2 1s    1.59189     2 1s   -5.42970
                                    2 2pz  -1.90849     3 1s   -0.32648     4 1s   -0.32648     5 1s    0.32648     6 1s    0.32648
   26.1    -0.00000     1.33342     1 2py   1.57365     2 2py  -1.57365     3 1s   -0.66779     4 1s    0.66779     5 1s    0.66779
                                    6 1s   -0.66779
   27.1    -0.00000     1.71635     1 3d1+  0.60232     2 3d1+ -0.60232
   28.1    -0.00000     1.80210     1 3d2-  0.64235     2 3d2-  0.64235
   29.1    -0.00000     2.16046     1 1s   -0.60425     1 3d2+  0.69073     2 1s   -0.60425     2 3d2+  0.69073     3 1s    0.36201
                                    4 1s    0.36201     5 1s    0.36201     6 1s    0.36201
   30.1    -0.00000     2.21260     1 2py   0.93453     1 3d2-  0.71353     2 2py  -0.93453     2 3d2- -0.71353     3 1s   -0.31608
                                    4 1s    0.31608     5 1s    0.31608     6 1s   -0.31608
   31.1    -0.00000     2.31056     1 2py   0.25359     1 3d2-  0.25279     1 3d1-  0.64942     2 2py   0.25359     2 3d2-  0.25279
                                    2 3d1- -0.64942     3 1s   -0.50559     4 1s    0.50559     5 1s   -0.50559     6 1s    0.50559
   32.1    -0.00000     2.38933     1 1s   -0.50376     1 2pz   0.29219     1 2pz  -0.44473     1 3d0   0.69171     2 1s   -0.50376
                                    2 2pz  -0.29219     2 2pz   0.44473     2 3d0   0.69171
   33.1    -0.00000     2.52633     1 1s    0.29833     1 1s   -1.31750     1 3d1+  0.30860     1 3d2+  0.73119     2 1s   -0.29833
                                    2 1s    1.31750     2 3d1+  0.30860     2 3d2+ -0.73119     3 1s    0.37495     4 1s    0.37495
                                    5 1s   -0.37495     6 1s   -0.37495
   34.1    -0.00000     2.71779     1 1s    0.60034     1 3d1+  0.85143     1 3d2+ -0.28523     2 1s   -0.60034     2 3d1+  0.85143
                                    2 3d2+  0.28523
   35.1    -0.00000     3.01933     1 2py   0.42416     1 3d1-  0.93825     2 2py  -0.42416     2 3d1-  0.93825     3 1s   -0.45752
                                    4 1s    0.45752     5 1s    0.45752     6 1s   -0.45752
   36.1    -0.00000     3.04355     1 1s    0.31425     1 1s    2.02060     1 2pz  -0.79003     1 2pz  -1.18175     1 3d0   1.11362
                                    2 1s   -0.31425     2 1s   -2.02060     2 2pz  -0.79003     2 2pz  -1.18175     2 3d0  -1.11362


 Natural orbital dump (state averaged) at molpro section  2140.2    (Orbital set 2)



 **********************************************************************************************************************************
 DATASETS  * FILE   NREC   LENGTH (MB)   RECORD NAMES
              1      20       31.61       500      610      700      900      950      970     1000      129      960     1100   
                                          VAR    BASINP    GEOM    SYMINP    ZMAT    AOBASIS   BASIS     P2S    ABASIS      S 
                                         1400     1410     1200     1210     1080     1600     1650     1300     1700     1380   
                                           T        V       H0       H01     AOSYM     SMH    MOLCAS    ERIS     OPER     JKOP   

              2       5        5.42       700     1000      520     2100     2140   
                                         GEOM     BASIS   MCVARS     RHF     MCSCF   

 PROGRAMS   *        TOTAL     MULTI    HF-SCF       INT
 CPU TIMES  *         0.72      0.27      0.10      0.26
 REAL TIME  *         1.03 SEC
 DISK USED  *        38.79 MB
 **********************************************************************************************************************************
 Molecular orbitals read from record     2140.2  Type=MCSCF/NATURAL (state averaged)
 Occupation numbers read from record     2140.2  Type=MCSCF/NATURAL (state averaged)
 Orbital energies read from record       2140.2  Type=MCSCF/NATURAL (state averaged)
 Redundancy group numbers read from rec  2140.2  Type=MCSCF/NATURAL (state averaged)

 MULTI/6-31G* energy=    -77.494036234007

           MULTI          HF-SCF
    -77.49403623    -78.02047814
 **********************************************************************************************************************************
 Molpro calculation terminated
