
 Primary working directories    : /scratch.local/johan406.molpro_temp/molpro.2zjMbQwCxC
 Secondary working directories  : /scratch.local/johan406.molpro_temp/molpro.2zjMbQwCxC
 Wavefunction directory         : /home/goodpast/johan406/wfu/
 Main file repository           : /scratch.local/johan406.molpro_temp/molpro.2zjMbQwCxC/

 id        : roweumn

 Nodes     nprocs
 cn0117       1

 Using customized tuning parameters: mindgm=1; mindgv=20; mindgc=4; mindgr=1; noblas=0; minvec=7
 default implementation of scratch files=df  


 Variables initialized (934), CPU time= 0.00 sec
                                                                                 !leave this line blank
 
 gprint, orbitals=30
 memory, 125., m
 symmetry, nosym
 nelect=16
 basis=6-31g*
 
 geometry={
 C -0.0 0.0 0.6691
 C 0.0 0.0 -0.6691
 H 0.068 0.9149 1.2348
 H -0.068 -0.9149 1.2348
 H -0.068 0.9149 -1.2348
 H 0.068 -0.9149 -1.2348
 }
 
 hf
 {multi,
 closed 7
 occ 9
 wf,spin=0;STATE,3
 }
 
 Commands  initialized (763), CPU time= 0.01 sec, 617 directives.
 Default parameters read. Elapsed time= 0.08 sec

 Checking input...
 Passed
1


                                         ***  PROGRAM SYSTEM MOLPRO  ***
                                       Copyright, TTI GmbH Stuttgart, 2015
                                    Version 2019.2 linked Oct 25 2019 22:50:27


 **********************************************************************************************************************************
 LABEL *                                                                                 
  64 bit serial version                                                                  DATE: 26-Jan-23          TIME: 19:54:57  
 **********************************************************************************************************************************

 SHA1:             8dbd9ae1082e4ce945b0f27595c9eb2d4aa09004
 **********************************************************************************************************************************


 Variable memory set to  125000000 words,  buffer space 

 SETTING NELECT         =        16.00000000                                  
 SETTING BASIS          =    6-31G*
 ZSYMEL=NOSYM


Geometry recognized as XYZ



 Recomputing integrals since basis changed


 Using spherical harmonics

 Library entry C      S 6-31G                selected for orbital group  1
 Library entry C      P 6-31G                selected for orbital group  1
 Library entry C      D 6-31G*               selected for orbital group  1
 Library entry H      S 6-31G                selected for orbital group  2


 PROGRAM * SEWARD (Integral evaluation for generally contracted gaussian basis sets)     Author: Roland Lindh, 1990

 Geometry written to block  1 of record 700


 Point group  C1  



 ATOMIC COORDINATES

 NR  ATOM    CHARGE       X              Y              Z

   1  C       6.00   -0.000000000    0.000000000    1.264415750
   2  C       6.00    0.000000000    0.000000000   -1.264415750
   3  H       1.00    0.128501376    1.728910431    2.333433819
   4  H       1.00   -0.128501376   -1.728910431    2.333433819
   5  H       1.00   -0.128501376    1.728910431   -2.333433819
   6  H       1.00    0.128501376   -1.728910431   -2.333433819

 Bond lengths in Bohr (Angstrom)

 1-2  2.528831500  1-3  2.036772819  1-4  2.036772819  2-5  2.036772819  2-6  2.036772819
     ( 1.338200000)     ( 1.077813759)     ( 1.077813759)     ( 1.077813759)     ( 1.077813759)

 Bond angles

  1-2-5  121.65873595   1-2-6  121.65873595   2-1-3  121.65873595   2-1-4  121.65873595

  3-1-4  116.68252809   5-2-6  116.68252809

 NUCLEAR CHARGE:                   16
 NUMBER OF PRIMITIVE AOS:          72
 NUMBER OF SYMMETRY AOS:           70
 NUMBER OF CONTRACTIONS:           36   (   36A   )
 NUMBER OF CORE ORBITALS:           2   (    2A   )
 NUMBER OF VALENCE ORBITALS:       12   (   12A   )


 NUCLEAR REPULSION ENERGY   33.37758465


 Eigenvalues of metric

         1 0.831E-02 0.175E-01 0.379E-01 0.466E-01 0.707E-01 0.192E+00 0.211E+00 0.225E+00


 Contracted 2-electron integrals neglected if value below      1.0D-11
 AO integral compression algorithm  1   Integral accuracy      1.0D-11

     1.049 MB (compressed) written to integral file ( 50.3%)


 NUMBER OF SORTED TWO-ELECTRON INTEGRALS:     222111.     BUFFER LENGTH:  32768
 NUMBER OF SEGMENTS:   1  SEGMENT LENGTH:     222111      RECORD LENGTH: 524288

 Memory used in sort:       0.78 MW

 SORT1 READ      284735. AND WROTE      156915. INTEGRALS IN      1 RECORDS. CPU TIME:     0.00 SEC, REAL TIME:     0.01 SEC
 SORT2 READ      156915. AND WROTE      222111. INTEGRALS IN      4 RECORDS. CPU TIME:     0.02 SEC, REAL TIME:     0.02 SEC

 FILE SIZES:   FILE 1:    31.1 MBYTE,  FILE 4:     4.2 MBYTE,   TOTAL:     35.4 MBYTE

 OPERATOR DM      FOR CENTER  0  COORDINATES:    0.000000    0.000000    0.000000


 **********************************************************************************************************************************
 DATASETS  * FILE   NREC   LENGTH (MB)   RECORD NAMES
              1      19       30.87       500      610      700      900      950      970     1000      129      960     1100   
                                          VAR    BASINP    GEOM    SYMINP    ZMAT    AOBASIS   BASIS     P2S    ABASIS      S 
                                         1400     1410     1200     1210     1080     1600     1650     1300     1700   
                                           T        V       H0       H01     AOSYM     SMH    MOLCAS    ERIS     OPER   

 PROGRAMS   *        TOTAL       INT
 CPU TIMES  *         0.36      0.26
 REAL TIME  *         0.58 SEC
 DISK USED  *        35.71 MB
 **********************************************************************************************************************************


 PROGRAM * RHF-SCF (CLOSED SHELL)       Authors: W. Meyer, H.-J. Werner


 NUMBER OF ELECTRONS:       8+    8-    SPACE SYMMETRY=1    SPIN SYMMETRY: Singlet 
 CONVERGENCE THRESHOLDS:    1.00E-05 (Density)    1.00E-07 (Energy)
 MAX. NUMBER OF ITERATIONS:       60
 INTERPOLATION TYPE:            DIIS
 INTERPOLATION STEPS:              2 (START)      1 (STEP)
 LEVEL SHIFTS:                  0.00 (CLOSED)  0.00 (OPEN) 



 Orbital guess generated from atomic densities. Full valence occupancy:    8

 Molecular orbital dump at record        2100.2

 Initial occupancy:   8

 ITERATION    DDIFF          GRAD             ENERGY        2-EL.EN.            DIPOLE MOMENTS         DIIS   ORB.
    1      0.000D+00      0.000D+00       -78.00488025    118.671336   -0.00000   -0.00000   -0.00000    0    start
    2      0.000D+00      0.858D-02       -78.02680507    116.831408   -0.00000    0.00000   -0.00000    1    diag
    3      0.821D-02      0.292D-02       -78.02893845    117.463092   -0.00000    0.00000   -0.00000    2    diag
    4      0.264D-02      0.714D-03       -78.02915011    117.364075   -0.00000    0.00000   -0.00000    3    diag
    5      0.107D-02      0.700D-04       -78.02915244    117.367010   -0.00000   -0.00000   -0.00000    4    diag
    6      0.148D-03      0.942D-05       -78.02915249    117.366564   -0.00000    0.00000   -0.00000    5    diag
    7      0.163D-04      0.198D-05       -78.02915249    117.366576    0.00000    0.00000    0.00000    6    diag
    8      0.279D-05      0.371D-06       -78.02915249    117.366569   -0.00000   -0.00000   -0.00000    0    orth

 Final occupancy:   8

 !RHF STATE  1.1 Energy               -78.029152494909
 Nuclear energy                        33.37758465
 One-electron energy                 -170.09002180
 Two-electron energy                   58.68328466
 Virial quotient                       -1.00023065
 !RHF STATE  1.1 Dipole moment         -0.00000000    -0.00000000    -0.00000000
 Dipole moment /Debye                  -0.00000000    -0.00000000    -0.00000000

 ELECTRON ORBITALS
 =================

  Orbital  Occupation    Energy     Coefficients
    1.1     2.00000   -11.22559     1 1s    0.70419     2 1s    0.70419
    2.1     2.00000   -11.22400     1 1s    0.70454     2 1s   -0.70454
    3.1     2.00000    -1.02667     1 1s    0.30212     2 1s    0.30212
    4.1     2.00000    -0.79118     2 1s   -0.24273
    5.1     2.00000    -0.63784     1 2py   0.32121     2 2py   0.32121
    6.1     2.00000    -0.58222     1 2pz   0.40705     2 2pz  -0.40705
    7.1     2.00000    -0.50671     1 2py   0.30158     2 2py  -0.30158
    8.1     2.00000    -0.36752     1 2px   0.36981     1 2px   0.30681     2 2px   0.36981     2 2px   0.30681
    9.1     0.00000     0.17693     1 2px   0.33991     1 2px   0.72382     2 2px  -0.33991     2 2px  -0.72382
   10.1     0.00000     0.26643     1 1s   -1.49117     1 2pz  -0.64509     2 1s   -1.49117     2 2pz   0.64509     3 1s    1.03881
                                    4 1s    1.03881     5 1s    1.03881     6 1s    1.03881
   11.1     0.00000     0.29498     1 2py  -0.25058     1 2py  -0.80450     2 2py  -0.25058     2 2py  -0.80450     3 1s    1.10003
                                    4 1s   -1.10003     5 1s    1.10003     6 1s   -1.10003
   12.1     0.00000     0.30854     1 1s    1.92284     2 1s   -1.92284     3 1s   -1.07394     4 1s   -1.07394     5 1s    1.07394
                                    6 1s    1.07394
   13.1     0.00000     0.39056     1 2py  -1.86858     2 2py   1.86858     3 1s    1.62290     4 1s   -1.62290     5 1s   -1.62290
                                    6 1s    1.62290
   14.1     0.00000     0.48993     1 1s   -2.99914     1 2pz   2.94916     2 1s    2.99914     2 2pz   2.94916     3 1s   -0.58187
                                    4 1s   -0.58187     5 1s    0.58187     6 1s    0.58187
   15.1     0.00000     0.66927     1 2pz  -0.55608     1 2pz   1.03753     2 2pz   0.55608     2 2pz  -1.03753
   16.1     0.00000     0.76512     1 2py  -0.40043     1 2py   0.77422     2 2py  -0.40043     2 2py   0.77422     3 1s   -0.38673
                                    4 1s    0.38673     5 1s   -0.38673     6 1s    0.38673
   17.1     0.00000     0.77763     1 2px  -0.73833     1 2px   0.63926     2 2px  -0.73833     2 2px   0.63926
   18.1     0.00000     0.86301     1 1s   -0.88444     1 1s    1.45546     1 2pz   0.33616     2 1s   -0.88444     2 1s    1.45546
                                    2 2pz  -0.33616     3 1s   -0.39748     4 1s   -0.39748     5 1s   -0.39748     6 1s   -0.39748
   19.1     0.00000     0.88991     1 2px  -0.81612     1 2px   1.07208     2 2px   0.81612     2 2px  -1.07208
   20.1     0.00000     0.95413     1 1s   -0.86949     1 2pz   0.60365     1 2pz  -0.45676     2 1s    0.86949     2 2pz   0.60365
                                    2 2pz  -0.45676     3 1s    0.38371     4 1s    0.38371     5 1s   -0.38371     6 1s   -0.38371
   21.1     0.00000     1.11588     1 2py  -0.68738     1 2py   1.09861     2 2py  -0.68738     2 2py   1.09861     3 1s    0.38186
                                    3 1s   -1.06269     4 1s   -0.38186     4 1s    1.06269     5 1s    0.38186     5 1s   -1.06269
                                    6 1s   -0.38186     6 1s    1.06269
   22.1     0.00000     1.15810     1 2py   0.92192     1 2py  -2.93641     2 2py  -0.92192     2 2py   2.93641     3 1s    1.50197
                                    4 1s   -1.50197     5 1s   -1.50197     6 1s    1.50197
   23.1     0.00000     1.21444     1 1s    1.03889     1 1s   -1.73186     1 2pz   0.36529     1 2pz  -0.49733     2 1s    1.03889
                                    2 1s   -1.73186     2 2pz  -0.36529     2 2pz   0.49733     3 1s   -0.43857     3 1s    0.86809
                                    4 1s   -0.43857     4 1s    0.86809     5 1s   -0.43857     5 1s    0.86809     6 1s   -0.43857
                                    6 1s    0.86809
   24.1     0.00000     1.21996     1 1s   -0.53352     1 1s    0.52186     1 2pz  -0.62406     1 2pz   1.21810     2 1s    0.53352
                                    2 1s   -0.52186     2 2pz  -0.62406     2 2pz   1.21810     3 1s    0.46889     3 1s   -0.96799
                                    4 1s    0.46889     4 1s   -0.96799     5 1s   -0.46889     5 1s    0.96799     6 1s   -0.46889
                                    6 1s    0.96799
   25.1     0.00000     1.33782     1 1s   -1.58819     1 1s    5.37810     1 2pz   0.26618     1 2pz  -1.92691     2 1s    1.58819
                                    2 1s   -5.37810     2 2pz   0.26618     2 2pz  -1.92691     3 1s   -0.32293     4 1s   -0.32293
                                    5 1s    0.32293     6 1s    0.32293
   26.1     0.00000     1.45733     1 2py   2.40681     2 2py  -2.40681     3 1s   -0.68165     3 1s   -0.61257     4 1s    0.68165
                                    4 1s    0.61257     5 1s    0.68165     5 1s    0.61257     6 1s   -0.68165     6 1s   -0.61257
   27.1     0.00000     1.75480     1 2py   0.65196     1 3d1+  0.60930     2 2py  -0.65196     2 3d1+ -0.60930
   28.1     0.00000     1.82608     1 3d2-  0.67873     2 3d2-  0.67873
   29.1     0.00000     2.10362     1 1s   -0.26005     1 3d2-  0.63213     1 3d2+  0.36034     2 1s   -0.26005     2 3d2- -0.63213
                                    2 3d2+  0.36034
   30.1     0.00000     2.23148     1 1s   -0.54915     1 3d2- -0.37578     1 3d2+  0.61261     2 1s   -0.54915     2 3d2-  0.37578
                                    2 3d2+  0.61261     3 1s    0.34146     4 1s    0.34146     5 1s    0.34146     6 1s    0.34146
   31.1     0.00000     2.32734     1 2py   0.27348     1 3d1-  0.68979     2 2py   0.27348     2 3d1- -0.68979     3 1s   -0.51488
                                    4 1s    0.51488     5 1s   -0.51488     6 1s    0.51488
   32.1     0.00000     2.40904     1 1s   -0.50442     1 2pz   0.28008     1 2pz  -0.44893     1 3d0   0.68651     2 1s   -0.50442
                                    2 2pz  -0.28008     2 2pz   0.44893     2 3d0   0.68651
   33.1     0.00000     2.62078     1 1s    0.29246     1 1s   -1.35314     1 2pz   0.27783     1 3d2+  0.79513     2 1s   -0.29246
                                    2 1s    1.35314     2 2pz   0.27783     2 3d2+ -0.79513     3 1s    0.44319     4 1s    0.44319
                                    5 1s   -0.44319     6 1s   -0.44319
   34.1     0.00000     2.71070     1 2px  -0.26131     1 3d1+  0.90187     2 2px   0.26131     2 3d1+  0.90187
   35.1     0.00000     3.05741     1 2py   0.54854     1 3d1-  0.96904     2 2py  -0.54854     2 3d1-  0.96904     3 1s   -0.47446
                                    4 1s    0.47446     5 1s    0.47446     6 1s   -0.47446
   36.1     0.00000     3.06229     1 1s    0.31589     1 1s    2.02326     1 2pz  -0.79677     1 2pz  -1.17683     1 3d0   1.11195
                                    2 1s   -0.31589     2 1s   -2.02326     2 2pz  -0.79677     2 2pz  -1.17683     2 3d0  -1.11195


 HOMO      8.1    -0.367518 =     -10.0007eV
 LUMO      9.1     0.176926 =       4.8144eV
 LUMO-HOMO         0.544444 =      14.8151eV


 **********************************************************************************************************************************
 DATASETS  * FILE   NREC   LENGTH (MB)   RECORD NAMES
              1      19       30.87       500      610      700      900      950      970     1000      129      960     1100   
                                          VAR    BASINP    GEOM    SYMINP    ZMAT    AOBASIS   BASIS     P2S    ABASIS      S 
                                         1400     1410     1200     1210     1080     1600     1650     1300     1700   
                                           T        V       H0       H01     AOSYM     SMH    MOLCAS    ERIS     OPER   

              2       4        2.86       700     1000      520     2100   
                                         GEOM     BASIS   MCVARS     RHF  

 PROGRAMS   *        TOTAL    HF-SCF       INT
 CPU TIMES  *         0.47      0.11      0.26
 REAL TIME  *         0.72 SEC
 DISK USED  *        35.71 MB
 **********************************************************************************************************************************


 PROGRAM * MULTI (Direct Multiconfiguration SCF)       Authors: P.J. Knowles, H.-J. Werner (1984)


 Number of closed-shell orbitals:   7 (   7 )
 Number of active  orbitals:        2 (   2 )
 Number of external orbitals:      27 (  27 )

 State symmetry 1

 Number of electrons:     2    Spin symmetry=Singlet   Space symmetry=1
 Number of states:        3
 Number of CSFs:          3   (4 determinants, 4 intermediate states)

 Molecular orbitals read from record     2100.2  Type=RHF/CANONICAL (state 1.1)

 Wavefunction dump at record             2140.2

 Convergence thresholds  0.10E-01 (gradient)  0.10E-05 (energy)  0.10E-02 (step length)

 Weight factors for state symmetry  1:    0.33333   0.33333   0.33333

 Number of orbital rotations:      257   (    14 Core/Active    189 Core/Virtual   0 Active/Active     54 Active/Virtual)
 Total number of variables:        269

 Micro-Iterations solved by the two-step solver

 ITER. MIC  NCI  NEG     ENERGY(VAR)     ENERGY(PROJ)   ENERGY CHANGE     GRAD(0)  GRAD(ORB)   GRAD(CI)     STEP       TIME

   1    7    6    0     -77.73309487     -77.74101523   -0.00792036    0.13136855 0.00081465 0.00000000  0.92D-01      0.12
   2    4    4    0     -77.74086839     -77.74088036   -0.00001197    0.00486944 0.00000354 0.00000000  0.64D-02      0.18
   3    3    3    0     -77.74088039     -77.74088039   -0.00000000    0.00001270 0.00000000 0.00000000  0.38D-04      0.24

 ** WVFN ****  CONVERGENCE REACHED, FINAL GRADIENT:  0.47D-09



 Results for state 1.1
 =====================

 !MCSCF STATE  1.1 Energy             -78.044212214254
 Nuclear energy                        33.37758465
 Kinetic energy                        78.06776795
 One electron energy                 -170.21172201
 Two electron energy                   58.78992515
 Virial ratio                           1.99969827

 !MCSCF STATE  1.1 Dipole moment       -0.00000000    -0.00000000     0.00000000
 Dipole moment /Debye                  -0.00000000    -0.00000000     0.00000000

 Results for state 2.1
 =====================

 !MCSCF STATE  2.1 Energy             -77.682223518509
 Nuclear energy                        33.37758465
 Kinetic energy                        78.23949890
 One electron energy                 -169.66671235
 Two electron energy                   58.60690419
 Virial ratio                           1.99287731

 !MCSCF STATE  2.1 Dipole moment        0.00000000    -0.00000000     0.00000000
 Dipole moment /Debye                   0.00000000    -0.00000000     0.00000000

 Results for state 3.1
 =====================

 !MCSCF STATE  3.1 Energy             -77.496205428531
 Nuclear energy                        33.37758465
 Kinetic energy                        78.41122986
 One electron energy                 -169.12170270
 Two electron energy                   58.24791263
 Virial ratio                           1.98833044

 !MCSCF STATE  3.1 Dipole moment        0.00000000    -0.00000000     0.00000000
 Dipole moment /Debye                   0.00000000    -0.00000000     0.00000000

 State-averaged charge density matrix saved on record  2140.2 (density set 1)

 !MCSCF trans         <2.1|DMZ|1.1>    -1.421191593097 au =    -3.612072129182 Debye
 !MCSCF trans         <3.1|DMZ|2.1>    -2.088265539018 au =    -5.307493928657 Debye


 NATURAL ORBITALS (state averaged)
 =================================

  Orbital  Occupation    Energy     Coefficients
    1.1     2.00000   -11.23983     1 1s    0.70420     2 1s    0.70420
    2.1     2.00000   -11.23848     1 1s    0.70451     2 1s   -0.70451
    3.1     2.00000    -1.03996     1 1s    0.30943     2 1s    0.30943
    4.1     2.00000    -0.79839     1 1s    0.28370     2 1s   -0.28370
    5.1     2.00000    -0.64814     1 2py   0.32670     2 2py   0.32670
    6.1     2.00000    -0.59618     1 2pz   0.40860     2 2pz  -0.40860
    7.1     2.00000    -0.51271     1 2py   0.29816     2 2py  -0.29816
    8.1     1.00000     0.03108     1 2px   0.37648     1 2px   0.66455     2 2px  -0.37648     2 2px  -0.66455
    9.1     1.00000    -0.22382     1 2px   0.34566     1 2px   0.31164     2 2px   0.34566     2 2px   0.31164
   10.1    -0.00000     0.26326     1 1s   -1.48731     1 2pz  -0.65047     2 1s   -1.48731     2 2pz   0.65047     3 1s    1.03834
                                    4 1s    1.03834     5 1s    1.03834     6 1s    1.03834
   11.1    -0.00000     0.28693     1 2py  -0.79045     2 2py  -0.79045     3 1s    1.08819     4 1s   -1.08819     5 1s    1.08819
                                    6 1s   -1.08819
   12.1    -0.00000     0.30501     1 1s    1.94357     2 1s   -1.94357     3 1s   -1.06930     4 1s   -1.06930     5 1s    1.06930
                                    6 1s    1.06930
   13.1    -0.00000     0.38618     1 2py  -0.25025     1 2py  -1.85820     2 2py   0.25025     2 2py   1.85820     3 1s    1.61688
                                    4 1s   -1.61688     5 1s   -1.61688     6 1s    1.61688
   14.1    -0.00000     0.48723     1 1s   -2.98068     1 2pz   2.93311     2 1s    2.98068     2 2pz   2.93311     3 1s   -0.58975
                                    4 1s   -0.58975     5 1s    0.58975     6 1s    0.58975
   15.1    -0.00000     0.65875     1 1s    0.25190     1 2pz  -0.54903     1 2pz   1.01665     2 1s    0.25190     2 2pz   0.54903
                                    2 2pz  -1.01665
   16.1    -0.00000     0.75525     1 2py  -0.41006     1 2py   0.77586     2 2py  -0.41006     2 2py   0.77586     3 1s   -0.38295
                                    4 1s    0.38295     5 1s   -0.38295     6 1s    0.38295
   17.1    -0.00000     0.77284     1 2px  -0.74463     1 2px   0.63533     2 2px  -0.74463     2 2px   0.63533
   18.1    -0.00000     0.86043     1 1s   -0.87702     1 1s    1.47520     1 2pz   0.37708     2 1s   -0.87702     2 1s    1.47520
                                    2 2pz  -0.37708     3 1s   -0.39989     4 1s   -0.39989     5 1s   -0.39989     6 1s   -0.39989
   19.1    -0.00000     0.87277     1 2px  -0.79924     1 2px   1.09941     2 2px   0.79924     2 2px  -1.09941
   20.1    -0.00000     0.93606     1 1s   -0.72845     1 2pz   0.60629     1 2pz  -0.52881     2 1s    0.72845     2 2pz   0.60629
                                    2 2pz  -0.52881     3 1s    0.38494     4 1s    0.38494     5 1s   -0.38494     6 1s   -0.38494
   21.1    -0.00000     1.10090     1 2py  -0.67645     1 2py   1.10137     2 2py  -0.67645     2 2py   1.10137     3 1s    0.38189
                                    3 1s   -1.07157     4 1s   -0.38189     4 1s    1.07157     5 1s    0.38189     5 1s   -1.07157
                                    6 1s   -0.38189     6 1s    1.07157
   22.1    -0.00000     1.14642     1 2py   0.91979     1 2py  -2.93675     2 2py  -0.91979     2 2py   2.93675     3 1s    1.50774
                                    4 1s   -1.50774     5 1s   -1.50774     6 1s    1.50774
   23.1    -0.00000     1.21054     1 1s    1.03585     1 1s   -1.73051     1 2pz   0.36863     1 2pz  -0.50291     2 1s    1.03585
                                    2 1s   -1.73051     2 2pz  -0.36863     2 2pz   0.50291     3 1s   -0.43866     3 1s    0.86815
                                    4 1s   -0.43866     4 1s    0.86815     5 1s   -0.43866     5 1s    0.86815     6 1s   -0.43866
                                    6 1s    0.86815
   24.1    -0.00000     1.21692     1 1s   -0.47742     1 1s    0.33791     1 2pz  -0.63770     1 2pz   1.28796     2 1s    0.47742
                                    2 1s   -0.33791     2 2pz  -0.63770     2 2pz   1.28796     3 1s    0.47059     3 1s   -0.95638
                                    4 1s    0.47059     4 1s   -0.95638     5 1s   -0.47059     5 1s    0.95638     6 1s   -0.47059
                                    6 1s    0.95638
   25.1    -0.00000     1.31974     1 1s   -1.60782     1 1s    5.40403     1 2pz  -1.88163     2 1s    1.60782     2 1s   -5.40403
                                    2 2pz  -1.88163     3 1s   -0.35874     4 1s   -0.35874     5 1s    0.35874     6 1s    0.35874
   26.1    -0.00000     1.44604     1 2py   2.40276     2 2py  -2.40276     3 1s   -0.67692     3 1s   -0.61096     4 1s    0.67692
                                    4 1s    0.61096     5 1s    0.67692     5 1s    0.61096     6 1s   -0.67692     6 1s   -0.61096
   27.1    -0.00000     1.73318     1 2py   0.69293     1 3d1+  0.60692     2 2py  -0.69293     2 3d1+ -0.60692
   28.1    -0.00000     1.81383     1 3d2-  0.67866     2 3d2-  0.67866
   29.1    -0.00000     2.08175     1 1s   -0.25293     1 3d2-  0.63591     1 3d2+  0.35449     2 1s   -0.25293     2 3d2- -0.63591
                                    2 3d2+  0.35449
   30.1    -0.00000     2.21746     1 1s   -0.54853     1 3d2- -0.36870     1 3d2+  0.61582     2 1s   -0.54853     2 3d2-  0.36870
                                    2 3d2+  0.61582     3 1s    0.34424     4 1s    0.34424     5 1s    0.34424     6 1s    0.34424
   31.1    -0.00000     2.31119     1 2py   0.27996     1 3d1-  0.68789     2 2py   0.27996     2 3d1- -0.68789     3 1s   -0.51750
                                    4 1s    0.51750     5 1s   -0.51750     6 1s    0.51750
   32.1    -0.00000     2.39053     1 1s   -0.50268     1 2pz   0.28529     1 2pz  -0.45136     1 3d0   0.68615     2 1s   -0.50268
                                    2 2pz  -0.28529     2 2pz   0.45136     2 3d0   0.68615
   33.1    -0.00000     2.60200     1 1s    0.29409     1 1s   -1.35876     1 2pz   0.27620     1 3d2+  0.79450     2 1s   -0.29409
                                    2 1s    1.35876     2 2pz   0.27620     2 3d2+ -0.79450     3 1s    0.44573     4 1s    0.44573
                                    5 1s   -0.44573     6 1s   -0.44573
   34.1    -0.00000     2.69066     1 2px  -0.26192     1 3d1+  0.90187     2 2px   0.26192     2 3d1+  0.90187
   35.1    -0.00000     3.04482     1 2py   0.54828     1 3d1-  0.96874     2 2py  -0.54828     2 3d1-  0.96874     3 1s   -0.47636
                                    4 1s    0.47636     5 1s    0.47636     6 1s   -0.47636
   36.1    -0.00000     3.04573     1 1s    0.30933     1 1s    2.04729     1 2pz  -0.79003     1 2pz  -1.18903     1 3d0   1.11341
                                    2 1s   -0.30933     2 1s   -2.04729     2 2pz  -0.79003     2 2pz  -1.18903     2 3d0  -1.11341


 Natural orbital dump (state averaged) at molpro section  2140.2    (Orbital set 2)



 **********************************************************************************************************************************
 DATASETS  * FILE   NREC   LENGTH (MB)   RECORD NAMES
              1      20       31.60       500      610      700      900      950      970     1000      129      960     1100   
                                          VAR    BASINP    GEOM    SYMINP    ZMAT    AOBASIS   BASIS     P2S    ABASIS      S 
                                         1400     1410     1200     1210     1080     1600     1650     1300     1700     1380   
                                           T        V       H0       H01     AOSYM     SMH    MOLCAS    ERIS     OPER     JKOP   

              2       5        5.42       700     1000      520     2100     2140   
                                         GEOM     BASIS   MCVARS     RHF     MCSCF   

 PROGRAMS   *        TOTAL     MULTI    HF-SCF       INT
 CPU TIMES  *         0.76      0.29      0.11      0.26
 REAL TIME  *         1.05 SEC
 DISK USED  *        38.79 MB
 **********************************************************************************************************************************
 Molecular orbitals read from record     2140.2  Type=MCSCF/NATURAL (state averaged)
 Occupation numbers read from record     2140.2  Type=MCSCF/NATURAL (state averaged)
 Orbital energies read from record       2140.2  Type=MCSCF/NATURAL (state averaged)
 Redundancy group numbers read from rec  2140.2  Type=MCSCF/NATURAL (state averaged)

 MULTI/6-31G* energy=    -77.496205428531

           MULTI          HF-SCF
    -77.49620543    -78.02915249
 **********************************************************************************************************************************
 Molpro calculation terminated
