
 Primary working directories    : /scratch.local/johan406.molpro_temp/molpro.hiuWlUc0ou
 Secondary working directories  : /scratch.local/johan406.molpro_temp/molpro.hiuWlUc0ou
 Wavefunction directory         : /home/goodpast/johan406/wfu/
 Main file repository           : /scratch.local/johan406.molpro_temp/molpro.hiuWlUc0ou/

 id        : roweumn

 Nodes     nprocs
 cn0117       1

 Using customized tuning parameters: mindgm=1; mindgv=20; mindgc=4; mindgr=1; noblas=0; minvec=7
 default implementation of scratch files=df  


 Variables initialized (934), CPU time= 0.01 sec
                                                                                 !leave this line blank
 
 gprint, orbitals=30
 memory, 125., m
 symmetry, nosym
 nelect=16
 basis=6-31g*
 
 geometry={
 C 0.0204 0.0 0.6691
 C -0.0204 0.0 -0.6691
 H -0.0666 0.9149 1.2348
 H -0.0666 -0.9149 1.2348
 H 0.0666 0.9149 -1.2348
 H 0.0666 -0.9149 -1.2348
 }
 
 hf
 {multi,
 closed 7
 occ 9
 wf,spin=0;STATE,3
 }
 
 Commands  initialized (763), CPU time= 0.01 sec, 617 directives.
 Default parameters read. Elapsed time= 0.08 sec

 Checking input...
 Passed
1


                                         ***  PROGRAM SYSTEM MOLPRO  ***
                                       Copyright, TTI GmbH Stuttgart, 2015
                                    Version 2019.2 linked Oct 25 2019 22:50:27


 **********************************************************************************************************************************
 LABEL *                                                                                 
  64 bit serial version                                                                  DATE: 26-Jan-23          TIME: 19:25:28  
 **********************************************************************************************************************************

 SHA1:             8dbd9ae1082e4ce945b0f27595c9eb2d4aa09004
 **********************************************************************************************************************************


 Variable memory set to  125000000 words,  buffer space 

 SETTING NELECT         =        16.00000000                                  
 SETTING BASIS          =    6-31G*
 ZSYMEL=NOSYM


Geometry recognized as XYZ



 Recomputing integrals since basis changed


 Using spherical harmonics

 Library entry C      S 6-31G                selected for orbital group  1
 Library entry C      P 6-31G                selected for orbital group  1
 Library entry C      D 6-31G*               selected for orbital group  1
 Library entry H      S 6-31G                selected for orbital group  2


 PROGRAM * SEWARD (Integral evaluation for generally contracted gaussian basis sets)     Author: Roland Lindh, 1990

 Geometry written to block  1 of record 700


 Point group  C1  



 ATOMIC COORDINATES

 NR  ATOM    CHARGE       X              Y              Z

   1  C       6.00    0.038550413    0.000000000    1.264415750
   2  C       6.00   -0.038550413    0.000000000   -1.264415750
   3  H       1.00   -0.125855760    1.728910431    2.333433819
   4  H       1.00   -0.125855760   -1.728910431    2.333433819
   5  H       1.00    0.125855760    1.728910431   -2.333433819
   6  H       1.00    0.125855760   -1.728910431   -2.333433819

 Bond lengths in Bohr (Angstrom)

 1-2  2.530006579  1-3  2.039352912  1-4  2.039352912  2-5  2.039352912  2-6  2.039352912
     ( 1.338821825)     ( 1.079179086)     ( 1.079179086)     ( 1.079179086)     ( 1.079179086)

 Bond angles

  1-2-5  121.43255386   1-2-6  121.43255386   2-1-3  121.43255386   2-1-4  121.43255386

  3-1-4  115.94075890   5-2-6  115.94075890

 NUCLEAR CHARGE:                   16
 NUMBER OF PRIMITIVE AOS:          72
 NUMBER OF SYMMETRY AOS:           70
 NUMBER OF CONTRACTIONS:           36   (   36A   )
 NUMBER OF CORE ORBITALS:           2   (    2A   )
 NUMBER OF VALENCE ORBITALS:       12   (   12A   )


 NUCLEAR REPULSION ENERGY   33.35903493


 Eigenvalues of metric

         1 0.830E-02 0.187E-01 0.375E-01 0.465E-01 0.716E-01 0.193E+00 0.212E+00 0.223E+00


 Contracted 2-electron integrals neglected if value below      1.0D-11
 AO integral compression algorithm  1   Integral accuracy      1.0D-11

     1.311 MB (compressed) written to integral file ( 49.4%)


 NUMBER OF SORTED TWO-ELECTRON INTEGRALS:     222111.     BUFFER LENGTH:  32768
 NUMBER OF SEGMENTS:   1  SEGMENT LENGTH:     222111      RECORD LENGTH: 524288

 Memory used in sort:       0.78 MW

 SORT1 READ      284735. AND WROTE      177309. INTEGRALS IN      1 RECORDS. CPU TIME:     0.00 SEC, REAL TIME:     0.01 SEC
 SORT2 READ      177309. AND WROTE      222111. INTEGRALS IN      5 RECORDS. CPU TIME:     0.02 SEC, REAL TIME:     0.02 SEC

 FILE SIZES:   FILE 1:    31.4 MBYTE,  FILE 4:     4.2 MBYTE,   TOTAL:     35.6 MBYTE

 OPERATOR DM      FOR CENTER  0  COORDINATES:    0.000000    0.000000    0.000000


 **********************************************************************************************************************************
 DATASETS  * FILE   NREC   LENGTH (MB)   RECORD NAMES
              1      19       30.96       500      610      700      900      950      970     1000      129      960     1100   
                                          VAR    BASINP    GEOM    SYMINP    ZMAT    AOBASIS   BASIS     P2S    ABASIS      S 
                                         1400     1410     1200     1210     1080     1600     1650     1300     1700   
                                           T        V       H0       H01     AOSYM     SMH    MOLCAS    ERIS     OPER   

 PROGRAMS   *        TOTAL       INT
 CPU TIMES  *         0.35      0.25
 REAL TIME  *         0.57 SEC
 DISK USED  *        35.97 MB
 **********************************************************************************************************************************


 PROGRAM * RHF-SCF (CLOSED SHELL)       Authors: W. Meyer, H.-J. Werner


 NUMBER OF ELECTRONS:       8+    8-    SPACE SYMMETRY=1    SPIN SYMMETRY: Singlet 
 CONVERGENCE THRESHOLDS:    1.00E-05 (Density)    1.00E-07 (Energy)
 MAX. NUMBER OF ITERATIONS:       60
 INTERPOLATION TYPE:            DIIS
 INTERPOLATION STEPS:              2 (START)      1 (STEP)
 LEVEL SHIFTS:                  0.00 (CLOSED)  0.00 (OPEN) 



 Orbital guess generated from atomic densities. Full valence occupancy:    8

 Molecular orbital dump at record        2100.2

 Initial occupancy:   8

 ITERATION    DDIFF          GRAD             ENERGY        2-EL.EN.            DIPOLE MOMENTS         DIIS   ORB.
    1      0.000D+00      0.000D+00       -78.00431288    118.626893    0.00000   -0.00000   -0.00000    0    start
    2      0.000D+00      0.856D-02       -78.02620019    116.793833   -0.00000   -0.00000    0.00000    1    diag
    3      0.817D-02      0.292D-02       -78.02833670    117.424691    0.00000    0.00000   -0.00000    2    diag
    4      0.265D-02      0.718D-03       -78.02855246    117.324906    0.00000   -0.00000   -0.00000    3    diag
    5      0.109D-02      0.758D-04       -78.02855547    117.327934   -0.00000   -0.00000    0.00000    4    diag
    6      0.171D-03      0.154D-04       -78.02855565    117.327444    0.00000   -0.00000    0.00000    5    diag
    7      0.323D-04      0.578D-05       -78.02855568    117.327481   -0.00000    0.00000   -0.00000    6    diag
    8      0.158D-04      0.103D-05       -78.02855569    117.327474    0.00000   -0.00000   -0.00000    7    diag
    9      0.255D-05      0.101D-06       -78.02855569    117.327479    0.00000   -0.00000   -0.00000    0    orth

 Final occupancy:   8

 !RHF STATE  1.1 Energy               -78.028555685889
 Nuclear energy                        33.35903493
 One-electron energy                 -170.05132994
 Two-electron energy                   58.66373932
 Virial quotient                       -1.00030492
 !RHF STATE  1.1 Dipole moment          0.00000000    -0.00000000    -0.00000000
 Dipole moment /Debye                   0.00000000    -0.00000000    -0.00000000

 ELECTRON ORBITALS
 =================

  Orbital  Occupation    Energy     Coefficients
    1.1     2.00000   -11.22632     1 1s    0.70419     2 1s    0.70419
    2.1     2.00000   -11.22473     1 1s    0.70455     2 1s   -0.70455
    3.1     2.00000    -1.02700     1 1s    0.30200     2 1s    0.30200
    4.1     2.00000    -0.79135     2 1s   -0.24333
    5.1     2.00000    -0.63694     1 2py   0.32141     2 2py   0.32141
    6.1     2.00000    -0.58188     1 2pz   0.40679     2 2pz  -0.40679
    7.1     2.00000    -0.50362     1 2py   0.30495     2 2py  -0.30495
    8.1     2.00000    -0.37009     1 2px   0.37227     1 2px   0.30746     2 2px   0.37227     2 2px   0.30746
    9.1     0.00000     0.17512     1 2px   0.33964     1 2px   0.71693     2 2px  -0.33964     2 2px  -0.71693
   10.1     0.00000     0.26660     1 1s   -1.48291     1 2pz  -0.64354     2 1s   -1.48291     2 2pz   0.64354     3 1s    1.03828
                                    4 1s    1.03828     5 1s    1.03828     6 1s    1.03828
   11.1     0.00000     0.29388     1 2py  -0.25270     1 2py  -0.80488     2 2py  -0.25270     2 2py  -0.80488     3 1s    1.09586
                                    4 1s   -1.09586     5 1s    1.09586     6 1s   -1.09586
   12.1     0.00000     0.30837     1 1s    1.93251     2 1s   -1.93251     3 1s   -1.07328     4 1s   -1.07328     5 1s    1.07328
                                    6 1s    1.07328
   13.1     0.00000     0.38920     1 2py  -1.85349     2 2py   1.85349     3 1s    1.60517     4 1s   -1.60517     5 1s   -1.60517
                                    6 1s    1.60517
   14.1     0.00000     0.48984     1 1s   -2.98827     1 2pz   2.93461     2 1s    2.98827     2 2pz   2.93461     3 1s   -0.57831
                                    4 1s   -0.57831     5 1s    0.57831     6 1s    0.57831
   15.1     0.00000     0.66924     1 2pz  -0.55680     1 2pz   1.03610     2 2pz   0.55680     2 2pz  -1.03610
   16.1     0.00000     0.76285     1 2py  -0.39974     1 2py   0.76595     2 2py  -0.39974     2 2py   0.76595     3 1s   -0.38722
                                    4 1s    0.38722     5 1s   -0.38722     6 1s    0.38722
   17.1     0.00000     0.77830     1 2px  -0.73938     1 2px   0.64116     2 2px  -0.73938     2 2px   0.64116
   18.1     0.00000     0.87095     1 1s   -0.89312     1 1s    1.47764     1 2pz   0.34759     2 1s   -0.89312     2 1s    1.47764
                                    2 2pz  -0.34759     3 1s   -0.39618     4 1s   -0.39618     5 1s   -0.39618     6 1s   -0.39618
   19.1     0.00000     0.88966     1 2px  -0.81543     1 2px   1.08217     2 2px   0.81543     2 2px  -1.08217
   20.1     0.00000     0.95768     1 1s   -0.83919     1 2pz   0.60746     1 2pz  -0.47809     2 1s    0.83919     2 2pz   0.60746
                                    2 2pz  -0.47809     3 1s    0.38285     4 1s    0.38285     5 1s   -0.38285     6 1s   -0.38285
   21.1     0.00000     1.11385     1 2py  -0.68884     1 2py   1.09868     2 2py  -0.68884     2 2py   1.09868     3 1s    0.38228
                                    3 1s   -1.06173     4 1s   -0.38228     4 1s    1.06173     5 1s    0.38228     5 1s   -1.06173
                                    6 1s   -0.38228     6 1s    1.06173
   22.1     0.00000     1.13799     1 2py   0.91241     1 2py  -3.01151     2 2py  -0.91241     2 2py   3.01151     3 1s    1.46976
                                    4 1s   -1.46976     5 1s   -1.46976     6 1s    1.46976
   23.1     0.00000     1.21423     1 1s    1.03400     1 1s   -1.72339     1 2pz   0.36506     1 2pz  -0.49535     2 1s    1.03400
                                    2 1s   -1.72339     2 2pz  -0.36506     2 2pz   0.49535     3 1s   -0.44025     3 1s    0.86650
                                    4 1s   -0.44025     4 1s    0.86650     5 1s   -0.44025     5 1s    0.86650     6 1s   -0.44025
                                    6 1s    0.86650
   24.1     0.00000     1.21848     1 1s   -0.52641     1 1s    0.49998     1 2pz  -0.62317     1 2pz   1.22743     2 1s    0.52641
                                    2 1s   -0.49998     2 2pz  -0.62317     2 2pz   1.22743     3 1s    0.46882     3 1s   -0.96826
                                    4 1s    0.46882     4 1s   -0.96826     5 1s   -0.46882     5 1s    0.96826     6 1s   -0.46882
                                    6 1s    0.96826
   25.1     0.00000     1.33930     1 1s   -1.59324     1 1s    5.39341     1 2pz   0.25839     1 2pz  -1.91259     2 1s    1.59324
                                    2 1s   -5.39341     2 2pz   0.25839     2 2pz  -1.91259     3 1s   -0.33376     4 1s   -0.33376
                                    5 1s    0.33376     6 1s    0.33376
   26.1     0.00000     1.40544     1 2py   1.87212     2 2py  -1.87212     3 1s   -0.66988     3 1s   -0.34022     4 1s    0.66988
                                    4 1s    0.34022     5 1s    0.66988     5 1s    0.34022     6 1s   -0.66988     6 1s   -0.34022
   27.1     0.00000     1.74262     1 3d1+  0.61707     2 3d1+ -0.61707
   28.1     0.00000     1.88987     1 2py  -1.11537     1 3d2-  0.66435     2 2py   1.11537     2 3d2-  0.66435     3 1s    0.39512
                                    4 1s   -0.39512     5 1s   -0.39512     6 1s    0.39512
   29.1     0.00000     2.09615     1 3d2-  0.66677     1 3d1-  0.26594     2 3d2- -0.66677     2 3d1- -0.26594
   30.1     0.00000     2.19581     1 1s   -0.61786     1 3d2+  0.70929     2 1s   -0.61786     2 3d2+  0.70929     3 1s    0.36798
                                    4 1s    0.36798     5 1s    0.36798     6 1s    0.36798
   31.1     0.00000     2.36572     1 2py   0.25188     1 3d2- -0.31808     1 3d1-  0.63743     2 2py   0.25188     2 3d2-  0.31808
                                    2 3d1- -0.63743     3 1s   -0.49380     4 1s    0.49380     5 1s   -0.49380     6 1s    0.49380
   32.1     0.00000     2.40760     1 1s   -0.50721     1 2pz   0.28304     1 2pz  -0.44467     1 3d0   0.69140     2 1s   -0.50721
                                    2 2pz  -0.28304     2 2pz   0.44467     2 3d0   0.69140
   33.1     0.00000     2.61309     1 1s    0.29624     1 1s   -1.38407     1 2pz   0.29002     1 3d2+  0.79486     2 1s   -0.29624
                                    2 1s    1.38407     2 2pz   0.29002     2 3d2+ -0.79486     3 1s    0.44096     4 1s    0.44096
                                    5 1s   -0.44096     6 1s   -0.44096
   34.1     0.00000     2.71190     1 2px  -0.25789     1 3d1+  0.89956     2 2px   0.25789     2 3d1+  0.89956
   35.1     0.00000     3.04620     1 2py   0.50114     1 3d1-  0.96615     2 2py  -0.50114     2 3d1-  0.96615     3 1s   -0.46816
                                    4 1s    0.46816     5 1s    0.46816     6 1s   -0.46816
   36.1     0.00000     3.06151     1 1s    0.31568     1 1s    2.01173     1 2pz  -0.79533     1 2pz  -1.17182     1 3d0   1.10983
                                    2 1s   -0.31568     2 1s   -2.01173     2 2pz  -0.79533     2 2pz  -1.17182     2 3d0  -1.10983


 HOMO      8.1    -0.370085 =     -10.0705eV
 LUMO      9.1     0.175124 =       4.7654eV
 LUMO-HOMO         0.545209 =      14.8359eV


 **********************************************************************************************************************************
 DATASETS  * FILE   NREC   LENGTH (MB)   RECORD NAMES
              1      19       30.96       500      610      700      900      950      970     1000      129      960     1100   
                                          VAR    BASINP    GEOM    SYMINP    ZMAT    AOBASIS   BASIS     P2S    ABASIS      S 
                                         1400     1410     1200     1210     1080     1600     1650     1300     1700   
                                           T        V       H0       H01     AOSYM     SMH    MOLCAS    ERIS     OPER   

              2       4        2.86       700     1000      520     2100   
                                         GEOM     BASIS   MCVARS     RHF  

 PROGRAMS   *        TOTAL    HF-SCF       INT
 CPU TIMES  *         0.46      0.11      0.25
 REAL TIME  *         0.71 SEC
 DISK USED  *        35.97 MB
 **********************************************************************************************************************************


 PROGRAM * MULTI (Direct Multiconfiguration SCF)       Authors: P.J. Knowles, H.-J. Werner (1984)


 Number of closed-shell orbitals:   7 (   7 )
 Number of active  orbitals:        2 (   2 )
 Number of external orbitals:      27 (  27 )

 State symmetry 1

 Number of electrons:     2    Spin symmetry=Singlet   Space symmetry=1
 Number of states:        3
 Number of CSFs:          3   (4 determinants, 4 intermediate states)

 Molecular orbitals read from record     2100.2  Type=RHF/CANONICAL (state 1.1)

 Wavefunction dump at record             2140.2

 Convergence thresholds  0.10E-01 (gradient)  0.10E-05 (energy)  0.10E-02 (step length)

 Weight factors for state symmetry  1:    0.33333   0.33333   0.33333

 Number of orbital rotations:      257   (    14 Core/Active    189 Core/Virtual   0 Active/Active     54 Active/Virtual)
 Total number of variables:        269

 Micro-Iterations solved by the two-step solver

 ITER. MIC  NCI  NEG     ENERGY(VAR)     ENERGY(PROJ)   ENERGY CHANGE     GRAD(0)  GRAD(ORB)   GRAD(CI)     STEP       TIME

   1    5    4    0     -77.72876948     -77.73524558   -0.00647610    0.13354565 0.00016677 0.00000000  0.70D-01      0.09
   2    4    4    0     -77.73513916     -77.73514366   -0.00000450    0.00317526 0.00000001 0.00000000  0.26D-02      0.16
   3    2    3    0     -77.73514366     -77.73514366   -0.00000000    0.00000297 0.00000000 0.00000000  0.59D-05      0.20

 ** WVFN ****  CONVERGENCE REACHED, FINAL GRADIENT:  0.17D-10



 Results for state 1.1
 =====================

 !MCSCF STATE  1.1 Energy             -78.046347995048
 Nuclear energy                        33.35903493
 Kinetic energy                        78.07454744
 One electron energy                 -170.18405339
 Two electron energy                   58.77867047
 Virial ratio                           1.99963881

 !MCSCF STATE  1.1 Dipole moment        0.00000000     0.00000000     0.00000000
 Dipole moment /Debye                   0.00000000     0.00000000     0.00000000

 Results for state 2.1
 =====================

 !MCSCF STATE  2.1 Energy             -77.671905734246
 Nuclear energy                        33.35903493
 Kinetic energy                        78.25314962
 One electron energy                 -169.60910497
 Two electron energy                   58.57816430
 Virial ratio                           1.99257226

 !MCSCF STATE  2.1 Dipole moment        0.00000000     0.00000000     0.00000000
 Dipole moment /Debye                   0.00000000     0.00000000     0.00000000

 Results for state 3.1
 =====================

 !MCSCF STATE  3.1 Energy             -77.487177253156
 Nuclear energy                        33.35903493
 Kinetic energy                        78.43175180
 One electron energy                 -169.03415654
 Two electron energy                   58.18794436
 Virial ratio                           1.98795673

 !MCSCF STATE  3.1 Dipole moment       -0.00000000     0.00000000    -0.00000000
 Dipole moment /Debye                  -0.00000000     0.00000000    -0.00000000

 State-averaged charge density matrix saved on record  2140.2 (density set 1)

 !MCSCF trans         <2.1|DMX|1.1>    -0.158501849842 au =    -0.402845131521 Debye
 !MCSCF trans         <3.1|DMX|2.1>    -0.239429481469 au =    -0.608529181512 Debye

 !MCSCF trans         <2.1|DMZ|1.1>    -1.504221158400 au =    -3.823098411765 Debye
 !MCSCF trans         <3.1|DMZ|2.1>    -2.272244092607 au =    -5.775090140889 Debye


 NATURAL ORBITALS (state averaged)
 =================================

  Orbital  Occupation    Energy     Coefficients
    1.1     2.00000   -11.24223     1 1s    0.70420     2 1s    0.70420
    2.1     2.00000   -11.24091     1 1s    0.70451     2 1s   -0.70451
    3.1     2.00000    -1.04197     1 1s    0.31001     2 1s    0.31001
    4.1     2.00000    -0.79935     1 1s    0.28877     2 1s   -0.28877
    5.1     2.00000    -0.64996     1 2py   0.32712     2 2py   0.32712
    6.1     2.00000    -0.59717     1 2pz   0.40839     2 2pz  -0.40839
    7.1     2.00000    -0.51039     1 2py   0.31156     2 2py  -0.31156
    8.1     1.00000    -0.22655     1 2px   0.35718     1 2px   0.31942     2 2px   0.35718     2 2px   0.31942
    9.1     1.00000     0.03083     1 2px   0.37794     1 2px   0.67653     2 2px  -0.37794     2 2px  -0.67653
   10.1    -0.00000     0.26352     1 1s   -1.48288     1 2pz  -0.65096     2 1s   -1.48288     2 2pz   0.65096     3 1s    1.03939
                                    4 1s    1.03939     5 1s    1.03939     6 1s    1.03939
   11.1    -0.00000     0.28517     1 2py  -0.25112     1 2py  -0.79517     2 2py  -0.25112     2 2py  -0.79517     3 1s    1.08727
                                    4 1s   -1.08727     5 1s    1.08727     6 1s   -1.08727
   12.1    -0.00000     0.30502     1 1s    1.95358     2 1s   -1.95358     3 1s   -1.06813     4 1s   -1.06813     5 1s    1.06813
                                    6 1s    1.06813
   13.1    -0.00000     0.38485     1 2py  -0.25022     1 2py  -1.83898     2 2py   0.25022     2 2py   1.83898     3 1s    1.59842
                                    4 1s   -1.59842     5 1s   -1.59842     6 1s    1.59842
   14.1    -0.00000     0.48711     1 1s   -2.96764     1 2pz   2.91641     2 1s    2.96764     2 2pz   2.91641     3 1s   -0.58664
                                    4 1s   -0.58664     5 1s    0.58664     6 1s    0.58664
   15.1    -0.00000     0.65768     1 1s    0.25795     1 2pz  -0.54839     1 2pz   1.01304     2 1s    0.25795     2 2pz   0.54839
                                    2 2pz  -1.01304
   16.1    -0.00000     0.75227     1 2py  -0.41106     1 2py   0.77337     2 2py  -0.41106     2 2py   0.77337     3 1s   -0.38247
                                    4 1s    0.38247     5 1s   -0.38247     6 1s    0.38247
   17.1    -0.00000     0.77196     1 2px  -0.74623     1 2px   0.63657     2 2px  -0.74623     2 2px   0.63657
   18.1    -0.00000     0.86771     1 1s   -0.88382     1 1s    1.49212     1 2pz   0.38851     2 1s   -0.88382     2 1s    1.49212
                                    2 2pz  -0.38851     3 1s   -0.39436     4 1s   -0.39436     5 1s   -0.39436     6 1s   -0.39436
   19.1    -0.00000     0.87219     1 2px  -0.79485     1 2px   1.11449     2 2px   0.79485     2 2px  -1.11449
   20.1    -0.00000     0.93866     1 1s   -0.68059     1 2pz   0.61194     1 2pz  -0.56167     2 1s    0.68059     2 2pz   0.61194
                                    2 2pz  -0.56167     3 1s    0.38296     4 1s    0.38296     5 1s   -0.38296     6 1s   -0.38296
   21.1    -0.00000     1.09830     1 2py  -0.67717     1 2py   1.10026     2 2py  -0.67717     2 2py   1.10026     3 1s    0.38308
                                    3 1s   -1.07080     4 1s   -0.38308     4 1s    1.07080     5 1s    0.38308     5 1s   -1.07080
                                    6 1s   -0.38308     6 1s    1.07080
   22.1    -0.00000     1.12570     1 2py   0.91017     1 2py  -3.01095     2 2py  -0.91017     2 2py   3.01095     3 1s    1.47685
                                    4 1s   -1.47685     5 1s   -1.47685     6 1s    1.47685
   23.1    -0.00000     1.21073     1 1s    1.02911     1 1s   -1.71964     1 2pz   0.36869     1 2pz  -0.50098     2 1s    1.02911
                                    2 1s   -1.71964     2 2pz  -0.36869     2 2pz   0.50098     3 1s   -0.44089     3 1s    0.86620
                                    4 1s   -0.44089     4 1s    0.86620     5 1s   -0.44089     5 1s    0.86620     6 1s   -0.44089
                                    6 1s    0.86620
   24.1    -0.00000     1.21577     1 1s   -0.46508     1 1s    0.29755     1 2pz  -0.63639     1 2pz   1.30226     2 1s    0.46508
                                    2 1s   -0.29755     2 2pz  -0.63639     2 2pz   1.30226     3 1s    0.47126     3 1s   -0.95514
                                    4 1s    0.47126     4 1s   -0.95514     5 1s   -0.47126     5 1s    0.95514     6 1s   -0.47126
                                    6 1s    0.95514
   25.1    -0.00000     1.31940     1 1s   -1.61432     1 1s    5.42127     1 2pz  -1.86244     2 1s    1.61432     2 1s   -5.42127
                                    2 2pz  -1.86244     3 1s   -0.37274     4 1s   -0.37274     5 1s    0.37274     6 1s    0.37274
   26.1    -0.00000     1.39732     1 2py   1.88337     2 2py  -1.88337     3 1s   -0.66827     3 1s   -0.34497     4 1s    0.66827
                                    4 1s    0.34497     5 1s    0.66827     5 1s    0.34497     6 1s   -0.66827     6 1s   -0.34497
   27.1    -0.00000     1.71700     1 3d1+  0.61665     2 3d1+ -0.61665
   28.1    -0.00000     1.87550     1 2py  -1.11955     1 3d2-  0.66411     2 2py   1.11955     2 3d2-  0.66411     3 1s    0.39625
                                    4 1s   -0.39625     5 1s   -0.39625     6 1s    0.39625
   29.1    -0.00000     2.07419     1 3d2-  0.66985     1 3d1-  0.25896     2 3d2- -0.66985     2 3d1- -0.25896
   30.1    -0.00000     2.18009     1 1s   -0.61365     1 3d2+  0.70870     2 1s   -0.61365     2 3d2+  0.70870     3 1s    0.36975
                                    4 1s    0.36975     5 1s    0.36975     6 1s    0.36975
   31.1    -0.00000     2.34814     1 2py   0.25895     1 3d2- -0.31151     1 3d1-  0.63839     2 2py   0.25895     2 3d2-  0.31151
                                    2 3d1- -0.63839     3 1s   -0.49843     4 1s    0.49843     5 1s   -0.49843     6 1s    0.49843
   32.1    -0.00000     2.38739     1 1s   -0.50521     1 2pz   0.28896     1 2pz  -0.44738     1 3d0   0.69122     2 1s   -0.50521
                                    2 2pz  -0.28896     2 2pz   0.44738     2 3d0   0.69122
   33.1    -0.00000     2.59332     1 1s    0.29717     1 1s   -1.39120     1 2pz   0.28944     1 3d2+  0.79406     2 1s   -0.29717
                                    2 1s    1.39120     2 2pz   0.28944     2 3d2+ -0.79406     3 1s    0.44409     4 1s    0.44409
                                    5 1s   -0.44409     6 1s   -0.44409
   34.1    -0.00000     2.68939     1 2px  -0.25841     1 3d1+  0.89978     2 2px   0.25841     2 3d1+  0.89978
   35.1    -0.00000     3.03323     1 2py   0.50086     1 3d1-  0.96581     2 2py  -0.50086     2 3d1-  0.96581     3 1s   -0.47039
                                    4 1s    0.47039     5 1s    0.47039     6 1s   -0.47039
   36.1    -0.00000     3.04342     1 1s    0.30865     1 1s    2.03707     1 2pz  -0.78778     1 2pz  -1.18524     1 3d0   1.11149
                                    2 1s   -0.30865     2 1s   -2.03707     2 2pz  -0.78778     2 2pz  -1.18524     2 3d0  -1.11149


 Natural orbital dump (state averaged) at molpro section  2140.2    (Orbital set 2)



 **********************************************************************************************************************************
 DATASETS  * FILE   NREC   LENGTH (MB)   RECORD NAMES
              1      20       31.69       500      610      700      900      950      970     1000      129      960     1100   
                                          VAR    BASINP    GEOM    SYMINP    ZMAT    AOBASIS   BASIS     P2S    ABASIS      S 
                                         1400     1410     1200     1210     1080     1600     1650     1300     1700     1380   
                                           T        V       H0       H01     AOSYM     SMH    MOLCAS    ERIS     OPER     JKOP   

              2       5        5.42       700     1000      520     2100     2140   
                                         GEOM     BASIS   MCVARS     RHF     MCSCF   

 PROGRAMS   *        TOTAL     MULTI    HF-SCF       INT
 CPU TIMES  *         0.71      0.25      0.11      0.25
 REAL TIME  *         0.99 SEC
 DISK USED  *        38.88 MB
 **********************************************************************************************************************************
 Molecular orbitals read from record     2140.2  Type=MCSCF/NATURAL (state averaged)
 Occupation numbers read from record     2140.2  Type=MCSCF/NATURAL (state averaged)
 Orbital energies read from record       2140.2  Type=MCSCF/NATURAL (state averaged)
 Redundancy group numbers read from rec  2140.2  Type=MCSCF/NATURAL (state averaged)

 MULTI/6-31G* energy=    -77.487177253156

           MULTI          HF-SCF
    -77.48717725    -78.02855569
 **********************************************************************************************************************************
 Molpro calculation terminated
