
 Primary working directories    : /scratch.local/johan406.molpro_temp/molpro.rS8EzTcQou
 Secondary working directories  : /scratch.local/johan406.molpro_temp/molpro.rS8EzTcQou
 Wavefunction directory         : /home/goodpast/johan406/wfu/
 Main file repository           : /scratch.local/johan406.molpro_temp/molpro.rS8EzTcQou/

 id        : roweumn

 Nodes     nprocs
 cn0117       1

 Using customized tuning parameters: mindgm=1; mindgv=20; mindgc=4; mindgr=1; noblas=0; minvec=7
 default implementation of scratch files=df  


 Variables initialized (934), CPU time= 0.00 sec
                                                                                 !leave this line blank
 
 gprint, orbitals=30
 memory, 125., m
 symmetry, nosym
 nelect=16
 basis=6-31g*
 
 geometry={
 C -0.0 0.0 0.6691
 C 0.0 0.0 -0.6691
 H 0.116 0.9149 1.2348
 H -0.116 -0.9149 1.2348
 H -0.116 0.9149 -1.2348
 H 0.116 -0.9149 -1.2348
 }
 
 hf
 {multi,
 closed 7
 occ 9
 wf,spin=0;STATE,3
 }
 
 Commands  initialized (763), CPU time= 0.01 sec, 617 directives.
 Default parameters read. Elapsed time= 0.08 sec

 Checking input...
 Passed
1


                                         ***  PROGRAM SYSTEM MOLPRO  ***
                                       Copyright, TTI GmbH Stuttgart, 2015
                                    Version 2019.2 linked Oct 25 2019 22:50:27


 **********************************************************************************************************************************
 LABEL *                                                                                 
  64 bit serial version                                                                  DATE: 26-Jan-23          TIME: 19:57:22  
 **********************************************************************************************************************************

 SHA1:             8dbd9ae1082e4ce945b0f27595c9eb2d4aa09004
 **********************************************************************************************************************************


 Variable memory set to  125000000 words,  buffer space 

 SETTING NELECT         =        16.00000000                                  
 SETTING BASIS          =    6-31G*
 ZSYMEL=NOSYM


Geometry recognized as XYZ



 Recomputing integrals since basis changed


 Using spherical harmonics

 Library entry C      S 6-31G                selected for orbital group  1
 Library entry C      P 6-31G                selected for orbital group  1
 Library entry C      D 6-31G*               selected for orbital group  1
 Library entry H      S 6-31G                selected for orbital group  2


 PROGRAM * SEWARD (Integral evaluation for generally contracted gaussian basis sets)     Author: Roland Lindh, 1990

 Geometry written to block  1 of record 700


 Point group  C1  



 ATOMIC COORDINATES

 NR  ATOM    CHARGE       X              Y              Z

   1  C       6.00   -0.000000000    0.000000000    1.264415750
   2  C       6.00    0.000000000    0.000000000   -1.264415750
   3  H       1.00    0.219208230    1.728910431    2.333433819
   4  H       1.00   -0.219208230   -1.728910431    2.333433819
   5  H       1.00   -0.219208230    1.728910431   -2.333433819
   6  H       1.00    0.219208230   -1.728910431   -2.333433819

 Bond lengths in Bohr (Angstrom)

 1-2  2.528831500  1-3  2.044500711  1-4  2.044500711  2-5  2.044500711  2-6  2.044500711
     ( 1.338200000)     ( 1.081903184)     ( 1.081903184)     ( 1.081903184)     ( 1.081903184)

 Bond angles

  1-2-5  121.52529123   1-2-6  121.52529123   2-1-3  121.52529123   2-1-4  121.52529123

  3-1-4  116.94941753   5-2-6  116.94941753

 NUCLEAR CHARGE:                   16
 NUMBER OF PRIMITIVE AOS:          72
 NUMBER OF SYMMETRY AOS:           70
 NUMBER OF CONTRACTIONS:           36   (   36A   )
 NUMBER OF CORE ORBITALS:           2   (    2A   )
 NUMBER OF VALENCE ORBITALS:       12   (   12A   )


 NUCLEAR REPULSION ENERGY   33.32287982


 Eigenvalues of metric

         1 0.831E-02 0.182E-01 0.382E-01 0.477E-01 0.703E-01 0.192E+00 0.213E+00 0.226E+00


 Contracted 2-electron integrals neglected if value below      1.0D-11
 AO integral compression algorithm  1   Integral accuracy      1.0D-11

     1.049 MB (compressed) written to integral file ( 50.5%)


 NUMBER OF SORTED TWO-ELECTRON INTEGRALS:     222111.     BUFFER LENGTH:  32768
 NUMBER OF SEGMENTS:   1  SEGMENT LENGTH:     222111      RECORD LENGTH: 524288

 Memory used in sort:       0.78 MW

 SORT1 READ      284735. AND WROTE      156935. INTEGRALS IN      1 RECORDS. CPU TIME:     0.00 SEC, REAL TIME:     0.00 SEC
 SORT2 READ      156935. AND WROTE      222111. INTEGRALS IN      4 RECORDS. CPU TIME:     0.02 SEC, REAL TIME:     0.03 SEC

 FILE SIZES:   FILE 1:    31.1 MBYTE,  FILE 4:     4.2 MBYTE,   TOTAL:     35.4 MBYTE

 OPERATOR DM      FOR CENTER  0  COORDINATES:    0.000000    0.000000    0.000000


 **********************************************************************************************************************************
 DATASETS  * FILE   NREC   LENGTH (MB)   RECORD NAMES
              1      19       30.88       500      610      700      900      950      970     1000      129      960     1100   
                                          VAR    BASINP    GEOM    SYMINP    ZMAT    AOBASIS   BASIS     P2S    ABASIS      S 
                                         1400     1410     1200     1210     1080     1600     1650     1300     1700   
                                           T        V       H0       H01     AOSYM     SMH    MOLCAS    ERIS     OPER   

 PROGRAMS   *        TOTAL       INT
 CPU TIMES  *         0.36      0.26
 REAL TIME  *         0.57 SEC
 DISK USED  *        35.71 MB
 **********************************************************************************************************************************


 PROGRAM * RHF-SCF (CLOSED SHELL)       Authors: W. Meyer, H.-J. Werner


 NUMBER OF ELECTRONS:       8+    8-    SPACE SYMMETRY=1    SPIN SYMMETRY: Singlet 
 CONVERGENCE THRESHOLDS:    1.00E-05 (Density)    1.00E-07 (Energy)
 MAX. NUMBER OF ITERATIONS:       60
 INTERPOLATION TYPE:            DIIS
 INTERPOLATION STEPS:              2 (START)      1 (STEP)
 LEVEL SHIFTS:                  0.00 (CLOSED)  0.00 (OPEN) 



 Orbital guess generated from atomic densities. Full valence occupancy:    8

 Molecular orbital dump at record        2100.2

 Initial occupancy:   8

 ITERATION    DDIFF          GRAD             ENERGY        2-EL.EN.            DIPOLE MOMENTS         DIIS   ORB.
    1      0.000D+00      0.000D+00       -78.00172776    118.573573    0.00000    0.00000   -0.00000    0    start
    2      0.000D+00      0.856D-02       -78.02358805    116.732352   -0.00000    0.00000    0.00000    1    diag
    3      0.820D-02      0.292D-02       -78.02573405    117.366069   -0.00000   -0.00000   -0.00000    2    diag
    4      0.265D-02      0.716D-03       -78.02595037    117.266441   -0.00000   -0.00000   -0.00000    3    diag
    5      0.107D-02      0.741D-04       -78.02595315    117.269437    0.00000   -0.00000   -0.00000    4    diag
    6      0.152D-03      0.115D-04       -78.02595324    117.268964    0.00000    0.00000   -0.00000    5    diag
    7      0.180D-04      0.281D-05       -78.02595324    117.268983    0.00000   -0.00000   -0.00000    6    diag
    8      0.412D-05      0.449D-06       -78.02595324    117.268975   -0.00000   -0.00000   -0.00000    0    orth

 Final occupancy:   8

 !RHF STATE  1.1 Energy               -78.025953242312
 Nuclear energy                        33.32287982
 One-electron energy                 -169.98332047
 Two-electron energy                   58.63448740
 Virial quotient                       -1.00046779
 !RHF STATE  1.1 Dipole moment         -0.00000000    -0.00000000    -0.00000000
 Dipole moment /Debye                  -0.00000000    -0.00000000    -0.00000000

 ELECTRON ORBITALS
 =================

  Orbital  Occupation    Energy     Coefficients
    1.1     2.00000   -11.22659     1 1s    0.70419     2 1s    0.70419
    2.1     2.00000   -11.22500     1 1s    0.70455     2 1s   -0.70455
    3.1     2.00000    -1.02626     1 1s    0.30208     2 1s    0.30208
    4.1     2.00000    -0.78923     1 1s    0.24440
    5.1     2.00000    -0.63631     1 2py   0.32018     2 2py   0.32018
    6.1     2.00000    -0.58107     1 2pz   0.40665     2 2pz  -0.40665
    7.1     2.00000    -0.50836     1 2py   0.29468     2 2py  -0.29468
    8.1     2.00000    -0.36434     1 2px   0.36365     1 2px   0.30488     2 2px   0.36365     2 2px   0.30488
    9.1     0.00000     0.17380     1 2px   0.33609     1 2px   0.70560     2 2px  -0.33609     2 2px  -0.70560
   10.1     0.00000     0.26619     1 1s   -1.47900     1 2pz  -0.64037     2 1s   -1.47900     2 2pz   0.64037     3 1s    1.03292
                                    4 1s    1.03292     5 1s    1.03292     6 1s    1.03292
   11.1     0.00000     0.29552     1 2px  -0.25821     1 2py  -0.79399     2 2px   0.25821     2 2py  -0.79399     3 1s    1.09499
                                    4 1s   -1.09499     5 1s    1.09499     6 1s   -1.09499
   12.1     0.00000     0.30640     1 1s    1.89282     2 1s   -1.89282     3 1s   -1.06784     4 1s   -1.06784     5 1s    1.06784
                                    6 1s    1.06784
   13.1     0.00000     0.38908     1 2py  -1.84573     2 2py   1.84573     3 1s    1.60279     4 1s   -1.60279     5 1s   -1.60279
                                    6 1s    1.60279
   14.1     0.00000     0.48845     1 1s   -3.01597     1 2pz   2.93502     2 1s    3.01597     2 2pz   2.93502     3 1s   -0.56256
                                    4 1s   -0.56256     5 1s    0.56256     6 1s    0.56256
   15.1     0.00000     0.66917     1 2pz  -0.55626     1 2pz   1.03468     2 2pz   0.55626     2 2pz  -1.03468
   16.1     0.00000     0.77020     1 2py  -0.40396     1 2py   0.77738     2 2py  -0.40396     2 2py   0.77738     3 1s   -0.38716
                                    4 1s    0.38716     5 1s   -0.38716     6 1s    0.38716
   17.1     0.00000     0.77831     1 2px  -0.73410     1 2px   0.63875     2 2px  -0.73410     2 2px   0.63875
   18.1     0.00000     0.86386     1 1s   -0.87779     1 1s    1.43631     1 2pz   0.33114     2 1s   -0.87779     2 1s    1.43631
                                    2 2pz  -0.33114     3 1s   -0.40146     4 1s   -0.40146     5 1s   -0.40146     6 1s   -0.40146
   19.1     0.00000     0.88877     1 2px  -0.81151     1 2px   1.06927     2 2px   0.81151     2 2px  -1.06927
   20.1     0.00000     0.95382     1 1s   -0.87195     1 2pz   0.60559     1 2pz  -0.43497     2 1s    0.87195     2 2pz   0.60559
                                    2 2pz  -0.43497     3 1s    0.38282     4 1s    0.38282     5 1s   -0.38282     6 1s   -0.38282
   21.1     0.00000     1.11404     1 2py  -0.68260     1 2py   1.09203     2 2py  -0.68260     2 2py   1.09203     3 1s    0.38195
                                    3 1s   -1.06009     4 1s   -0.38195     4 1s    1.06009     5 1s    0.38195     5 1s   -1.06009
                                    6 1s   -0.38195     6 1s    1.06009
   22.1     0.00000     1.15279     1 2py   0.91494     1 2py  -2.91523     2 2py  -0.91494     2 2py   2.91523     3 1s    1.48248
                                    4 1s   -1.48248     5 1s   -1.48248     6 1s    1.48248
   23.1     0.00000     1.21021     1 1s    1.04392     1 1s   -1.74015     1 2pz   0.36364     1 2pz  -0.49911     2 1s    1.04392
                                    2 1s   -1.74015     2 2pz  -0.36364     2 2pz   0.49911     3 1s   -0.43522     3 1s    0.87000
                                    4 1s   -0.43522     4 1s    0.87000     5 1s   -0.43522     5 1s    0.87000     6 1s   -0.43522
                                    6 1s    0.87000
   24.1     0.00000     1.21437     1 1s   -0.54965     1 1s    0.58050     1 2pz  -0.61828     1 2pz   1.18356     2 1s    0.54965
                                    2 1s   -0.58050     2 2pz  -0.61828     2 2pz   1.18356     3 1s    0.46724     3 1s   -0.96433
                                    4 1s    0.46724     4 1s   -0.96433     5 1s   -0.46724     5 1s    0.96433     6 1s   -0.46724
                                    6 1s    0.96433
   25.1     0.00000     1.33656     1 1s   -1.57941     1 1s    5.36217     1 2pz   0.27438     1 2pz  -1.95447     2 1s    1.57941
                                    2 1s   -5.36217     2 2pz   0.27438     2 2pz  -1.95447     3 1s   -0.30145     4 1s   -0.30145
                                    5 1s    0.30145     6 1s    0.30145
   26.1     0.00000     1.43027     1 2py   2.21318     2 2py  -2.21318     3 1s   -0.66296     3 1s   -0.52464     4 1s    0.66296
                                    4 1s    0.52464     5 1s    0.66296     5 1s    0.52464     6 1s   -0.66296     6 1s   -0.52464
   27.1     0.00000     1.77931     1 2py   0.94890     1 3d1+  0.59898     2 2py  -0.94890     2 3d1+ -0.59898     3 1s   -0.29771
                                    4 1s    0.29771     5 1s    0.29771     6 1s   -0.29771
   28.1     0.00000     1.83413     1 1s    0.34182     1 3d2-  0.67407     2 1s   -0.34182     2 3d2-  0.67407
   29.1     0.00000     2.07393     1 1s   -0.31848     1 3d2-  0.55405     1 3d2+  0.46069     2 1s   -0.31848     2 3d2- -0.55405
                                    2 3d2+  0.46069
   30.1     0.00000     2.25884     1 1s   -0.51495     1 3d2- -0.47946     1 3d2+  0.53416     2 1s   -0.51495     2 3d2-  0.47946
                                    2 3d2+  0.53416     3 1s    0.31980     4 1s    0.31980     5 1s    0.31980     6 1s    0.31980
   31.1     0.00000     2.31588     1 2py   0.26508     1 3d1-  0.68553     2 2py   0.26508     2 3d1- -0.68553     3 1s   -0.50689
                                    4 1s    0.50689     5 1s   -0.50689     6 1s    0.50689
   32.1     0.00000     2.41149     1 1s   -0.49633     1 2pz   0.27614     1 2pz  -0.45148     1 3d0   0.67988     2 1s   -0.49633
                                    2 2pz  -0.27614     2 2pz   0.45148     2 3d0   0.67988
   33.1     0.00000     2.60852     1 1s    0.29579     1 1s   -1.36111     1 2pz   0.28658     1 3d2+  0.78713     2 1s   -0.29579
                                    2 1s    1.36111     2 2pz   0.28658     2 3d2+ -0.78713     3 1s    0.43897     4 1s    0.43897
                                    5 1s   -0.43897     6 1s   -0.43897
   34.1     0.00000     2.71501     1 2px  -0.25581     1 3d1+  0.90069     2 2px   0.25581     2 3d1+  0.90069
   35.1     0.00000     3.04329     1 2py   0.51197     1 3d1-  0.96497     2 2py  -0.51197     2 3d1-  0.96497     3 1s   -0.46524
                                    4 1s    0.46524     5 1s    0.46524     6 1s   -0.46524
   36.1     0.00000     3.06239     1 1s    0.31579     1 1s    2.02160     1 2pz  -0.79707     1 2pz  -1.17351     1 3d0   1.11193
                                    2 1s   -0.31579     2 1s   -2.02160     2 2pz  -0.79707     2 2pz  -1.17351     2 3d0  -1.11193


 HOMO      8.1    -0.364341 =      -9.9142eV
 LUMO      9.1     0.173796 =       4.7292eV
 LUMO-HOMO         0.538138 =      14.6435eV


 **********************************************************************************************************************************
 DATASETS  * FILE   NREC   LENGTH (MB)   RECORD NAMES
              1      19       30.88       500      610      700      900      950      970     1000      129      960     1100   
                                          VAR    BASINP    GEOM    SYMINP    ZMAT    AOBASIS   BASIS     P2S    ABASIS      S 
                                         1400     1410     1200     1210     1080     1600     1650     1300     1700   
                                           T        V       H0       H01     AOSYM     SMH    MOLCAS    ERIS     OPER   

              2       4        2.86       700     1000      520     2100   
                                         GEOM     BASIS   MCVARS     RHF  

 PROGRAMS   *        TOTAL    HF-SCF       INT
 CPU TIMES  *         0.47      0.11      0.26
 REAL TIME  *         0.71 SEC
 DISK USED  *        35.71 MB
 **********************************************************************************************************************************


 PROGRAM * MULTI (Direct Multiconfiguration SCF)       Authors: P.J. Knowles, H.-J. Werner (1984)


 Number of closed-shell orbitals:   7 (   7 )
 Number of active  orbitals:        2 (   2 )
 Number of external orbitals:      27 (  27 )

 State symmetry 1

 Number of electrons:     2    Spin symmetry=Singlet   Space symmetry=1
 Number of states:        3
 Number of CSFs:          3   (4 determinants, 4 intermediate states)

 Molecular orbitals read from record     2100.2  Type=RHF/CANONICAL (state 1.1)

 Wavefunction dump at record             2140.2

 Convergence thresholds  0.10E-01 (gradient)  0.10E-05 (energy)  0.10E-02 (step length)

 Weight factors for state symmetry  1:    0.33333   0.33333   0.33333

 Number of orbital rotations:      257   (    14 Core/Active    189 Core/Virtual   0 Active/Active     54 Active/Virtual)
 Total number of variables:        269

 Micro-Iterations solved by the two-step solver

 ITER. MIC  NCI  NEG     ENERGY(VAR)     ENERGY(PROJ)   ENERGY CHANGE     GRAD(0)  GRAD(ORB)   GRAD(CI)     STEP       TIME

   1    8    7    0     -77.73911760     -77.74862228   -0.00950468    0.12905234 0.00021959 0.00000000  0.10D+00      0.12
   2    4    4    0     -77.74847355     -77.74848265   -0.00000910    0.00372171 0.00000070 0.00000000  0.56D-02      0.19
   3    3    3    0     -77.74848267     -77.74848267   -0.00000000    0.00000914 0.00000000 0.00000000  0.24D-04      0.24

 ** WVFN ****  CONVERGENCE REACHED, FINAL GRADIENT:  0.22D-09



 Results for state 1.1
 =====================

 !MCSCF STATE  1.1 Energy             -78.038932925132
 Nuclear energy                        33.32287982
 Kinetic energy                        78.03496625
 One electron energy                 -170.09293475
 Two electron energy                   58.73112200
 Virial ratio                           2.00005083

 !MCSCF STATE  1.1 Dipole moment       -0.00000000    -0.00000000     0.00000000
 Dipole moment /Debye                  -0.00000000    -0.00000000     0.00000000

 Results for state 2.1
 =====================

 !MCSCF STATE  2.1 Energy             -77.694271611747
 Nuclear energy                        33.32287982
 Kinetic energy                        78.19522163
 One electron energy                 -169.58091346
 Two electron energy                   58.56376203
 Virial ratio                           1.99359360

 !MCSCF STATE  2.1 Dipole moment       -0.00000000    -0.00000000    -0.00000000
 Dipole moment /Debye                  -0.00000000    -0.00000000    -0.00000000

 Results for state 3.1
 =====================

 !MCSCF STATE  3.1 Energy             -77.512243470097
 Nuclear energy                        33.32287982
 Kinetic energy                        78.35547700
 One electron energy                 -169.06889217
 Two electron energy                   58.23376888
 Virial ratio                           1.98923836

 !MCSCF STATE  3.1 Dipole moment       -0.00000000     0.00000000     0.00000000
 Dipole moment /Debye                  -0.00000000     0.00000000     0.00000000

 State-averaged charge density matrix saved on record  2140.2 (density set 1)

 !MCSCF trans         <2.1|DMZ|1.1>    -1.315338859113 au =    -3.343038937545 Debye
 !MCSCF trans         <3.1|DMZ|2.1>    -1.897529141162 au =    -4.822722114595 Debye


 NATURAL ORBITALS (state averaged)
 =================================

  Orbital  Occupation    Energy     Coefficients
    1.1     2.00000   -11.23957     1 1s    0.70420     2 1s    0.70420
    2.1     2.00000   -11.23820     1 1s    0.70451     2 1s   -0.70451
    3.1     2.00000    -1.03819     1 1s    0.30864     2 1s    0.30864
    4.1     2.00000    -0.79589     1 1s    0.28058     2 1s   -0.28058
    5.1     2.00000    -0.64431     1 2py   0.32563     2 2py   0.32563
    6.1     2.00000    -0.59385     1 2pz   0.40807     2 2pz  -0.40807
    7.1     2.00000    -0.51462     1 2py   0.28271     2 2py  -0.28271
    8.1     1.00000     0.02677     1 2px   0.37078     1 2px   0.63393     2 2px  -0.37078     2 2px  -0.63393
    9.1     1.00000    -0.21983     1 2px   0.33243     1 2px   0.30472     2 2px   0.33243     2 2px   0.30472
   10.1    -0.00000     0.26268     1 1s   -1.47510     1 2pz  -0.64505     2 1s   -1.47510     2 2pz   0.64505     3 1s    1.03238
                                    4 1s    1.03238     5 1s    1.03238     6 1s    1.03238
   11.1    -0.00000     0.28813     1 2px  -0.30189     1 2py  -0.77544     2 2px   0.30189     2 2py  -0.77544     3 1s    1.08019
                                    4 1s   -1.08019     5 1s    1.08019     6 1s   -1.08019
   12.1    -0.00000     0.30244     1 1s    1.91056     2 1s   -1.91056     3 1s   -1.06387     4 1s   -1.06387     5 1s    1.06387
                                    6 1s    1.06387
   13.1    -0.00000     0.38438     1 2py  -1.83929     2 2py   1.83929     3 1s    1.59736     4 1s   -1.59736     5 1s   -1.59736
                                    6 1s    1.59736
   14.1    -0.00000     0.48580     1 1s   -3.00093     1 2pz   2.92119     2 1s    3.00093     2 2pz   2.92119     3 1s   -0.56917
                                    4 1s   -0.56917     5 1s    0.56917     6 1s    0.56917
   15.1    -0.00000     0.65951     1 2pz  -0.55017     1 2pz   1.01671     2 2pz   0.55017     2 2pz  -1.01671
   16.1    -0.00000     0.76127     1 2py  -0.41188     1 2py   0.77389     2 2py  -0.41188     2 2py   0.77389     3 1s   -0.38424
                                    4 1s    0.38424     5 1s   -0.38424     6 1s    0.38424
   17.1    -0.00000     0.77476     1 2px  -0.74023     1 2px   0.63630     2 2px  -0.74023     2 2px   0.63630
   18.1    -0.00000     0.86152     1 1s   -0.86990     1 1s    1.45162     1 2pz   0.36585     2 1s   -0.86990     2 1s    1.45162
                                    2 2pz  -0.36585     3 1s   -0.40439     4 1s   -0.40439     5 1s   -0.40439     6 1s   -0.40439
   19.1    -0.00000     0.87196     1 2px  -0.79318     1 2px   1.09159     2 2px   0.79318     2 2px  -1.09159
   20.1    -0.00000     0.93669     1 1s   -0.74893     1 2pz   0.60653     1 2pz  -0.49475     2 1s    0.74893     2 2pz   0.60653
                                    2 2pz  -0.49475     3 1s    0.38489     4 1s    0.38489     5 1s   -0.38489     6 1s   -0.38489
   21.1    -0.00000     1.09984     1 2py  -0.67183     1 2py   1.09545     2 2py  -0.67183     2 2py   1.09545     3 1s    0.38136
                                    3 1s   -1.06867     4 1s   -0.38136     4 1s    1.06867     5 1s    0.38136     5 1s   -1.06867
                                    6 1s   -0.38136     6 1s    1.06867
   22.1    -0.00000     1.14204     1 2py   0.91372     1 2py  -2.91193     2 2py  -0.91372     2 2py   2.91193     3 1s    1.48649
                                    4 1s   -1.48649     5 1s   -1.48649     6 1s    1.48649
   23.1    -0.00000     1.20570     1 1s    1.04242     1 1s   -1.74100     1 2pz   0.36660     1 2pz  -0.50448     2 1s    1.04242
                                    2 1s   -1.74100     2 2pz  -0.36660     2 2pz   0.50448     3 1s   -0.43496     3 1s    0.87050
                                    4 1s   -0.43496     4 1s    0.87050     5 1s   -0.43496     5 1s    0.87050     6 1s   -0.43496
                                    6 1s    0.87050
   24.1    -0.00000     1.21078     1 1s   -0.50450     1 1s    0.43376     1 2pz  -0.63122     1 2pz   1.24262     2 1s    0.50450
                                    2 1s   -0.43376     2 2pz  -0.63122     2 2pz   1.24262     3 1s    0.46794     3 1s   -0.95605
                                    4 1s    0.46794     4 1s   -0.95605     5 1s   -0.46794     5 1s    0.95605     6 1s   -0.46794
                                    6 1s    0.95605
   25.1    -0.00000     1.32007     1 1s   -1.59605     1 1s    5.38534     1 2pz   0.25563     1 2pz  -1.91931     2 1s    1.59605
                                    2 1s   -5.38534     2 2pz   0.25563     2 2pz  -1.91931     3 1s   -0.33044     4 1s   -0.33044
                                    5 1s    0.33044     6 1s    0.33044
   26.1    -0.00000     1.41659     1 2py   2.20807     2 2py  -2.20807     3 1s   -0.65636     3 1s   -0.52194     4 1s    0.65636
                                    4 1s    0.52194     5 1s    0.65636     5 1s    0.52194     6 1s   -0.65636     6 1s   -0.52194
   27.1    -0.00000     1.76160     1 2py   0.98540     1 3d1+  0.59578     2 2py  -0.98540     2 3d1+ -0.59578     3 1s   -0.30849
                                    4 1s    0.30849     5 1s    0.30849     6 1s   -0.30849
   28.1    -0.00000     1.82356     1 1s    0.33916     1 3d2-  0.67390     2 1s   -0.33916     2 3d2-  0.67390
   29.1    -0.00000     2.05317     1 1s   -0.31236     1 3d2-  0.55797     1 3d2+  0.45679     2 1s   -0.31236     2 3d2- -0.55797
                                    2 3d2+  0.45679
   30.1    -0.00000     2.24626     1 1s   -0.51522     1 3d2- -0.47367     1 3d2+  0.53746     2 1s   -0.51522     2 3d2-  0.47367
                                    2 3d2+  0.53746     3 1s    0.32190     4 1s    0.32190     5 1s    0.32190     6 1s    0.32190
   31.1    -0.00000     2.29987     1 2py   0.27123     1 3d1-  0.68350     2 2py   0.27123     2 3d1- -0.68350     3 1s   -0.50875
                                    4 1s    0.50875     5 1s   -0.50875     6 1s    0.50875
   32.1    -0.00000     2.39467     1 1s   -0.49448     1 2pz   0.28041     1 2pz  -0.45374     1 3d0   0.67909     2 1s   -0.49448
                                    2 2pz  -0.28041     2 2pz   0.45374     2 3d0   0.67909
   33.1    -0.00000     2.59063     1 1s    0.29806     1 1s   -1.36694     1 2pz   0.28493     1 3d2+  0.78661     2 1s   -0.29806
                                    2 1s    1.36694     2 2pz   0.28493     2 3d2+ -0.78661     3 1s    0.44100     4 1s    0.44100
                                    5 1s   -0.44100     6 1s   -0.44100
   34.1    -0.00000     2.69740     1 2px  -0.25623     1 3d1+  0.90030     2 2px   0.25623     2 3d1+  0.90030
   35.1    -0.00000     3.03099     1 2py   0.51130     1 3d1-  0.96476     2 2py  -0.51130     2 3d1-  0.96476     3 1s   -0.46676
                                    4 1s    0.46676     5 1s    0.46676     6 1s   -0.46676
   36.1    -0.00000     3.04730     1 1s    0.30989     1 1s    2.04353     1 2pz  -0.79119     1 2pz  -1.18441     1 3d0   1.11321
                                    2 1s   -0.30989     2 1s   -2.04353     2 2pz  -0.79119     2 2pz  -1.18441     2 3d0  -1.11321


 Natural orbital dump (state averaged) at molpro section  2140.2    (Orbital set 2)



 **********************************************************************************************************************************
 DATASETS  * FILE   NREC   LENGTH (MB)   RECORD NAMES
              1      20       31.60       500      610      700      900      950      970     1000      129      960     1100   
                                          VAR    BASINP    GEOM    SYMINP    ZMAT    AOBASIS   BASIS     P2S    ABASIS      S 
                                         1400     1410     1200     1210     1080     1600     1650     1300     1700     1380   
                                           T        V       H0       H01     AOSYM     SMH    MOLCAS    ERIS     OPER     JKOP   

              2       5        5.42       700     1000      520     2100     2140   
                                         GEOM     BASIS   MCVARS     RHF     MCSCF   

 PROGRAMS   *        TOTAL     MULTI    HF-SCF       INT
 CPU TIMES  *         0.76      0.29      0.11      0.26
 REAL TIME  *         1.05 SEC
 DISK USED  *        38.79 MB
 **********************************************************************************************************************************
 Molecular orbitals read from record     2140.2  Type=MCSCF/NATURAL (state averaged)
 Occupation numbers read from record     2140.2  Type=MCSCF/NATURAL (state averaged)
 Orbital energies read from record       2140.2  Type=MCSCF/NATURAL (state averaged)
 Redundancy group numbers read from rec  2140.2  Type=MCSCF/NATURAL (state averaged)

 MULTI/6-31G* energy=    -77.512243470097

           MULTI          HF-SCF
    -77.51224347    -78.02595324
 **********************************************************************************************************************************
 Molpro calculation terminated
