
 Primary working directories    : /scratch.local/johan406.molpro_temp/molpro.qsq6MfObM4
 Secondary working directories  : /scratch.local/johan406.molpro_temp/molpro.qsq6MfObM4
 Wavefunction directory         : /home/goodpast/johan406/wfu/
 Main file repository           : /scratch.local/johan406.molpro_temp/molpro.qsq6MfObM4/

 id        : roweumn

 Nodes     nprocs
 cn0117       1

 Using customized tuning parameters: mindgm=1; mindgv=20; mindgc=4; mindgr=1; noblas=0; minvec=7
 default implementation of scratch files=df  


 Variables initialized (934), CPU time= 0.00 sec
                                                                                 !leave this line blank
 
 gprint, orbitals=30
 memory, 125., m
 symmetry, nosym
 nelect=16
 basis=6-31g*
 
 geometry={
 C -0.0 0.0 0.6691
 C 0.0 0.0 -0.6691
 H 0.16 0.9149 1.2348
 H -0.16 -0.9149 1.2348
 H -0.16 0.9149 -1.2348
 H 0.16 -0.9149 -1.2348
 }
 
 hf
 {multi,
 closed 7
 occ 9
 wf,spin=0;STATE,3
 }
 
 Commands  initialized (763), CPU time= 0.00 sec, 617 directives.
 Default parameters read. Elapsed time= 0.09 sec

 Checking input...
 Passed
1


                                         ***  PROGRAM SYSTEM MOLPRO  ***
                                       Copyright, TTI GmbH Stuttgart, 2015
                                    Version 2019.2 linked Oct 25 2019 22:50:27


 **********************************************************************************************************************************
 LABEL *                                                                                 
  64 bit serial version                                                                  DATE: 26-Jan-23          TIME: 19:59:35  
 **********************************************************************************************************************************

 SHA1:             8dbd9ae1082e4ce945b0f27595c9eb2d4aa09004
 **********************************************************************************************************************************


 Variable memory set to  125000000 words,  buffer space 

 SETTING NELECT         =        16.00000000                                  
 SETTING BASIS          =    6-31G*
 ZSYMEL=NOSYM


Geometry recognized as XYZ



 Recomputing integrals since basis changed


 Using spherical harmonics

 Library entry C      S 6-31G                selected for orbital group  1
 Library entry C      P 6-31G                selected for orbital group  1
 Library entry C      D 6-31G*               selected for orbital group  1
 Library entry H      S 6-31G                selected for orbital group  2


 PROGRAM * SEWARD (Integral evaluation for generally contracted gaussian basis sets)     Author: Roland Lindh, 1990

 Geometry written to block  1 of record 700


 Point group  C1  



 ATOMIC COORDINATES

 NR  ATOM    CHARGE       X              Y              Z

   1  C       6.00   -0.000000000    0.000000000    1.264415750
   2  C       6.00    0.000000000    0.000000000   -1.264415750
   3  H       1.00    0.302356180    1.728910431    2.333433819
   4  H       1.00   -0.302356180   -1.728910431    2.333433819
   5  H       1.00   -0.302356180    1.728910431   -2.333433819
   6  H       1.00    0.302356180   -1.728910431   -2.333433819

 Bond lengths in Bohr (Angstrom)

 1-2  2.528831500  1-3  2.055079115  1-4  2.055079115  2-5  2.055079115  2-6  2.055079115
     ( 1.338200000)     ( 1.087501034)     ( 1.087501034)     ( 1.087501034)     ( 1.087501034)

 Bond angles

  1-2-5  121.34455530   1-2-6  121.34455530   2-1-3  121.34455530   2-1-4  121.34455530

  3-1-4  117.31088941   5-2-6  117.31088941

 NUCLEAR CHARGE:                   16
 NUMBER OF PRIMITIVE AOS:          72
 NUMBER OF SYMMETRY AOS:           70
 NUMBER OF CONTRACTIONS:           36   (   36A   )
 NUMBER OF CORE ORBITALS:           2   (    2A   )
 NUMBER OF VALENCE ORBITALS:       12   (   12A   )


 NUCLEAR REPULSION ENERGY   33.24859860


 Eigenvalues of metric

         1 0.830E-02 0.190E-01 0.386E-01 0.492E-01 0.698E-01 0.192E+00 0.215E+00 0.227E+00


 Contracted 2-electron integrals neglected if value below      1.0D-11
 AO integral compression algorithm  1   Integral accuracy      1.0D-11

     1.049 MB (compressed) written to integral file ( 50.6%)


 NUMBER OF SORTED TWO-ELECTRON INTEGRALS:     222111.     BUFFER LENGTH:  32768
 NUMBER OF SEGMENTS:   1  SEGMENT LENGTH:     222111      RECORD LENGTH: 524288

 Memory used in sort:       0.78 MW

 SORT1 READ      284735. AND WROTE      156951. INTEGRALS IN      1 RECORDS. CPU TIME:     0.00 SEC, REAL TIME:     0.01 SEC
 SORT2 READ      156951. AND WROTE      222111. INTEGRALS IN      4 RECORDS. CPU TIME:     0.02 SEC, REAL TIME:     0.02 SEC

 FILE SIZES:   FILE 1:    31.1 MBYTE,  FILE 4:     4.2 MBYTE,   TOTAL:     35.4 MBYTE

 OPERATOR DM      FOR CENTER  0  COORDINATES:    0.000000    0.000000    0.000000


 **********************************************************************************************************************************
 DATASETS  * FILE   NREC   LENGTH (MB)   RECORD NAMES
              1      19       30.88       500      610      700      900      950      970     1000      129      960     1100   
                                          VAR    BASINP    GEOM    SYMINP    ZMAT    AOBASIS   BASIS     P2S    ABASIS      S 
                                         1400     1410     1200     1210     1080     1600     1650     1300     1700   
                                           T        V       H0       H01     AOSYM     SMH    MOLCAS    ERIS     OPER   

 PROGRAMS   *        TOTAL       INT
 CPU TIMES  *         0.34      0.25
 REAL TIME  *         0.57 SEC
 DISK USED  *        35.71 MB
 **********************************************************************************************************************************


 PROGRAM * RHF-SCF (CLOSED SHELL)       Authors: W. Meyer, H.-J. Werner


 NUMBER OF ELECTRONS:       8+    8-    SPACE SYMMETRY=1    SPIN SYMMETRY: Singlet 
 CONVERGENCE THRESHOLDS:    1.00E-05 (Density)    1.00E-07 (Energy)
 MAX. NUMBER OF ITERATIONS:       60
 INTERPOLATION TYPE:            DIIS
 INTERPOLATION STEPS:              2 (START)      1 (STEP)
 LEVEL SHIFTS:                  0.00 (CLOSED)  0.00 (OPEN) 



 Orbital guess generated from atomic densities. Full valence occupancy:    8

 Molecular orbital dump at record        2100.2

 Initial occupancy:   8

 ITERATION    DDIFF          GRAD             ENERGY        2-EL.EN.            DIPOLE MOMENTS         DIIS   ORB.
    1      0.000D+00      0.000D+00       -77.99730431    118.440757   -0.00000   -0.00000   -0.00000    0    start
    2      0.000D+00      0.853D-02       -78.01907930    116.597488   -0.00000    0.00000   -0.00000    1    diag
    3      0.819D-02      0.293D-02       -78.02124278    117.234042   -0.00000   -0.00000    0.00000    2    diag
    4      0.266D-02      0.720D-03       -78.02146553    117.133582   -0.00000   -0.00000   -0.00000    3    diag
    5      0.108D-02      0.793D-04       -78.02146895    117.136660   -0.00000   -0.00000   -0.00000    4    diag
    6      0.157D-03      0.137D-04       -78.02146908    117.136153    0.00000    0.00000   -0.00000    5    diag
    7      0.203D-04      0.347D-05       -78.02146909    117.136178   -0.00000   -0.00000    0.00000    6    diag
    8      0.535D-05      0.474D-06       -78.02146909    117.136169   -0.00000    0.00000   -0.00000    0    orth

 Final occupancy:   8

 !RHF STATE  1.1 Energy               -78.021469086128
 Nuclear energy                        33.24859860
 One-electron energy                 -169.83815225
 Two-electron energy                   58.56808456
 Virial quotient                       -1.00078681
 !RHF STATE  1.1 Dipole moment         -0.00000000     0.00000000    -0.00000000
 Dipole moment /Debye                  -0.00000000     0.00000000    -0.00000000

 ELECTRON ORBITALS
 =================

  Orbital  Occupation    Energy     Coefficients
    1.1     2.00000   -11.22796     1 1s    0.70419     2 1s    0.70419
    2.1     2.00000   -11.22637     1 1s    0.70455     2 1s   -0.70455
    3.1     2.00000    -1.02570     1 1s    0.30203     2 1s    0.30203
    4.1     2.00000    -0.78658     1 1s    0.24667
    5.1     2.00000    -0.63423     1 2py   0.31879     2 2py   0.31879
    6.1     2.00000    -0.57952     1 2pz   0.40610     2 2pz  -0.40610
    7.1     2.00000    -0.51044     1 2py   0.28600     2 2py  -0.28600
    8.1     2.00000    -0.36020     1 2px   0.35601     1 2px   0.30258     2 2px   0.35601     2 2px   0.30258
    9.1     0.00000     0.16968     1 2px   0.33128     1 2px   0.68274     2 2px  -0.33128     2 2px  -0.68274
   10.1     0.00000     0.26581     1 1s   -1.46247     1 2pz  -0.63397     2 1s   -1.46247     2 2pz   0.63397     3 1s    1.02486
                                    4 1s    1.02486     5 1s    1.02486     6 1s    1.02486
   11.1     0.00000     0.29617     1 2px  -0.34784     1 2py  -0.78053     2 2px   0.34784     2 2py  -0.78053     3 1s    1.08859
                                    4 1s   -1.08859     5 1s    1.08859     6 1s   -1.08859
   12.1     0.00000     0.30347     1 1s    1.85269     2 1s   -1.85269     3 1s   -1.05918     4 1s   -1.05918     5 1s    1.05918
                                    6 1s    1.05918
   13.1     0.00000     0.38708     1 2py  -1.81553     2 2py   1.81553     3 1s    1.57622     4 1s   -1.57622     5 1s   -1.57622
                                    6 1s    1.57622
   14.1     0.00000     0.48655     1 1s   -3.03814     1 2pz   2.91634     2 1s    3.03814     2 2pz   2.91634     3 1s   -0.53724
                                    4 1s   -0.53724     5 1s    0.53724     6 1s    0.53724
   15.1     0.00000     0.66904     1 2pz  -0.55652     1 2pz   1.03089     2 2pz   0.55652     2 2pz  -1.03089
   16.1     0.00000     0.77712     1 2py  -0.40917     1 2py   0.78177     2 2py  -0.40917     2 2py   0.78177     3 1s   -0.38759
                                    4 1s    0.38759     5 1s   -0.38759     6 1s    0.38759
   17.1     0.00000     0.77922     1 2px  -0.72848     1 2px   0.63805     2 2px  -0.72848     2 2px   0.63805
   18.1     0.00000     0.86491     1 1s   -0.86848     1 1s    1.40953     1 2pz   0.32396     2 1s   -0.86848     2 1s    1.40953
                                    2 2pz  -0.32396     3 1s   -0.40687     4 1s   -0.40687     5 1s   -0.40687     6 1s   -0.40687
   19.1     0.00000     0.88728     1 2px  -0.80534     1 2px   1.06656     2 2px   0.80534     2 2px  -1.06656
   20.1     0.00000     0.95355     1 1s   -0.87330     1 2pz   0.60818     1 2pz  -0.40760     2 1s    0.87330     2 2pz   0.60818
                                    2 2pz  -0.40760     3 1s    0.38173     4 1s    0.38173     5 1s   -0.38173     6 1s   -0.38173
   21.1     0.00000     1.11149     1 2py  -0.67618     1 2px   0.30128     1 2py   1.08314     2 2py  -0.67618     2 2px  -0.30128
                                    2 2py   1.08314     3 1s    0.38205     3 1s   -1.05653     4 1s   -0.38205     4 1s    1.05653
                                    5 1s    0.38205     5 1s   -1.05653     6 1s   -0.38205     6 1s    1.05653
   22.1     0.00000     1.14588     1 2py   0.90550     1 2px  -0.30530     1 2py  -2.88364     2 2py  -0.90550     2 2px  -0.30530
                                    2 2py   2.88364     3 1s    1.45562     4 1s   -1.45562     5 1s   -1.45562     6 1s    1.45562
   23.1     0.00000     1.20461     1 1s    1.05087     1 1s   -1.75136     1 2pz   0.36138     1 2pz  -0.50146     2 1s    1.05087
                                    2 1s   -1.75136     2 2pz  -0.36138     2 2pz   0.50146     3 1s   -0.43049     3 1s    0.87244
                                    4 1s   -0.43049     4 1s    0.87244     5 1s   -0.43049     5 1s    0.87244     6 1s   -0.43049
                                    6 1s    0.87244
   24.1     0.00000     1.20685     1 1s   -0.56850     1 1s    0.65006     1 2pz  -0.61095     1 2pz   1.14037     2 1s    0.56850
                                    2 1s   -0.65006     2 2pz  -0.61095     2 2pz   1.14037     3 1s    0.46509     3 1s   -0.95876
                                    4 1s    0.46509     4 1s   -0.95876     5 1s   -0.46509     5 1s    0.95876     6 1s   -0.46509
                                    6 1s    0.95876
   25.1     0.00000     1.33505     1 1s   -1.56865     1 1s    5.34208     1 2pz   0.28395     1 2pz  -1.98769     2 1s    1.56865
                                    2 1s   -5.34208     2 2pz   0.28395     2 2pz  -1.98769     3 1s   -0.27517     4 1s   -0.27517
                                    5 1s    0.27517     6 1s    0.27517
   26.1     0.00000     1.40049     1 2py   2.01674     2 2py  -2.01674     3 1s   -0.64843     3 1s   -0.43093     4 1s    0.64843
                                    4 1s    0.43093     5 1s    0.64843     5 1s    0.43093     6 1s   -0.64843     6 1s   -0.43093
   27.1     0.00000     1.80589     1 2py   1.10892     1 3d1+  0.59252     2 2py  -1.10892     2 3d1+ -0.59252     3 1s   -0.26708
                                    3 1s   -0.34338     4 1s    0.26708     4 1s    0.34338     5 1s    0.26708     5 1s    0.34338
                                    6 1s   -0.26708     6 1s   -0.34338
   28.1     0.00000     1.84472     1 1s    0.45512     1 3d2-  0.66781     2 1s   -0.45512     2 3d2-  0.66781
   29.1     0.00000     2.04545     1 1s   -0.34018     1 3d2-  0.49685     1 3d2+  0.51404     2 1s   -0.34018     2 3d2- -0.49685
                                    2 3d2+  0.51404
   30.1     0.00000     2.28359     1 1s    0.49688     1 3d2-  0.52988     1 3d2+ -0.47221     2 1s    0.49688     2 3d2- -0.52988
                                    2 3d2+ -0.47221     3 1s   -0.30260     4 1s   -0.30260     5 1s   -0.30260     6 1s   -0.30260
   31.1     0.00000     2.30103     1 2py   0.25440     1 3d1-  0.68059     2 2py   0.25440     2 3d1- -0.68059     3 1s   -0.49712
                                    4 1s    0.49712     5 1s   -0.49712     6 1s    0.49712
   32.1     0.00000     2.41514     1 1s   -0.48311     1 2pz   0.26980     1 2pz  -0.45381     1 3d0   0.66846     2 1s   -0.48311
                                    2 2pz  -0.26980     2 2pz   0.45381     2 3d0   0.66846
   33.1     0.00000     2.59217     1 1s    0.30032     1 1s   -1.37128     1 2pz   0.29789     1 3d2+  0.77645     2 1s   -0.30032
                                    2 1s    1.37128     2 2pz   0.29789     2 3d2+ -0.77645     3 1s    0.43331     4 1s    0.43331
                                    5 1s   -0.43331     6 1s   -0.43331
   34.1     0.00000     2.72008     1 3d1+  0.89970     2 3d1+  0.89970
   35.1     0.00000     3.02482     1 2py   0.46552     1 3d1-  0.95977     2 2py  -0.46552     2 3d1-  0.95977     3 1s   -0.45294
                                    4 1s    0.45294     5 1s    0.45294     6 1s   -0.45294
   36.1     0.00000     3.06254     1 1s    0.31564     1 1s    2.01962     1 2pz  -0.79740     1 2pz  -1.16920     1 3d0   1.11190
                                    2 1s   -0.31564     2 1s   -2.01962     2 2pz  -0.79740     2 2pz  -1.16920     2 3d0  -1.11190


 HOMO      8.1    -0.360195 =      -9.8014eV
 LUMO      9.1     0.169675 =       4.6171eV
 LUMO-HOMO         0.529871 =      14.4185eV


 **********************************************************************************************************************************
 DATASETS  * FILE   NREC   LENGTH (MB)   RECORD NAMES
              1      19       30.88       500      610      700      900      950      970     1000      129      960     1100   
                                          VAR    BASINP    GEOM    SYMINP    ZMAT    AOBASIS   BASIS     P2S    ABASIS      S 
                                         1400     1410     1200     1210     1080     1600     1650     1300     1700   
                                           T        V       H0       H01     AOSYM     SMH    MOLCAS    ERIS     OPER   

              2       4        2.86       700     1000      520     2100   
                                         GEOM     BASIS   MCVARS     RHF  

 PROGRAMS   *        TOTAL    HF-SCF       INT
 CPU TIMES  *         0.45      0.10      0.25
 REAL TIME  *         0.71 SEC
 DISK USED  *        35.71 MB
 **********************************************************************************************************************************


 PROGRAM * MULTI (Direct Multiconfiguration SCF)       Authors: P.J. Knowles, H.-J. Werner (1984)


 Number of closed-shell orbitals:   7 (   7 )
 Number of active  orbitals:        2 (   2 )
 Number of external orbitals:      27 (  27 )

 State symmetry 1

 Number of electrons:     2    Spin symmetry=Singlet   Space symmetry=1
 Number of states:        3
 Number of CSFs:          3   (4 determinants, 4 intermediate states)

 Molecular orbitals read from record     2100.2  Type=RHF/CANONICAL (state 1.1)

 Wavefunction dump at record             2140.2

 Convergence thresholds  0.10E-01 (gradient)  0.10E-05 (energy)  0.10E-02 (step length)

 Weight factors for state symmetry  1:    0.33333   0.33333   0.33333

 Number of orbital rotations:      257   (    14 Core/Active    189 Core/Virtual   0 Active/Active     54 Active/Virtual)
 Total number of variables:        269

 Micro-Iterations solved by the two-step solver

 ITER. MIC  NCI  NEG     ENERGY(VAR)     ENERGY(PROJ)   ENERGY CHANGE     GRAD(0)  GRAD(ORB)   GRAD(CI)     STEP       TIME

   1    7    6    0     -77.74629445     -77.75668045   -0.01038600    0.12610553 0.00213085 0.00000000  0.11D+00      0.11
   2    4    4    0     -77.75653672     -77.75654469   -0.00000796    0.00356161 0.00000085 0.00000000  0.48D-02      0.18
   3    3    3    0     -77.75654470     -77.75654470   -0.00000000    0.00000712 0.00000000 0.00000000  0.18D-04      0.24

 ** WVFN ****  CONVERGENCE REACHED, FINAL GRADIENT:  0.13D-09



 Results for state 1.1
 =====================

 !MCSCF STATE  1.1 Energy             -78.033215503366
 Nuclear energy                        33.24859860
 Kinetic energy                        77.99703849
 One electron energy                 -169.93648516
 Two electron energy                   58.65467105
 Virial ratio                           2.00046383

 !MCSCF STATE  1.1 Dipole moment        0.00000000     0.00000000    -0.00000000
 Dipole moment /Debye                   0.00000000     0.00000000    -0.00000000

 Results for state 2.1
 =====================

 !MCSCF STATE  2.1 Energy             -77.705680779757
 Nuclear energy                        33.24859860
 Kinetic energy                        78.14568081
 One electron energy                 -169.45620707
 Two electron energy                   58.50192769
 Virial ratio                           1.99436949

 !MCSCF STATE  2.1 Dipole moment       -0.00000000     0.00000000    -0.00000000
 Dipole moment /Debye                  -0.00000000     0.00000000    -0.00000000

 Results for state 3.1
 =====================

 !MCSCF STATE  3.1 Energy             -77.530737813028
 Nuclear energy                        33.24859860
 Kinetic energy                        78.29432314
 One electron energy                 -168.97592899
 Two electron energy                   58.19659257
 Virial ratio                           1.99024725

 !MCSCF STATE  3.1 Dipole moment       -0.00000000     0.00000000    -0.00000000
 Dipole moment /Debye                  -0.00000000     0.00000000    -0.00000000

 State-averaged charge density matrix saved on record  2140.2 (density set 1)

 !MCSCF trans         <2.1|DMZ|1.1>    -1.219345194320 au =    -3.099063358979 Debye
 !MCSCF trans         <3.1|DMZ|2.1>    -1.743841353402 au =    -4.432112306981 Debye


 NATURAL ORBITALS (state averaged)
 =================================

  Orbital  Occupation    Energy     Coefficients
    1.1     2.00000   -11.24007     1 1s    0.70420     2 1s    0.70420
    2.1     2.00000   -11.23867     1 1s    0.70452     2 1s   -0.70452
    3.1     2.00000    -1.03660     1 1s    0.30795     2 1s    0.30795
    4.1     2.00000    -0.79282     1 1s    0.27874     2 1s   -0.27874
    5.1     2.00000    -0.64053     1 2py   0.32428     2 2py   0.32428
    6.1     2.00000    -0.59131     1 2pz   0.40741     2 2pz  -0.40741
    7.1     2.00000    -0.51736     1 2py   0.26883     2 2py  -0.26883
    8.1     1.00000     0.02154     1 2px   0.36434     1 2px   0.60248     2 2px  -0.36434     2 2px  -0.60248
    9.1     1.00000    -0.21444     1 2px   0.32103     1 2px   0.29994     2 2px   0.32103     2 2px   0.29994
   10.1    -0.00000     0.26211     1 1s   -1.45846     1 2pz  -0.63793     2 1s   -1.45846     2 2pz   0.63793     3 1s    1.02422
                                    4 1s    1.02422     5 1s    1.02422     6 1s    1.02422
   11.1    -0.00000     0.28952     1 2px  -0.39083     1 2py  -0.75904     2 2px   0.39083     2 2py  -0.75904     3 1s    1.07235
                                    4 1s   -1.07235     5 1s    1.07235     6 1s   -1.07235
   12.1    -0.00000     0.29919     1 1s    1.86839     2 1s   -1.86839     3 1s   -1.05562     4 1s   -1.05562     5 1s    1.05562
                                    6 1s    1.05562
   13.1    -0.00000     0.38209     1 2py  -1.81213     2 2py   1.81213     3 1s    1.57112     4 1s   -1.57112     5 1s   -1.57112
                                    6 1s    1.57112
   14.1    -0.00000     0.48397     1 1s   -3.02530     1 2pz   2.90433     2 1s    3.02530     2 2pz   2.90433     3 1s   -0.54301
                                    4 1s   -0.54301     5 1s    0.54301     6 1s    0.54301
   15.1    -0.00000     0.66008     1 2pz  -0.55120     1 2pz   1.01545     2 2pz   0.55120     2 2pz  -1.01545
   16.1    -0.00000     0.76921     1 2py  -0.41566     1 2px   0.25880     1 2py   0.77492     2 2py  -0.41566     2 2px  -0.25880
                                    2 2py   0.77492     3 1s   -0.38543     4 1s    0.38543     5 1s   -0.38543     6 1s    0.38543
   17.1    -0.00000     0.77668     1 2px  -0.73462     1 2px   0.63689     2 2px  -0.73462     2 2px   0.63689
   18.1    -0.00000     0.86275     1 1s   -0.86043     1 1s    1.42142     1 2pz   0.35364     2 1s   -0.86043     2 1s    1.42142
                                    2 2pz  -0.35364     3 1s   -0.41010     4 1s   -0.41010     5 1s   -0.41010     6 1s   -0.41010
   19.1    -0.00000     0.87061     1 2px  -0.78580     1 2px   1.08327     2 2px   0.78580     2 2px  -1.08327
   20.1    -0.00000     0.93732     1 1s   -0.76538     1 2pz   0.60801     1 2pz  -0.45776     2 1s    0.76538     2 2pz   0.60801
                                    2 2pz  -0.45776     3 1s    0.38425     4 1s    0.38425     5 1s   -0.38425     6 1s   -0.38425
   21.1    -0.00000     1.09813     1 2py  -0.66516     1 2px   0.31103     1 2py   1.08661     2 2py  -0.66516     2 2px  -0.31103
                                    2 2py   1.08661     3 1s    0.38105     3 1s   -1.06467     4 1s   -0.38105     4 1s    1.06467
                                    5 1s    0.38105     5 1s   -1.06467     6 1s   -0.38105     6 1s    1.06467
   22.1    -0.00000     1.13592     1 2py   0.90509     1 2px  -0.30168     1 2py  -2.87849     2 2py  -0.90509     2 2px  -0.30168
                                    2 2py   2.87849     3 1s    1.45864     4 1s   -1.45864     5 1s   -1.45864     6 1s    1.45864
   23.1    -0.00000     1.19968     1 1s    1.05042     1 1s   -1.75373     1 2pz   0.36398     1 2pz  -0.50657     2 1s    1.05042
                                    2 1s   -1.75373     2 2pz  -0.36398     2 2pz   0.50657     3 1s   -0.42999     3 1s    0.87326
                                    4 1s   -0.42999     4 1s    0.87326     5 1s   -0.42999     5 1s    0.87326     6 1s   -0.42999
                                    6 1s    0.87326
   24.1    -0.00000     1.20292     1 1s   -0.53284     1 1s    0.53559     1 2pz  -0.62290     1 2pz   1.18950     2 1s    0.53284
                                    2 1s   -0.53559     2 2pz  -0.62290     2 2pz   1.18950     3 1s    0.46506     3 1s   -0.95324
                                    4 1s    0.46506     4 1s   -0.95324     5 1s   -0.46506     5 1s    0.95324     6 1s   -0.46506
                                    6 1s    0.95324
   25.1    -0.00000     1.31985     1 1s   -1.58255     1 1s    5.36271     1 2pz   0.26942     1 2pz  -1.96135     2 1s    1.58255
                                    2 1s   -5.36271     2 2pz   0.26942     2 2pz  -1.96135     3 1s   -0.29815     4 1s   -0.29815
                                    5 1s    0.29815     6 1s    0.29815
   26.1    -0.00000     1.38539     1 2py   2.01459     2 2py  -2.01459     3 1s   -0.64150     3 1s   -0.42830     4 1s    0.64150
                                    4 1s    0.42830     5 1s    0.64150     5 1s    0.42830     6 1s   -0.64150     6 1s   -0.42830
   27.1    -0.00000     1.79099     1 2py   1.13608     1 3d1+  0.58949     2 2py  -1.13608     2 3d1+ -0.58949     3 1s   -0.27905
                                    3 1s   -0.35148     4 1s    0.27905     4 1s    0.35148     5 1s    0.27905     5 1s    0.35148
                                    6 1s   -0.27905     6 1s   -0.35148
   28.1    -0.00000     1.83558     1 1s    0.45045     1 3d2-  0.66756     2 1s   -0.45045     2 3d2-  0.66756
   29.1    -0.00000     2.02566     1 1s   -0.33481     1 3d2-  0.50033     1 3d2+  0.51145     2 1s   -0.33481     2 3d2- -0.50033
                                    2 3d2+  0.51145
   30.1    -0.00000     2.27209     1 1s    0.49750     1 3d2-  0.52454     1 3d2+ -0.47484     2 1s    0.49750     2 3d2- -0.52454
                                    2 3d2+ -0.47484     3 1s   -0.30371     4 1s   -0.30371     5 1s   -0.30371     6 1s   -0.30371
   31.1    -0.00000     2.28525     1 2py   0.26037     1 3d1-  0.67850     2 2py   0.26037     2 3d1- -0.67850     3 1s   -0.49844
                                    4 1s    0.49844     5 1s   -0.49844     6 1s    0.49844
   32.1    -0.00000     2.39979     1 1s   -0.48074     1 2pz   0.27301     1 2pz  -0.45599     1 3d0   0.66687     2 1s   -0.48074
                                    2 2pz  -0.27301     2 2pz   0.45599     2 3d0   0.66687
   33.1    -0.00000     2.57500     1 1s    0.30300     1 1s   -1.37777     1 2pz   0.29654     1 3d2+  0.77601     2 1s   -0.30300
                                    2 1s    1.37777     2 2pz   0.29654     2 3d2+ -0.77601     3 1s    0.43497     4 1s    0.43497
                                    5 1s   -0.43497     6 1s   -0.43497
   34.1    -0.00000     2.70436     1 3d1+  0.89905     2 3d1+  0.89905
   35.1    -0.00000     3.01287     1 2py   0.46447     1 3d1-  0.95964     2 2py  -0.46447     2 3d1-  0.95964     3 1s   -0.45418
                                    4 1s    0.45418     5 1s    0.45418     6 1s   -0.45418
   36.1    -0.00000     3.04863     1 1s    0.31036     1 1s    2.03950     1 2pz  -0.79225     1 2pz  -1.17899     1 3d0   1.11303
                                    2 1s   -0.31036     2 1s   -2.03950     2 2pz  -0.79225     2 2pz  -1.17899     2 3d0  -1.11303


 Natural orbital dump (state averaged) at molpro section  2140.2    (Orbital set 2)



 **********************************************************************************************************************************
 DATASETS  * FILE   NREC   LENGTH (MB)   RECORD NAMES
              1      20       31.61       500      610      700      900      950      970     1000      129      960     1100   
                                          VAR    BASINP    GEOM    SYMINP    ZMAT    AOBASIS   BASIS     P2S    ABASIS      S 
                                         1400     1410     1200     1210     1080     1600     1650     1300     1700     1380   
                                           T        V       H0       H01     AOSYM     SMH    MOLCAS    ERIS     OPER     JKOP   

              2       5        5.42       700     1000      520     2100     2140   
                                         GEOM     BASIS   MCVARS     RHF     MCSCF   

 PROGRAMS   *        TOTAL     MULTI    HF-SCF       INT
 CPU TIMES  *         0.74      0.29      0.10      0.25
 REAL TIME  *         1.05 SEC
 DISK USED  *        38.79 MB
 **********************************************************************************************************************************
 Molecular orbitals read from record     2140.2  Type=MCSCF/NATURAL (state averaged)
 Occupation numbers read from record     2140.2  Type=MCSCF/NATURAL (state averaged)
 Orbital energies read from record       2140.2  Type=MCSCF/NATURAL (state averaged)
 Redundancy group numbers read from rec  2140.2  Type=MCSCF/NATURAL (state averaged)

 MULTI/6-31G* energy=    -77.530737813028

           MULTI          HF-SCF
    -77.53073781    -78.02146909
 **********************************************************************************************************************************
 Molpro calculation terminated
