
 Primary working directories    : /scratch.local/johan406.molpro_temp/molpro.0gzY8qb1ch
 Secondary working directories  : /scratch.local/johan406.molpro_temp/molpro.0gzY8qb1ch
 Wavefunction directory         : /home/goodpast/johan406/wfu/
 Main file repository           : /scratch.local/johan406.molpro_temp/molpro.0gzY8qb1ch/

 id        : roweumn

 Nodes     nprocs
 cn0117       1

 Using customized tuning parameters: mindgm=1; mindgv=20; mindgc=4; mindgr=1; noblas=0; minvec=7
 default implementation of scratch files=df  


 Variables initialized (934), CPU time= 0.01 sec
                                                                                 !leave this line blank
 
 gprint, orbitals=30
 memory, 125., m
 symmetry, nosym
 nelect=16
 basis=6-31g*
 
 geometry={
 C -0.0 0.0 0.6691
 C 0.0 0.0 -0.6691
 H 0.178 0.9149 1.2348
 H -0.178 -0.9149 1.2348
 H -0.178 0.9149 -1.2348
 H 0.178 -0.9149 -1.2348
 }
 
 hf
 {multi,
 closed 7
 occ 9
 wf,spin=0;STATE,3
 }
 
 Commands  initialized (763), CPU time= 0.01 sec, 617 directives.
 Default parameters read. Elapsed time= 0.08 sec

 Checking input...
 Passed
1


                                         ***  PROGRAM SYSTEM MOLPRO  ***
                                       Copyright, TTI GmbH Stuttgart, 2015
                                    Version 2019.2 linked Oct 25 2019 22:50:27


 **********************************************************************************************************************************
 LABEL *                                                                                 
  64 bit serial version                                                                  DATE: 26-Jan-23          TIME: 20:00:29  
 **********************************************************************************************************************************

 SHA1:             8dbd9ae1082e4ce945b0f27595c9eb2d4aa09004
 **********************************************************************************************************************************


 Variable memory set to  125000000 words,  buffer space 

 SETTING NELECT         =        16.00000000                                  
 SETTING BASIS          =    6-31G*
 ZSYMEL=NOSYM


Geometry recognized as XYZ



 Recomputing integrals since basis changed


 Using spherical harmonics

 Library entry C      S 6-31G                selected for orbital group  1
 Library entry C      P 6-31G                selected for orbital group  1
 Library entry C      D 6-31G*               selected for orbital group  1
 Library entry H      S 6-31G                selected for orbital group  2


 PROGRAM * SEWARD (Integral evaluation for generally contracted gaussian basis sets)     Author: Roland Lindh, 1990

 Geometry written to block  1 of record 700


 Point group  C1  



 ATOMIC COORDINATES

 NR  ATOM    CHARGE       X              Y              Z

   1  C       6.00   -0.000000000    0.000000000    1.264415750
   2  C       6.00    0.000000000    0.000000000   -1.264415750
   3  H       1.00    0.336371250    1.728910431    2.333433819
   4  H       1.00   -0.336371250   -1.728910431    2.333433819
   5  H       1.00   -0.336371250    1.728910431   -2.333433819
   6  H       1.00    0.336371250   -1.728910431   -2.333433819

 Bond lengths in Bohr (Angstrom)

 1-2  2.528831500  1-3  2.060358350  1-4  2.060358350  2-5  2.060358350  2-6  2.060358350
     ( 1.338200000)     ( 1.090294685)     ( 1.090294685)     ( 1.090294685)     ( 1.090294685)

 Bond angles

  1-2-5  121.25518039   1-2-6  121.25518039   2-1-3  121.25518039   2-1-4  121.25518039

  3-1-4  117.48963922   5-2-6  117.48963922

 NUCLEAR CHARGE:                   16
 NUMBER OF PRIMITIVE AOS:          72
 NUMBER OF SYMMETRY AOS:           70
 NUMBER OF CONTRACTIONS:           36   (   36A   )
 NUMBER OF CORE ORBITALS:           2   (    2A   )
 NUMBER OF VALENCE ORBITALS:       12   (   12A   )


 NUCLEAR REPULSION ENERGY   33.21178513


 Eigenvalues of metric

         1 0.830E-02 0.194E-01 0.389E-01 0.499E-01 0.696E-01 0.192E+00 0.216E+00 0.227E+00


 Contracted 2-electron integrals neglected if value below      1.0D-11
 AO integral compression algorithm  1   Integral accuracy      1.0D-11

     1.049 MB (compressed) written to integral file ( 50.7%)


 NUMBER OF SORTED TWO-ELECTRON INTEGRALS:     222111.     BUFFER LENGTH:  32768
 NUMBER OF SEGMENTS:   1  SEGMENT LENGTH:     222111      RECORD LENGTH: 524288

 Memory used in sort:       0.78 MW

 SORT1 READ      284735. AND WROTE      156951. INTEGRALS IN      1 RECORDS. CPU TIME:     0.00 SEC, REAL TIME:     0.00 SEC
 SORT2 READ      156951. AND WROTE      222111. INTEGRALS IN      4 RECORDS. CPU TIME:     0.02 SEC, REAL TIME:     0.03 SEC

 FILE SIZES:   FILE 1:    31.1 MBYTE,  FILE 4:     4.2 MBYTE,   TOTAL:     35.4 MBYTE

 OPERATOR DM      FOR CENTER  0  COORDINATES:    0.000000    0.000000    0.000000


 **********************************************************************************************************************************
 DATASETS  * FILE   NREC   LENGTH (MB)   RECORD NAMES
              1      19       30.88       500      610      700      900      950      970     1000      129      960     1100   
                                          VAR    BASINP    GEOM    SYMINP    ZMAT    AOBASIS   BASIS     P2S    ABASIS      S 
                                         1400     1410     1200     1210     1080     1600     1650     1300     1700   
                                           T        V       H0       H01     AOSYM     SMH    MOLCAS    ERIS     OPER   

 PROGRAMS   *        TOTAL       INT
 CPU TIMES  *         0.37      0.27
 REAL TIME  *         0.58 SEC
 DISK USED  *        35.71 MB
 **********************************************************************************************************************************


 PROGRAM * RHF-SCF (CLOSED SHELL)       Authors: W. Meyer, H.-J. Werner


 NUMBER OF ELECTRONS:       8+    8-    SPACE SYMMETRY=1    SPIN SYMMETRY: Singlet 
 CONVERGENCE THRESHOLDS:    1.00E-05 (Density)    1.00E-07 (Energy)
 MAX. NUMBER OF ITERATIONS:       60
 INTERPOLATION TYPE:            DIIS
 INTERPOLATION STEPS:              2 (START)      1 (STEP)
 LEVEL SHIFTS:                  0.00 (CLOSED)  0.00 (OPEN) 



 Orbital guess generated from atomic densities. Full valence occupancy:    8

 Molecular orbital dump at record        2100.2

 Initial occupancy:   8

 ITERATION    DDIFF          GRAD             ENERGY        2-EL.EN.            DIPOLE MOMENTS         DIIS   ORB.
    1      0.000D+00      0.000D+00       -77.99505134    118.374908    0.00000   -0.00000   -0.00000    0    start
    2      0.000D+00      0.851D-02       -78.01678507    116.530497    0.00000    0.00000   -0.00000    1    diag
    3      0.819D-02      0.293D-02       -78.01895737    117.168489   -0.00000    0.00000   -0.00000    2    diag
    4      0.266D-02      0.722D-03       -78.01918334    117.067616    0.00000   -0.00000    0.00000    3    diag
    5      0.108D-02      0.818D-04       -78.01918709    117.070735    0.00000    0.00000    0.00000    4    diag
    6      0.160D-03      0.147D-04       -78.01918724    117.070211   -0.00000    0.00000   -0.00000    5    diag
    7      0.214D-04      0.370D-05       -78.01918726    117.070239    0.00000   -0.00000   -0.00000    6    diag
    8      0.583D-05      0.481D-06       -78.01918726    117.070229    0.00000   -0.00000   -0.00000    0    orth

 Final occupancy:   8

 !RHF STATE  1.1 Energy               -78.019187255236
 Nuclear energy                        33.21178513
 One-electron energy                 -169.76608711
 Two-electron energy                   58.53511472
 Virial quotient                       -1.00094362
 !RHF STATE  1.1 Dipole moment          0.00000000    -0.00000000    -0.00000000
 Dipole moment /Debye                   0.00000000    -0.00000000    -0.00000000

 ELECTRON ORBITALS
 =================

  Orbital  Occupation    Energy     Coefficients
    1.1     2.00000   -11.22864     1 1s    0.70420     2 1s    0.70420
    2.1     2.00000   -11.22705     1 1s    0.70455     2 1s   -0.70455
    3.1     2.00000    -1.02543     1 1s    0.30200     2 1s    0.30200
    4.1     2.00000    -0.78526     1 1s    0.24780
    5.1     2.00000    -0.63319     1 2py   0.31810     2 2py   0.31810
    6.1     2.00000    -0.57875     1 2pz   0.40583     2 2pz  -0.40583
    7.1     2.00000    -0.51140     1 2py   0.28194     2 2py  -0.28194
    8.1     2.00000    -0.35821     1 2px   0.35250     1 2px   0.30155     2 2px   0.35250     2 2px   0.30155
    9.1     0.00000     0.16768     1 2px   0.32904     1 2px   0.67211     2 2px  -0.32904     2 2px  -0.67211
   10.1     0.00000     0.26559     1 1s   -1.45429     1 2pz  -0.63081     2 1s   -1.45429     2 2pz   0.63081     3 1s    1.02083
                                    4 1s    1.02083     5 1s    1.02083     6 1s    1.02083
   11.1     0.00000     0.29645     1 2px  -0.38269     1 2py  -0.77416     2 2px   0.38269     2 2py  -0.77416     3 1s    1.08557
                                    4 1s   -1.08557     5 1s    1.08557     6 1s   -1.08557
   12.1     0.00000     0.30200     1 1s   -1.83309     2 1s    1.83309     3 1s    1.05474     4 1s    1.05474     5 1s   -1.05474
                                    6 1s   -1.05474
   13.1     0.00000     0.38609     1 2py  -1.80089     2 2py   1.80089     3 1s    1.56335     4 1s   -1.56335     5 1s   -1.56335
                                    6 1s    1.56335
   14.1     0.00000     0.48566     1 1s   -3.04883     1 2pz   2.90731     2 1s    3.04883     2 2pz   2.90731     3 1s   -0.52506
                                    4 1s   -0.52506     5 1s    0.52506     6 1s    0.52506
   15.1     0.00000     0.66897     1 2pz  -0.55664     1 2pz   1.02905     2 2pz   0.55664     2 2pz  -1.02905
   16.1     0.00000     0.77966     1 2px  -0.72575     1 2px   0.63770     2 2px  -0.72575     2 2px   0.63770
   17.1     0.00000     0.78055     1 2py  -0.41195     1 2py   0.78399     2 2py  -0.41195     2 2py   0.78399     3 1s   -0.38773
                                    4 1s    0.38773     5 1s   -0.38773     6 1s    0.38773
   18.1     0.00000     0.86540     1 1s   -0.86375     1 1s    1.39594     1 2pz   0.32025     2 1s   -0.86375     2 1s    1.39594
                                    2 2pz  -0.32025     3 1s   -0.40955     4 1s   -0.40955     5 1s   -0.40955     6 1s   -0.40955
   19.1     0.00000     0.88656     1 2px  -0.80230     1 2px   1.06575     2 2px   0.80230     2 2px  -1.06575
   20.1     0.00000     0.95348     1 1s   -0.87316     1 2pz   0.60945     1 2pz  -0.39493     2 1s    0.87316     2 2pz   0.60945
                                    2 2pz  -0.39493     3 1s    0.38123     4 1s    0.38123     5 1s   -0.38123     6 1s   -0.38123
   21.1     0.00000     1.11020     1 2py  -0.67303     1 2px   0.33354     1 2py   1.07875     2 2py  -0.67303     2 2px  -0.33354
                                    2 2py   1.07875     3 1s    0.38209     3 1s   -1.05476     4 1s   -0.38209     4 1s    1.05476
                                    5 1s    0.38209     5 1s   -1.05476     6 1s   -0.38209     6 1s    1.05476
   22.1     0.00000     1.14258     1 2py   0.90087     1 2px  -0.33723     1 2py  -2.86689     2 2py  -0.90087     2 2px  -0.33723
                                    2 2py   2.86689     3 1s    1.44221     4 1s   -1.44221     5 1s   -1.44221     6 1s    1.44221
   23.1     0.00000     1.20188     1 1s    1.05436     1 1s   -1.75688     1 2pz   0.36024     1 2pz  -0.50259     2 1s    1.05436
                                    2 1s   -1.75688     2 2pz  -0.36024     2 2pz   0.50259     3 1s   -0.42807     3 1s    0.87357
                                    4 1s   -0.42807     4 1s    0.87357     5 1s   -0.42807     5 1s    0.87357     6 1s   -0.42807
                                    6 1s    0.87357
   24.1     0.00000     1.20316     1 1s   -0.57671     1 1s    0.68078     1 2pz  -0.60752     1 2pz   1.12042     2 1s    0.57671
                                    2 1s   -0.68078     2 2pz  -0.60752     2 2pz   1.12042     3 1s    0.46406     3 1s   -0.95581
                                    4 1s    0.46406     4 1s   -0.95581     5 1s   -0.46406     5 1s    0.95581     6 1s   -0.46406
                                    6 1s    0.95581
   25.1     0.00000     1.33438     1 1s   -1.56376     1 1s    5.33278     1 2pz   0.28811     1 2pz  -2.00260     2 1s    1.56376
                                    2 1s   -5.33278     2 2pz   0.28811     2 2pz  -2.00260     3 1s   -0.26323     4 1s   -0.26323
                                    5 1s    0.26323     6 1s    0.26323
   26.1     0.00000     1.38777     1 2py   1.93624     2 2py  -1.93624     3 1s   -0.64356     3 1s   -0.39141     4 1s    0.64356
                                    4 1s    0.39141     5 1s    0.64356     5 1s    0.39141     6 1s   -0.64356     6 1s   -0.39141
   27.1     0.00000     1.81711     1 2py   1.15119     1 3d1+  0.59086     2 2py  -1.15119     2 3d1+ -0.59086     3 1s   -0.28041
                                    3 1s   -0.35391     4 1s    0.28041     4 1s    0.35391     5 1s    0.28041     5 1s    0.35391
                                    6 1s   -0.28041     6 1s   -0.35391
   28.1     0.00000     1.84984     1 1s    0.49795     1 3d2-  0.66474     2 1s   -0.49795     2 3d2-  0.66474
   29.1     0.00000     2.03391     1 1s   -0.34455     1 3d2-  0.47591     1 3d2+  0.53060     2 1s   -0.34455     2 3d2- -0.47591
                                    2 3d2+  0.53060
   30.1     0.00000     2.29303     1 1s   -0.25866     1 1s    0.49156     1 3d2-  0.54300     1 3d2+ -0.44793     2 1s   -0.25866
                                    2 1s    0.49156     2 3d2- -0.54300     2 3d2+ -0.44793     3 1s   -0.29502     4 1s   -0.29502
                                    5 1s   -0.29502     6 1s   -0.29502
   31.1     0.00000     2.29394     1 3d1-  0.67842     2 3d1- -0.67842     3 1s   -0.49266     4 1s    0.49266     5 1s   -0.49266
                                    6 1s    0.49266
   32.1     0.00000     2.41708     1 1s   -0.47563     1 2pz   0.26624     1 2pz  -0.45436     1 3d0   0.66175     2 1s   -0.47563
                                    2 2pz  -0.26624     2 2pz   0.45436     2 3d0   0.66175
   33.1     0.00000     2.58420     1 1s    0.30257     1 1s   -1.37607     1 2pz   0.30326     1 3d2+  0.77124     2 1s   -0.30257
                                    2 1s    1.37607     2 2pz   0.30326     2 3d2+ -0.77124     3 1s    0.43053     4 1s    0.43053
                                    5 1s   -0.43053     6 1s   -0.43053
   34.1     0.00000     2.72230     1 3d1+  0.89941     2 3d1+  0.89941
   35.1     0.00000     3.01595     1 2py   0.44373     1 3d1-  0.95733     2 2py  -0.44373     2 3d1-  0.95733     3 1s   -0.44694
                                    4 1s    0.44694     5 1s    0.44694     6 1s   -0.44694
   36.1     0.00000     3.06261     1 1s    0.31557     1 1s    2.01874     1 2pz  -0.79754     1 2pz  -1.16715     1 3d0   1.11189
                                    2 1s   -0.31557     2 1s   -2.01874     2 2pz  -0.79754     2 2pz  -1.16715     2 3d0  -1.11189


 HOMO      8.1    -0.358205 =      -9.7473eV
 LUMO      9.1     0.167684 =       4.5629eV
 LUMO-HOMO         0.525889 =      14.3102eV


 **********************************************************************************************************************************
 DATASETS  * FILE   NREC   LENGTH (MB)   RECORD NAMES
              1      19       30.88       500      610      700      900      950      970     1000      129      960     1100   
                                          VAR    BASINP    GEOM    SYMINP    ZMAT    AOBASIS   BASIS     P2S    ABASIS      S 
                                         1400     1410     1200     1210     1080     1600     1650     1300     1700   
                                           T        V       H0       H01     AOSYM     SMH    MOLCAS    ERIS     OPER   

              2       4        2.86       700     1000      520     2100   
                                         GEOM     BASIS   MCVARS     RHF  

 PROGRAMS   *        TOTAL    HF-SCF       INT
 CPU TIMES  *         0.48      0.11      0.27
 REAL TIME  *         0.73 SEC
 DISK USED  *        35.71 MB
 **********************************************************************************************************************************


 PROGRAM * MULTI (Direct Multiconfiguration SCF)       Authors: P.J. Knowles, H.-J. Werner (1984)


 Number of closed-shell orbitals:   7 (   7 )
 Number of active  orbitals:        2 (   2 )
 Number of external orbitals:      27 (  27 )

 State symmetry 1

 Number of electrons:     2    Spin symmetry=Singlet   Space symmetry=1
 Number of states:        3
 Number of CSFs:          3   (4 determinants, 4 intermediate states)

 Molecular orbitals read from record     2100.2  Type=RHF/CANONICAL (state 1.1)

 Wavefunction dump at record             2140.2

 Convergence thresholds  0.10E-01 (gradient)  0.10E-05 (energy)  0.10E-02 (step length)

 Weight factors for state symmetry  1:    0.33333   0.33333   0.33333

 Number of orbital rotations:      257   (    14 Core/Active    189 Core/Virtual   0 Active/Active     54 Active/Virtual)
 Total number of variables:        269

 Micro-Iterations solved by the two-step solver

 ITER. MIC  NCI  NEG     ENERGY(VAR)     ENERGY(PROJ)   ENERGY CHANGE     GRAD(0)  GRAD(ORB)   GRAD(CI)     STEP       TIME

   1    7    6    0     -77.74947680     -77.76004328   -0.01056648    0.12472387 0.00207822 0.00000000  0.11D+00      0.11
   2    4    4    0     -77.75990555     -77.75991304   -0.00000749    0.00353067 0.00000095 0.00000000  0.44D-02      0.18
   3    3    3    0     -77.75991306     -77.75991306   -0.00000000    0.00000647 0.00000000 0.00000000  0.16D-04      0.24

 ** WVFN ****  CONVERGENCE REACHED, FINAL GRADIENT:  0.11D-09



 Results for state 1.1
 =====================

 !MCSCF STATE  1.1 Energy             -78.030588545053
 Nuclear energy                        33.21178513
 Kinetic energy                        77.97942030
 One electron energy                 -169.85981310
 Two electron energy                   58.61743942
 Virial ratio                           2.00065618

 !MCSCF STATE  1.1 Dipole moment       -0.00000000    -0.00000000     0.00000000
 Dipole moment /Debye                  -0.00000000    -0.00000000     0.00000000

 Results for state 2.1
 =====================

 !MCSCF STATE  2.1 Energy             -77.710210454858
 Nuclear energy                        33.21178513
 Kinetic energy                        78.12323946
 One electron energy                 -169.39284764
 Two electron energy                   58.47085205
 Virial ratio                           1.99471311

 !MCSCF STATE  2.1 Dipole moment       -0.00000000    -0.00000000     0.00000000
 Dipole moment /Debye                  -0.00000000    -0.00000000     0.00000000

 Results for state 3.1
 =====================

 !MCSCF STATE  3.1 Energy             -77.538940167616
 Nuclear energy                        33.21178513
 Kinetic energy                        78.26705863
 One electron energy                 -168.92588218
 Two electron energy                   58.17515688
 Virial ratio                           1.99069700

 !MCSCF STATE  3.1 Dipole moment       -0.00000000    -0.00000000    -0.00000000
 Dipole moment /Debye                  -0.00000000    -0.00000000    -0.00000000

 State-averaged charge density matrix saved on record  2140.2 (density set 1)

 !MCSCF trans         <2.1|DMZ|1.1>    -1.181882045174 au =    -3.003847768373 Debye
 !MCSCF trans         <3.1|DMZ|2.1>    -1.687942667112 au =    -4.290041323877 Debye


 NATURAL ORBITALS (state averaged)
 =================================

  Orbital  Occupation    Energy     Coefficients
    1.1     2.00000   -11.24044     1 1s    0.70421     2 1s    0.70421
    2.1     2.00000   -11.23904     1 1s    0.70452     2 1s   -0.70452
    3.1     2.00000    -1.03595     1 1s    0.30769     2 1s    0.30769
    4.1     2.00000    -0.79135     1 1s    0.27830     2 1s   -0.27830
    5.1     2.00000    -0.63889     1 2py   0.32362     2 2py   0.32362
    6.1     2.00000    -0.59016     1 2pz   0.40710     2 2pz  -0.40710
    7.1     2.00000    -0.51863     1 2py   0.26334     2 2py  -0.26334
    8.1     1.00000     0.01911     1 2px   0.36151     1 2px   0.58931     2 2px  -0.36151     2 2px  -0.58931
    9.1     1.00000    -0.21188     1 2px   0.31666     1 2px   0.29838     2 2px   0.31666     2 2px   0.29838
   10.1    -0.00000     0.26186     1 1s   -1.45023     1 2pz  -0.63446     2 1s   -1.45023     2 2pz   0.63446     3 1s    1.02016
                                    4 1s    1.02016     5 1s    1.02016     6 1s    1.02016
   11.1    -0.00000     0.29012     1 2px  -0.42416     1 2py  -0.75188     2 2px   0.42416     2 2py  -0.75188     3 1s    1.06911
                                    4 1s   -1.06911     5 1s    1.06911     6 1s   -1.06911
   12.1    -0.00000     0.29762     1 1s   -1.84815     2 1s    1.84815     3 1s    1.05131     4 1s    1.05131     5 1s   -1.05131
                                    6 1s   -1.05131
   13.1    -0.00000     0.38099     1 2py  -1.79857     2 2py   1.79857     3 1s    1.55834     4 1s   -1.55834     5 1s   -1.55834
                                    6 1s    1.55834
   14.1    -0.00000     0.48312     1 1s   -3.03667     1 2pz   2.89598     2 1s    3.03667     2 2pz   2.89598     3 1s   -0.53057
                                    4 1s   -0.53057     5 1s    0.53057     6 1s    0.53057
   15.1    -0.00000     0.66028     1 2pz  -0.55161     1 2pz   1.01458     2 2pz   0.55161     2 2pz  -1.01458
   16.1    -0.00000     0.77310     1 2py  -0.41789     1 2px   0.27979     1 2py   0.77619     2 2py  -0.41789     2 2px  -0.27979
                                    2 2py   0.77619     3 1s   -0.38588     4 1s    0.38588     5 1s   -0.38588     6 1s    0.38588
   17.1    -0.00000     0.77750     1 2px  -0.73192     1 2px   0.63703     2 2px  -0.73192     2 2px   0.63703
   18.1    -0.00000     0.86330     1 1s   -0.85569     1 1s    1.40658     1 2pz   0.34806     2 1s   -0.85569     2 1s    1.40658
                                    2 2pz  -0.34806     3 1s   -0.41287     4 1s   -0.41287     5 1s   -0.41287     6 1s   -0.41287
   19.1    -0.00000     0.86993     1 2px  -0.78234     1 2px   1.08005     2 2px   0.78234     2 2px  -1.08005
   20.1    -0.00000     0.93762     1 1s   -0.77094     1 2pz   0.60892     1 2pz  -0.44160     2 1s    0.77094     2 2pz   0.60892
                                    2 2pz  -0.44160     3 1s    0.38387     4 1s    0.38387     5 1s   -0.38387     6 1s   -0.38387
   21.1    -0.00000     1.09720     1 2py  -0.66184     1 2px   0.34394     1 2py   1.08211     2 2py  -0.66184     2 2px  -0.34394
                                    2 2py   1.08211     3 1s    0.38097     3 1s   -1.06267     4 1s   -0.38097     4 1s    1.06267
                                    5 1s    0.38097     5 1s   -1.06267     6 1s   -0.38097     6 1s    1.06267
   22.1    -0.00000     1.13293     1 2py   0.90077     1 2px  -0.33337     1 2py  -2.86137     2 2py  -0.90077     2 2px  -0.33337
                                    2 2py   2.86137     3 1s    1.44496     4 1s   -1.44496     5 1s   -1.44496     6 1s    1.44496
   23.1    -0.00000     1.19683     1 1s    1.05426     1 1s   -1.75976     1 2pz   0.36271     1 2pz  -0.50758     2 1s    1.05426
                                    2 1s   -1.75976     2 2pz  -0.36271     2 2pz   0.50758     3 1s   -0.42748     3 1s    0.87450
                                    4 1s   -0.42748     4 1s    0.87450     5 1s   -0.42748     5 1s    0.87450     6 1s   -0.42748
                                    6 1s    0.87450
   24.1    -0.00000     1.19913     1 1s   -0.54458     1 1s    0.57831     1 2pz  -0.61902     1 2pz   1.16569     2 1s    0.54458
                                    2 1s   -0.57831     2 2pz  -0.61902     2 2pz   1.16569     3 1s    0.46378     3 1s   -0.95125
                                    4 1s    0.46378     4 1s   -0.95125     5 1s   -0.46378     5 1s    0.95125     6 1s   -0.46378
                                    6 1s    0.95125
   25.1    -0.00000     1.31967     1 1s   -1.57660     1 1s    5.35233     1 2pz   0.27515     1 2pz  -1.97950     2 1s    1.57660
                                    2 1s   -5.35233     2 2pz   0.27515     2 2pz  -1.97950     3 1s   -0.28396     4 1s   -0.28396
                                    5 1s    0.28396     6 1s    0.28396
   26.1    -0.00000     1.37228     1 2py   1.93557     2 2py  -1.93557     3 1s   -0.63669     3 1s   -0.38885     4 1s    0.63669
                                    4 1s    0.38885     5 1s    0.63669     5 1s    0.38885     6 1s   -0.63669     6 1s   -0.38885
   27.1    -0.00000     1.80318     1 2py   1.17479     1 3d1+  0.58800     2 2py  -1.17479     2 3d1+ -0.58800     3 1s   -0.29155
                                    3 1s   -0.36099     4 1s    0.29155     4 1s    0.36099     5 1s    0.29155     5 1s    0.36099
                                    6 1s   -0.29155     6 1s   -0.36099
   28.1    -0.00000     1.84124     1 1s    0.49240     1 3d2-  0.66445     2 1s   -0.49240     2 3d2-  0.66445
   29.1    -0.00000     2.01452     1 1s   -0.33938     1 3d2-  0.47920     1 3d2+  0.52841     2 1s   -0.33938     2 3d2- -0.47920
                                    2 3d2+  0.52841
   30.1    -0.00000     2.27830     1 2py   0.25530     1 3d1-  0.67633     2 2py   0.25530     2 3d1- -0.67633     3 1s   -0.49381
                                    4 1s    0.49381     5 1s   -0.49381     6 1s    0.49381
   31.1    -0.00000     2.28192     1 1s   -0.26131     1 1s    0.49226     1 3d2-  0.53757     1 3d2+ -0.45019     2 1s   -0.26131
                                    2 1s    0.49226     2 3d2- -0.53757     2 3d2+ -0.45019     3 1s   -0.29567     4 1s   -0.29567
                                    5 1s   -0.29567     6 1s   -0.29567
   32.1    -0.00000     2.40233     1 1s   -0.47290     1 2pz   0.26896     1 2pz  -0.45648     1 3d0   0.65968     2 1s   -0.47290
                                    2 2pz  -0.26896     2 2pz   0.45648     2 3d0   0.65968
   33.1    -0.00000     2.56730     1 1s    0.30537     1 1s   -1.38291     1 2pz   0.30210     1 3d2+  0.77083     2 1s   -0.30537
                                    2 1s    1.38291     2 2pz   0.30210     2 3d2+ -0.77083     3 1s    0.43206     4 1s    0.43206
                                    5 1s   -0.43206     6 1s   -0.43206
   34.1    -0.00000     2.70726     1 3d1+  0.89869     2 3d1+  0.89869
   35.1    -0.00000     3.00417     1 2py   0.44252     1 3d1-  0.95723     2 2py  -0.44252     2 3d1-  0.95723     3 1s   -0.44807
                                    4 1s    0.44807     5 1s    0.44807     6 1s   -0.44807
   36.1    -0.00000     3.04915     1 1s    0.31053     1 1s    2.03780     1 2pz  -0.79266     1 2pz  -1.17652     1 3d0   1.11296
                                    2 1s   -0.31053     2 1s   -2.03780     2 2pz  -0.79266     2 2pz  -1.17652     2 3d0  -1.11296


 Natural orbital dump (state averaged) at molpro section  2140.2    (Orbital set 2)



 **********************************************************************************************************************************
 DATASETS  * FILE   NREC   LENGTH (MB)   RECORD NAMES
              1      20       31.61       500      610      700      900      950      970     1000      129      960     1100   
                                          VAR    BASINP    GEOM    SYMINP    ZMAT    AOBASIS   BASIS     P2S    ABASIS      S 
                                         1400     1410     1200     1210     1080     1600     1650     1300     1700     1380   
                                           T        V       H0       H01     AOSYM     SMH    MOLCAS    ERIS     OPER     JKOP   

              2       5        5.42       700     1000      520     2100     2140   
                                         GEOM     BASIS   MCVARS     RHF     MCSCF   

 PROGRAMS   *        TOTAL     MULTI    HF-SCF       INT
 CPU TIMES  *         0.78      0.30      0.11      0.27
 REAL TIME  *         1.07 SEC
 DISK USED  *        38.79 MB
 **********************************************************************************************************************************
 Molecular orbitals read from record     2140.2  Type=MCSCF/NATURAL (state averaged)
 Occupation numbers read from record     2140.2  Type=MCSCF/NATURAL (state averaged)
 Orbital energies read from record       2140.2  Type=MCSCF/NATURAL (state averaged)
 Redundancy group numbers read from rec  2140.2  Type=MCSCF/NATURAL (state averaged)

 MULTI/6-31G* energy=    -77.538940167616

           MULTI          HF-SCF
    -77.53894017    -78.01918726
 **********************************************************************************************************************************
 Molpro calculation terminated
