
 Primary working directories    : /scratch.local/johan406.molpro_temp/molpro.RmWJwZItvn
 Secondary working directories  : /scratch.local/johan406.molpro_temp/molpro.RmWJwZItvn
 Wavefunction directory         : /home/goodpast/johan406/wfu/
 Main file repository           : /scratch.local/johan406.molpro_temp/molpro.RmWJwZItvn/

 id        : roweumn

 Nodes     nprocs
 cn0117       1

 Using customized tuning parameters: mindgm=1; mindgv=20; mindgc=4; mindgr=1; noblas=0; minvec=7
 default implementation of scratch files=df  


 Variables initialized (934), CPU time= 0.01 sec
                                                                                 !leave this line blank
 
 gprint, orbitals=30
 memory, 125., m
 symmetry, nosym
 nelect=16
 basis=6-31g*
 
 geometry={
 C 0.0246 0.0 0.6691
 C -0.0246 0.0 -0.6691
 H -0.0804 0.9149 1.2348
 H -0.0804 -0.9149 1.2348
 H 0.0804 0.9149 -1.2348
 H 0.0804 -0.9149 -1.2348
 }
 
 hf
 {multi,
 closed 7
 occ 9
 wf,spin=0;STATE,3
 }
 
 Commands  initialized (763), CPU time= 0.01 sec, 617 directives.
 Default parameters read. Elapsed time= 0.08 sec

 Checking input...
 Passed
1


                                         ***  PROGRAM SYSTEM MOLPRO  ***
                                       Copyright, TTI GmbH Stuttgart, 2015
                                    Version 2019.2 linked Oct 25 2019 22:50:27


 **********************************************************************************************************************************
 LABEL *                                                                                 
  64 bit serial version                                                                  DATE: 26-Jan-23          TIME: 19:26:10  
 **********************************************************************************************************************************

 SHA1:             8dbd9ae1082e4ce945b0f27595c9eb2d4aa09004
 **********************************************************************************************************************************


 Variable memory set to  125000000 words,  buffer space 

 SETTING NELECT         =        16.00000000                                  
 SETTING BASIS          =    6-31G*
 ZSYMEL=NOSYM


Geometry recognized as XYZ



 Recomputing integrals since basis changed


 Using spherical harmonics

 Library entry C      S 6-31G                selected for orbital group  1
 Library entry C      P 6-31G                selected for orbital group  1
 Library entry C      D 6-31G*               selected for orbital group  1
 Library entry H      S 6-31G                selected for orbital group  2


 PROGRAM * SEWARD (Integral evaluation for generally contracted gaussian basis sets)     Author: Roland Lindh, 1990

 Geometry written to block  1 of record 700


 Point group  C1  



 ATOMIC COORDINATES

 NR  ATOM    CHARGE       X              Y              Z

   1  C       6.00    0.046487263    0.000000000    1.264415750
   2  C       6.00   -0.046487263    0.000000000   -1.264415750
   3  H       1.00   -0.151933980    1.728910431    2.333433819
   4  H       1.00   -0.151933980   -1.728910431    2.333433819
   5  H       1.00    0.151933980    1.728910431   -2.333433819
   6  H       1.00    0.151933980   -1.728910431   -2.333433819

 Bond lengths in Bohr (Angstrom)

 1-2  2.530540064  1-3  2.042376533  1-4  2.042376533  2-5  2.042376533  2-6  2.042376533
     ( 1.339104133)     ( 1.080779117)     ( 1.080779117)     ( 1.080779117)     ( 1.080779117)

 Bond angles

  1-2-5  121.29843912   1-2-6  121.29843912   2-1-3  121.29843912   2-1-4  121.29843912

  3-1-4  115.67009106   5-2-6  115.67009106

 NUCLEAR CHARGE:                   16
 NUMBER OF PRIMITIVE AOS:          72
 NUMBER OF SYMMETRY AOS:           70
 NUMBER OF CONTRACTIONS:           36   (   36A   )
 NUMBER OF CORE ORBITALS:           2   (    2A   )
 NUMBER OF VALENCE ORBITALS:       12   (   12A   )


 NUCLEAR REPULSION ENERGY   33.33752256


 Eigenvalues of metric

         1 0.830E-02 0.194E-01 0.374E-01 0.468E-01 0.719E-01 0.193E+00 0.212E+00 0.222E+00


 Contracted 2-electron integrals neglected if value below      1.0D-11
 AO integral compression algorithm  1   Integral accuracy      1.0D-11

     1.311 MB (compressed) written to integral file ( 49.5%)


 NUMBER OF SORTED TWO-ELECTRON INTEGRALS:     222111.     BUFFER LENGTH:  32768
 NUMBER OF SEGMENTS:   1  SEGMENT LENGTH:     222111      RECORD LENGTH: 524288

 Memory used in sort:       0.78 MW

 SORT1 READ      284735. AND WROTE      177317. INTEGRALS IN      1 RECORDS. CPU TIME:     0.01 SEC, REAL TIME:     0.01 SEC
 SORT2 READ      177317. AND WROTE      222111. INTEGRALS IN      5 RECORDS. CPU TIME:     0.02 SEC, REAL TIME:     0.02 SEC

 FILE SIZES:   FILE 1:    31.4 MBYTE,  FILE 4:     4.2 MBYTE,   TOTAL:     35.6 MBYTE

 OPERATOR DM      FOR CENTER  0  COORDINATES:    0.000000    0.000000    0.000000


 **********************************************************************************************************************************
 DATASETS  * FILE   NREC   LENGTH (MB)   RECORD NAMES
              1      19       30.96       500      610      700      900      950      970     1000      129      960     1100   
                                          VAR    BASINP    GEOM    SYMINP    ZMAT    AOBASIS   BASIS     P2S    ABASIS      S 
                                         1400     1410     1200     1210     1080     1600     1650     1300     1700   
                                           T        V       H0       H01     AOSYM     SMH    MOLCAS    ERIS     OPER   

 PROGRAMS   *        TOTAL       INT
 CPU TIMES  *         0.34      0.24
 REAL TIME  *         0.57 SEC
 DISK USED  *        35.97 MB
 **********************************************************************************************************************************


 PROGRAM * RHF-SCF (CLOSED SHELL)       Authors: W. Meyer, H.-J. Werner


 NUMBER OF ELECTRONS:       8+    8-    SPACE SYMMETRY=1    SPIN SYMMETRY: Singlet 
 CONVERGENCE THRESHOLDS:    1.00E-05 (Density)    1.00E-07 (Energy)
 MAX. NUMBER OF ITERATIONS:       60
 INTERPOLATION TYPE:            DIIS
 INTERPOLATION STEPS:              2 (START)      1 (STEP)
 LEVEL SHIFTS:                  0.00 (CLOSED)  0.00 (OPEN) 



 Orbital guess generated from atomic densities. Full valence occupancy:    8

 Molecular orbital dump at record        2100.2

 Initial occupancy:   8

 ITERATION    DDIFF          GRAD             ENERGY        2-EL.EN.            DIPOLE MOMENTS         DIIS   ORB.
    1      0.000D+00      0.000D+00       -78.00329415    118.583287   -0.00000    0.00000    0.00000    0    start
    2      0.000D+00      0.855D-02       -78.02514908    116.753097   -0.00000    0.00000   -0.00000    1    diag
    3      0.816D-02      0.292D-02       -78.02728993    117.384054   -0.00000    0.00000    0.00000    2    diag
    4      0.266D-02      0.721D-03       -78.02750864    117.283771   -0.00000   -0.00000   -0.00000    3    diag
    5      0.110D-02      0.791D-04       -78.02751206    117.286855   -0.00000    0.00000   -0.00000    4    diag
    6      0.181D-03      0.177D-04       -78.02751231    117.286342    0.00000    0.00000   -0.00000    5    diag
    7      0.380D-04      0.664D-05       -78.02751235    117.286391   -0.00000   -0.00000   -0.00000    6    diag
    8      0.186D-04      0.103D-05       -78.02751235    117.286384   -0.00000   -0.00000    0.00000    7    diag
    9      0.237D-05      0.104D-06       -78.02751235    117.286388   -0.00000   -0.00000    0.00000    0    orth

 Final occupancy:   8

 !RHF STATE  1.1 Energy               -78.027512350973
 Nuclear energy                        33.33752256
 One-electron energy                 -170.00822897
 Two-electron energy                   58.64319406
 Virial quotient                       -1.00039539
 !RHF STATE  1.1 Dipole moment         -0.00000000    -0.00000000     0.00000000
 Dipole moment /Debye                  -0.00000000    -0.00000000     0.00000000

 ELECTRON ORBITALS
 =================

  Orbital  Occupation    Energy     Coefficients
    1.1     2.00000   -11.22689     1 1s    0.70419     2 1s    0.70419
    2.1     2.00000   -11.22530     1 1s    0.70455     2 1s   -0.70455
    3.1     2.00000    -1.02704     1 1s    0.30193     2 1s    0.30193
    4.1     2.00000    -0.79095     2 1s   -0.24401
    5.1     2.00000    -0.63617     1 2py   0.32125     2 2py   0.32125
    6.1     2.00000    -0.58145     1 2pz   0.40658     2 2pz  -0.40658
    7.1     2.00000    -0.50264     1 2py   0.30473     2 2py  -0.30473
    8.1     2.00000    -0.37047     1 2px   0.37181     1 2px   0.30724     2 2px   0.37181     2 2px   0.30724
    9.1     0.00000     0.17357     1 2px   0.33864     1 2px   0.70969     2 2px  -0.33864     2 2px  -0.70969
   10.1     0.00000     0.26660     1 1s   -1.47658     1 2pz  -0.64183     2 1s   -1.47658     2 2pz   0.64183     3 1s    1.03675
                                    4 1s    1.03675     5 1s    1.03675     6 1s    1.03675
   11.1     0.00000     0.29352     1 2py  -0.25300     1 2py  -0.80243     2 2py  -0.25300     2 2py  -0.80243     3 1s    1.09271
                                    4 1s   -1.09271     5 1s    1.09271     6 1s   -1.09271
   12.1     0.00000     0.30778     1 1s    1.92960     2 1s   -1.92960     3 1s   -1.07155     4 1s   -1.07155     5 1s    1.07155
                                    6 1s    1.07155
   13.1     0.00000     0.38824     1 2py  -1.84129     2 2py   1.84129     3 1s    1.59250     4 1s   -1.59250     5 1s   -1.59250
                                    6 1s    1.59250
   14.1     0.00000     0.48943     1 1s   -2.98751     1 2pz   2.92476     2 1s    2.98751     2 2pz   2.92476     3 1s   -0.57205
                                    4 1s   -0.57205     5 1s    0.57205     6 1s    0.57205
   15.1     0.00000     0.66921     1 2pz  -0.55715     1 2pz   1.03477     2 2pz   0.55715     2 2pz  -1.03477
   16.1     0.00000     0.76304     1 2py  -0.40024     1 2py   0.76298     2 2py  -0.40024     2 2py   0.76298     3 1s   -0.38755
                                    4 1s    0.38755     5 1s   -0.38755     6 1s    0.38755
   17.1     0.00000     0.77877     1 2px  -0.73884     1 2px   0.64186     2 2px  -0.73884     2 2px   0.64186
   18.1     0.00000     0.87475     1 1s   -0.89486     1 1s    1.47984     1 2pz   0.34975     2 1s   -0.89486     2 1s    1.47984
                                    2 2pz  -0.34975     3 1s   -0.39505     4 1s   -0.39505     5 1s   -0.39505     6 1s   -0.39505
   19.1     0.00000     0.88933     1 2px  -0.81176     1 2px   1.08825     2 2px   0.81176     2 2px  -1.08825
   20.1     0.00000     0.95919     1 1s   -0.82590     1 2pz   0.60967     1 2pz  -0.48249     2 1s    0.82590     2 2pz   0.60967
                                    2 2pz  -0.48249     3 1s    0.38222     4 1s    0.38222     5 1s   -0.38222     6 1s   -0.38222
   21.1     0.00000     1.11251     1 2py  -0.68834     1 2py   1.09714     2 2py  -0.68834     2 2py   1.09714     3 1s    0.38249
                                    3 1s   -1.06069     4 1s   -0.38249     4 1s    1.06069     5 1s    0.38249     5 1s   -1.06069
                                    6 1s   -0.38249     6 1s    1.06069
   22.1     0.00000     1.12749     1 2py  -0.90391     1 2py   3.02240     2 2py   0.90391     2 2py  -3.02240     3 1s   -1.44281
                                    4 1s    1.44281     5 1s    1.44281     6 1s   -1.44281
   23.1     0.00000     1.21309     1 1s    1.03300     1 1s   -1.72155     1 2pz   0.36455     1 2pz  -0.49489     2 1s    1.03300
                                    2 1s   -1.72155     2 2pz  -0.36455     2 2pz   0.49489     3 1s   -0.44022     3 1s    0.86624
                                    4 1s   -0.44022     4 1s    0.86624     5 1s   -0.44022     5 1s    0.86624     6 1s   -0.44022
                                    6 1s    0.86624
   24.1     0.00000     1.21648     1 1s   -0.52740     1 1s    0.50522     1 2pz  -0.62132     1 2pz   1.22300     2 1s    0.52740
                                    2 1s   -0.50522     2 2pz  -0.62132     2 2pz   1.22300     3 1s    0.46840     3 1s   -0.96759
                                    4 1s    0.46840     4 1s   -0.96759     5 1s   -0.46840     5 1s    0.96759     6 1s   -0.46840
                                    6 1s    0.96759
   25.1     0.00000     1.33966     1 1s   -1.59327     1 1s    5.39629     1 2pz   0.25695     1 2pz  -1.91317     2 1s    1.59327
                                    2 1s   -5.39629     2 2pz   0.25695     2 2pz  -1.91317     3 1s   -0.33317     4 1s   -0.33317
                                    5 1s    0.33317     6 1s    0.33317
   26.1     0.00000     1.38389     1 2py   1.64410     2 2py  -1.64410     3 1s   -0.66440     4 1s    0.66440     5 1s    0.66440
                                    6 1s   -0.66440
   27.1     0.00000     1.74418     1 3d1+  0.61618     2 3d1+ -0.61618
   28.1     0.00000     1.91237     1 2py  -1.20320     1 3d2-  0.66322     2 2py   1.20320     2 3d2-  0.66322     3 1s    0.42359
                                    4 1s   -0.42359     5 1s   -0.42359     6 1s    0.42359
   29.1     0.00000     2.08435     1 3d2-  0.64589     1 3d1-  0.30010     2 3d2- -0.64589     2 3d1- -0.30010
   30.1     0.00000     2.19027     1 1s   -0.62194     1 3d2+  0.70749     2 1s   -0.62194     2 3d2+  0.70749     3 1s    0.36494
                                    4 1s    0.36494     5 1s    0.36494     6 1s    0.36494
   31.1     0.00000     2.37763     1 3d2- -0.36087     1 3d1-  0.62127     2 3d2-  0.36087     2 3d1- -0.62127     3 1s   -0.48703
                                    4 1s    0.48703     5 1s   -0.48703     6 1s    0.48703
   32.1     0.00000     2.40752     1 1s   -0.50675     1 2pz   0.28349     1 2pz  -0.44355     1 3d0   0.69217     2 1s   -0.50675
                                    2 2pz  -0.28349     2 2pz   0.44355     2 3d0   0.69217
   33.1     0.00000     2.60672     1 1s    0.29880     1 1s   -1.39951     1 2pz   0.29740     1 3d2+  0.79282     2 1s   -0.29880
                                    2 1s    1.39951     2 2pz   0.29740     2 3d2+ -0.79282     3 1s    0.43894     4 1s    0.43894
                                    5 1s   -0.43894     6 1s   -0.43894
   34.1     0.00000     2.71338     1 2px  -0.25515     1 3d1+  0.89828     2 2px   0.25515     2 3d1+  0.89828
   35.1     0.00000     3.03803     1 2py   0.47377     1 3d1-  0.96395     2 2py  -0.47377     2 3d1-  0.96395     3 1s   -0.46331
                                    4 1s    0.46331     5 1s    0.46331     6 1s   -0.46331
   36.1     0.00000     3.06120     1 1s    0.31553     1 1s    2.00627     1 2pz  -0.79471     1 2pz  -1.16878     1 3d0   1.10885
                                    2 1s   -0.31553     2 1s   -2.00627     2 2pz  -0.79471     2 2pz  -1.16878     2 3d0  -1.10885


 HOMO      8.1    -0.370467 =     -10.0809eV
 LUMO      9.1     0.173574 =       4.7232eV
 LUMO-HOMO         0.544040 =      14.8041eV


 **********************************************************************************************************************************
 DATASETS  * FILE   NREC   LENGTH (MB)   RECORD NAMES
              1      19       30.96       500      610      700      900      950      970     1000      129      960     1100   
                                          VAR    BASINP    GEOM    SYMINP    ZMAT    AOBASIS   BASIS     P2S    ABASIS      S 
                                         1400     1410     1200     1210     1080     1600     1650     1300     1700   
                                           T        V       H0       H01     AOSYM     SMH    MOLCAS    ERIS     OPER   

              2       4        2.86       700     1000      520     2100   
                                         GEOM     BASIS   MCVARS     RHF  

 PROGRAMS   *        TOTAL    HF-SCF       INT
 CPU TIMES  *         0.46      0.12      0.24
 REAL TIME  *         0.70 SEC
 DISK USED  *        35.97 MB
 **********************************************************************************************************************************


 PROGRAM * MULTI (Direct Multiconfiguration SCF)       Authors: P.J. Knowles, H.-J. Werner (1984)


 Number of closed-shell orbitals:   7 (   7 )
 Number of active  orbitals:        2 (   2 )
 Number of external orbitals:      27 (  27 )

 State symmetry 1

 Number of electrons:     2    Spin symmetry=Singlet   Space symmetry=1
 Number of states:        3
 Number of CSFs:          3   (4 determinants, 4 intermediate states)

 Molecular orbitals read from record     2100.2  Type=RHF/CANONICAL (state 1.1)

 Wavefunction dump at record             2140.2

 Convergence thresholds  0.10E-01 (gradient)  0.10E-05 (energy)  0.10E-02 (step length)

 Weight factors for state symmetry  1:    0.33333   0.33333   0.33333

 Number of orbital rotations:      257   (    14 Core/Active    189 Core/Virtual   0 Active/Active     54 Active/Virtual)
 Total number of variables:        269

 Micro-Iterations solved by the two-step solver

 ITER. MIC  NCI  NEG     ENERGY(VAR)     ENERGY(PROJ)   ENERGY CHANGE     GRAD(0)  GRAD(ORB)   GRAD(CI)     STEP       TIME

   1    5    4    0     -77.72836128     -77.73492613   -0.00656485    0.13387818 0.00024241 0.00000000  0.73D-01      0.09
   2    4    4    0     -77.73481682     -77.73482159   -0.00000477    0.00322338 0.00000002 0.00000000  0.29D-02      0.16
   3    2    3    0     -77.73482159     -77.73482159   -0.00000000    0.00000328 0.00000000 0.00000000  0.70D-05      0.21

 ** WVFN ****  CONVERGENCE REACHED, FINAL GRADIENT:  0.44D-10



 Results for state 1.1
 =====================

 !MCSCF STATE  1.1 Energy             -78.045363360354
 Nuclear energy                        33.33752256
 Kinetic energy                        78.06706988
 One electron energy                 -170.14116065
 Two electron energy                   58.75827473
 Virial ratio                           1.99972195

 !MCSCF STATE  1.1 Dipole moment       -0.00000000     0.00000000     0.00000000
 Dipole moment /Debye                  -0.00000000     0.00000000     0.00000000

 Results for state 2.1
 =====================

 !MCSCF STATE  2.1 Energy             -77.671582480855
 Nuclear energy                        33.33752256
 Kinetic energy                        78.24496201
 One electron energy                 -169.56570845
 Two electron energy                   58.55660341
 Virial ratio                           1.99267199

 !MCSCF STATE  2.1 Dipole moment       -0.00000000     0.00000000     0.00000000
 Dipole moment /Debye                  -0.00000000     0.00000000     0.00000000

 Results for state 3.1
 =====================

 !MCSCF STATE  3.1 Energy             -77.487518941835
 Nuclear energy                        33.33752256
 Kinetic energy                        78.42285414
 One electron energy                 -168.99025624
 Two electron energy                   58.16521475
 Virial ratio                           1.98807318

 !MCSCF STATE  3.1 Dipole moment       -0.00000000     0.00000000     0.00000000
 Dipole moment /Debye                  -0.00000000     0.00000000     0.00000000

 State-averaged charge density matrix saved on record  2140.2 (density set 1)

 !MCSCF trans         <2.1|DMX|1.1>    -0.189915583195 au =    -0.482685647937 Debye
 !MCSCF trans         <3.1|DMX|2.1>    -0.287347202266 au =    -0.730315902334 Debye

 !MCSCF trans         <2.1|DMZ|1.1>    -1.501506627753 au =    -3.816199214965 Debye
 !MCSCF trans         <3.1|DMZ|2.1>    -2.271818464866 au =    -5.774008373933 Debye


 NATURAL ORBITALS (state averaged)
 =================================

  Orbital  Occupation    Energy     Coefficients
    1.1     2.00000   -11.24287     1 1s    0.70421     2 1s    0.70421
    2.1     2.00000   -11.24155     1 1s    0.70451     2 1s   -0.70451
    3.1     2.00000    -1.04211     1 1s    0.30993     2 1s    0.30993
    4.1     2.00000    -0.79903     1 1s    0.28949     2 1s   -0.28949
    5.1     2.00000    -0.64926     1 2py   0.32697     2 2py   0.32697
    6.1     2.00000    -0.59679     1 2pz   0.40813     2 2pz  -0.40813
    7.1     2.00000    -0.50947     1 2py   0.31138     2 2py  -0.31138
    8.1     1.00000     0.02953     1 2px   0.37702     1 2px   0.67194     2 2px  -0.37702     2 2px  -0.67194
    9.1     1.00000    -0.22708     1 2px   0.35686     1 2px   0.31944     2 2px   0.35686     2 2px   0.31944
   10.1    -0.00000     0.26340     1 1s   -1.47805     1 2pz  -0.64986     2 1s   -1.47805     2 2pz   0.64986     3 1s    1.03845
                                    4 1s    1.03845     5 1s    1.03845     6 1s    1.03845
   11.1    -0.00000     0.28469     1 2py  -0.25143     1 2py  -0.79271     2 2py  -0.25143     2 2py  -0.79271     3 1s    1.08409
                                    4 1s   -1.08409     5 1s    1.08409     6 1s   -1.08409
   12.1    -0.00000     0.30432     1 1s    1.94941     2 1s   -1.94941     3 1s   -1.06655     4 1s   -1.06655     5 1s    1.06655
                                    6 1s    1.06655
   13.1    -0.00000     0.38381     1 2py  -1.82673     2 2py   1.82673     3 1s    1.58579     4 1s   -1.58579     5 1s   -1.58579
                                    6 1s    1.58579
   14.1    -0.00000     0.48672     1 1s   -2.96767     1 2pz   2.90660     2 1s    2.96767     2 2pz   2.90660     3 1s   -0.57996
                                    4 1s   -0.57996     5 1s    0.57996     6 1s    0.57996
   15.1    -0.00000     0.65757     1 1s    0.25890     1 2pz  -0.54856     1 2pz   1.01193     2 1s    0.25890     2 2pz   0.54856
                                    2 2pz  -1.01193
   16.1    -0.00000     0.75245     1 2py  -0.41155     1 2py   0.77046     2 2py  -0.41155     2 2py   0.77046     3 1s   -0.38276
                                    4 1s    0.38276     5 1s   -0.38276     6 1s    0.38276
   17.1    -0.00000     0.77229     1 2px  -0.74580     1 2px   0.63757     2 2px  -0.74580     2 2px   0.63757
   18.1    -0.00000     0.87077     1 1s   -0.70784     1 1s    1.15809     1 2px  -0.52364     1 2px   0.59424     1 2pz   0.28719
                                    2 1s   -0.70784     2 1s    1.15809     2 2px   0.52364     2 2px  -0.59424     2 2pz  -0.28719
                                    3 1s   -0.29568     4 1s   -0.29568     5 1s   -0.29568     6 1s   -0.29568
   19.1    -0.00000     0.87250     1 1s    0.53842     1 1s   -0.96695     1 2px  -0.60690     1 2px   0.94844     1 2pz  -0.27662
                                    2 1s    0.53842     2 1s   -0.96695     2 2px   0.60690     2 2px  -0.94844     2 2pz   0.27662
                                    3 1s    0.26974     4 1s    0.26974     5 1s    0.26974     6 1s    0.26974
   20.1    -0.00000     0.94014     1 1s   -0.66716     1 2pz   0.61409     1 2pz  -0.56563     2 1s    0.66716     2 2pz   0.61409
                                    2 2pz  -0.56563     3 1s    0.38232     4 1s    0.38232     5 1s   -0.38232     6 1s   -0.38232
   21.1    -0.00000     1.09696     1 2py  -0.67665     1 2py   1.09868     2 2py  -0.67665     2 2py   1.09868     3 1s    0.38333
                                    3 1s   -1.06977     4 1s   -0.38333     4 1s    1.06977     5 1s    0.38333     5 1s   -1.06977
                                    6 1s   -0.38333     6 1s    1.06977
   22.1    -0.00000     1.11539     1 2py  -0.90218     1 2py   3.02029     2 2py   0.90218     2 2py  -3.02029     3 1s   -1.44998
                                    4 1s    1.44998     5 1s    1.44998     6 1s   -1.44998
   23.1    -0.00000     1.20950     1 1s    1.02809     1 1s   -1.71785     1 2pz   0.36820     1 2pz  -0.50050     2 1s    1.02809
                                    2 1s   -1.71785     2 2pz  -0.36820     2 2pz   0.50050     3 1s   -0.44090     3 1s    0.86597
                                    4 1s   -0.44090     4 1s    0.86597     5 1s   -0.44090     5 1s    0.86597     6 1s   -0.44090
                                    6 1s    0.86597
   24.1    -0.00000     1.21364     1 1s   -0.46789     1 1s    0.30868     1 2pz  -0.63428     1 2pz   1.29615     2 1s    0.46789
                                    2 1s   -0.30868     2 2pz  -0.63428     2 2pz   1.29615     3 1s    0.47070     3 1s   -0.95507
                                    4 1s    0.47070     4 1s   -0.95507     5 1s   -0.47070     5 1s    0.95507     6 1s   -0.47070
                                    6 1s    0.95507
   25.1    -0.00000     1.31969     1 1s   -1.61385     1 1s    5.42376     1 2pz  -1.86455     2 1s    1.61385     2 1s   -5.42376
                                    2 2pz  -1.86455     3 1s   -0.37101     4 1s   -0.37101     5 1s    0.37101     6 1s    0.37101
   26.1    -0.00000     1.37588     1 2py   1.65942     2 2py  -1.65942     3 1s   -0.66281     4 1s    0.66281     5 1s    0.66281
                                    6 1s   -0.66281
   27.1    -0.00000     1.71862     1 3d1+  0.61569     2 3d1+ -0.61569
   28.1    -0.00000     1.89784     1 2py  -1.20761     1 3d2-  0.66295     2 2py   1.20761     2 3d2-  0.66295     3 1s    0.42475
                                    4 1s   -0.42475     5 1s   -0.42475     6 1s    0.42475
   29.1    -0.00000     2.06270     1 3d2-  0.64942     1 3d1-  0.29314     2 3d2- -0.64942     2 3d1- -0.29314
   30.1    -0.00000     2.17444     1 1s   -0.61769     1 3d2+  0.70685     2 1s   -0.61769     2 3d2+  0.70685     3 1s    0.36666
                                    4 1s    0.36666     5 1s    0.36666     6 1s    0.36666
   31.1    -0.00000     2.35967     1 2py   0.25059     1 3d2- -0.35444     1 3d1-  0.62264     2 2py   0.25059     2 3d2-  0.35444
                                    2 3d1- -0.62264     3 1s   -0.49177     4 1s    0.49177     5 1s   -0.49177     6 1s    0.49177
   32.1    -0.00000     2.38728     1 1s   -0.50473     1 2pz   0.28941     1 2pz  -0.44623     1 3d0   0.69201     2 1s   -0.50473
                                    2 2pz  -0.28941     2 2pz   0.44623     2 3d0   0.69201
   33.1    -0.00000     2.58694     1 1s    0.29976     1 1s   -1.40715     1 2pz   0.29709     1 3d2+  0.79201     2 1s   -0.29976
                                    2 1s    1.40715     2 2pz   0.29709     2 3d2+ -0.79201     3 1s    0.44209     4 1s    0.44209
                                    5 1s   -0.44209     6 1s   -0.44209
   34.1    -0.00000     2.69089     1 2px  -0.25557     1 3d1+  0.89845     2 2px   0.25557     2 3d1+  0.89845
   35.1    -0.00000     3.02498     1 2py   0.47333     1 3d1-  0.96363     2 2py  -0.47333     2 3d1-  0.96363     3 1s   -0.46552
                                    4 1s    0.46552     5 1s    0.46552     6 1s   -0.46552
   36.1    -0.00000     3.04310     1 1s    0.30853     1 1s    2.03145     1 2pz  -0.78715     1 2pz  -1.18219     1 3d0   1.11051
                                    2 1s   -0.30853     2 1s   -2.03145     2 2pz  -0.78715     2 2pz  -1.18219     2 3d0  -1.11051


 Natural orbital dump (state averaged) at molpro section  2140.2    (Orbital set 2)



 **********************************************************************************************************************************
 DATASETS  * FILE   NREC   LENGTH (MB)   RECORD NAMES
              1      20       31.69       500      610      700      900      950      970     1000      129      960     1100   
                                          VAR    BASINP    GEOM    SYMINP    ZMAT    AOBASIS   BASIS     P2S    ABASIS      S 
                                         1400     1410     1200     1210     1080     1600     1650     1300     1700     1380   
                                           T        V       H0       H01     AOSYM     SMH    MOLCAS    ERIS     OPER     JKOP   

              2       5        5.42       700     1000      520     2100     2140   
                                         GEOM     BASIS   MCVARS     RHF     MCSCF   

 PROGRAMS   *        TOTAL     MULTI    HF-SCF       INT
 CPU TIMES  *         0.71      0.25      0.12      0.24
 REAL TIME  *         0.99 SEC
 DISK USED  *        38.88 MB
 **********************************************************************************************************************************
 Molecular orbitals read from record     2140.2  Type=MCSCF/NATURAL (state averaged)
 Occupation numbers read from record     2140.2  Type=MCSCF/NATURAL (state averaged)
 Orbital energies read from record       2140.2  Type=MCSCF/NATURAL (state averaged)
 Redundancy group numbers read from rec  2140.2  Type=MCSCF/NATURAL (state averaged)

 MULTI/6-31G* energy=    -77.487518941835

           MULTI          HF-SCF
    -77.48751894    -78.02751235
 **********************************************************************************************************************************
 Molpro calculation terminated
