
 Primary working directories    : /scratch.local/johan406.molpro_temp/molpro.kcLibhwhIT
 Secondary working directories  : /scratch.local/johan406.molpro_temp/molpro.kcLibhwhIT
 Wavefunction directory         : /home/goodpast/johan406/wfu/
 Main file repository           : /scratch.local/johan406.molpro_temp/molpro.kcLibhwhIT/

 id        : roweumn

 Nodes     nprocs
 cn0117       1

 Using customized tuning parameters: mindgm=1; mindgv=20; mindgc=4; mindgr=1; noblas=0; minvec=7
 default implementation of scratch files=df  


 Variables initialized (934), CPU time= 0.01 sec
                                                                                 !leave this line blank
 
 gprint, orbitals=30
 memory, 125., m
 symmetry, nosym
 nelect=16
 basis=6-31g*
 
 geometry={
 C 0.0 0.0282 0.6691
 C 0.0 -0.0282 -0.6691
 H 0.0 0.8886 1.3231
 H -0.0 -0.9412 1.1464
 H 0.0 0.9412 -1.1464
 H 0.0 -0.8886 -1.3231
 }
 
 hf
 {multi,
 closed 7
 occ 9
 wf,spin=0;STATE,3
 }
 
 Commands  initialized (763), CPU time= 0.01 sec, 617 directives.
 Default parameters read. Elapsed time= 0.09 sec

 Checking input...
 Passed
1


                                         ***  PROGRAM SYSTEM MOLPRO  ***
                                       Copyright, TTI GmbH Stuttgart, 2015
                                    Version 2019.2 linked Oct 25 2019 22:50:27


 **********************************************************************************************************************************
 LABEL *                                                                                 
  64 bit serial version                                                                  DATE: 26-Jan-23          TIME: 20:06:17  
 **********************************************************************************************************************************

 SHA1:             8dbd9ae1082e4ce945b0f27595c9eb2d4aa09004
 **********************************************************************************************************************************


 Variable memory set to  125000000 words,  buffer space 

 SETTING NELECT         =        16.00000000                                  
 SETTING BASIS          =    6-31G*
 ZSYMEL=NOSYM


Geometry recognized as XYZ



 Recomputing integrals since basis changed


 Using spherical harmonics

 Library entry C      S 6-31G                selected for orbital group  1
 Library entry C      P 6-31G                selected for orbital group  1
 Library entry C      D 6-31G*               selected for orbital group  1
 Library entry H      S 6-31G                selected for orbital group  2


 PROGRAM * SEWARD (Integral evaluation for generally contracted gaussian basis sets)     Author: Roland Lindh, 1990

 Geometry written to block  1 of record 700


 Point group  C1  



 ATOMIC COORDINATES

 NR  ATOM    CHARGE       X              Y              Z

   1  C       6.00    0.000000000    0.053290277    1.264415750
   2  C       6.00    0.000000000   -0.053290277   -1.264415750
   3  H       1.00    0.000000000    1.679210634    2.500296635
   4  H       1.00    0.000000000   -1.778610228    2.166382029
   5  H       1.00    0.000000000    1.778610228   -2.166382029
   6  H       1.00    0.000000000   -1.679210634   -2.500296635

 Bond lengths in Bohr (Angstrom)

 1-2  2.531076484  1-3  2.042307169  1-4  2.041911514  2-5  2.041911514  2-6  2.042307169
     ( 1.339387995)     ( 1.080742411)     ( 1.080533040)     ( 1.080533040)     ( 1.080742411)

 Bond angles

  1-2-5  113.80071683   1-2-6  129.65225520   2-1-3  129.65225520   2-1-4  113.80071683

  3-1-4  116.54702797   5-2-6  116.54702797

 NUCLEAR CHARGE:                   16
 NUMBER OF PRIMITIVE AOS:          72
 NUMBER OF SYMMETRY AOS:           70
 NUMBER OF CONTRACTIONS:           36   (   36A   )
 NUMBER OF CORE ORBITALS:           2   (    2A   )
 NUMBER OF VALENCE ORBITALS:       12   (   12A   )


 NUCLEAR REPULSION ENERGY   33.34477303

 EXTRA SYMMETRY OF AOS IN SYMMETRY 1:   1 1 1 2 1 1 2 1 1 1   2 2 1 1 1 1 1 2 1 1   2 1 1 1 2 2 1 1 1 1   1 1 1 1 1 1

 Eigenvalues of metric

         1 0.801E-02 0.184E-01 0.388E-01 0.462E-01 0.714E-01 0.193E+00 0.213E+00 0.227E+00


 Contracted 2-electron integrals neglected if value below      1.0D-11
 AO integral compression algorithm  1   Integral accuracy      1.0D-11

     1.049 MB (compressed) written to integral file ( 36.7%)


 NUMBER OF SORTED TWO-ELECTRON INTEGRALS:     222111.     BUFFER LENGTH:  32768
 NUMBER OF SEGMENTS:   1  SEGMENT LENGTH:     222111      RECORD LENGTH: 524288

 Memory used in sort:       0.78 MW

 SORT1 READ      284735. AND WROTE      118725. INTEGRALS IN      1 RECORDS. CPU TIME:     0.01 SEC, REAL TIME:     0.00 SEC
 SORT2 READ      118725. AND WROTE      222111. INTEGRALS IN      4 RECORDS. CPU TIME:     0.02 SEC, REAL TIME:     0.02 SEC

 FILE SIZES:   FILE 1:    31.1 MBYTE,  FILE 4:     4.2 MBYTE,   TOTAL:     35.4 MBYTE

 OPERATOR DM      FOR CENTER  0  COORDINATES:    0.000000    0.000000    0.000000


 **********************************************************************************************************************************
 DATASETS  * FILE   NREC   LENGTH (MB)   RECORD NAMES
              1      19       30.72       500      610      700      900      950      970     1000      129      960     1100   
                                          VAR    BASINP    GEOM    SYMINP    ZMAT    AOBASIS   BASIS     P2S    ABASIS      S 
                                         1400     1410     1200     1210     1080     1600     1650     1300     1700   
                                           T        V       H0       H01     AOSYM     SMH    MOLCAS    ERIS     OPER   

 PROGRAMS   *        TOTAL       INT
 CPU TIMES  *         0.35      0.25
 REAL TIME  *         0.58 SEC
 DISK USED  *        35.71 MB
 **********************************************************************************************************************************


 PROGRAM * RHF-SCF (CLOSED SHELL)       Authors: W. Meyer, H.-J. Werner


 NUMBER OF ELECTRONS:       8+    8-    SPACE SYMMETRY=1    SPIN SYMMETRY: Singlet 
 CONVERGENCE THRESHOLDS:    1.00E-05 (Density)    1.00E-07 (Energy)
 MAX. NUMBER OF ITERATIONS:       60
 INTERPOLATION TYPE:            DIIS
 INTERPOLATION STEPS:              2 (START)      1 (STEP)
 LEVEL SHIFTS:                  0.00 (CLOSED)  0.00 (OPEN) 



 Orbital guess generated from atomic densities. Full valence occupancy:    8

 Molecular orbital dump at record        2100.2

 Initial occupancy:   8

 ITERATION    DDIFF          GRAD             ENERGY        2-EL.EN.            DIPOLE MOMENTS         DIIS   ORB.
    1      0.000D+00      0.000D+00       -78.00029473    118.594010    0.00000   -0.00000   -0.00000    0    start
    2      0.000D+00      0.852D-02       -78.02189402    116.769292    0.00000    0.00000   -0.00000    1    diag
    3      0.821D-02      0.290D-02       -78.02400099    117.397720    0.00000    0.00000   -0.00000    2    diag
    4      0.263D-02      0.711D-03       -78.02421141    117.298433    0.00000   -0.00000    0.00000    3    diag
    5      0.108D-02      0.706D-04       -78.02421376    117.301371    0.00000    0.00000   -0.00000    4    diag
    6      0.155D-03      0.869D-05       -78.02421379    117.300905   -0.00000    0.00000   -0.00000    5    diag
    7      0.171D-04      0.137D-05       -78.02421379    117.300912   -0.00000   -0.00000   -0.00000    6    diag
    8      0.223D-05      0.177D-06       -78.02421379    117.300905    0.00000   -0.00000   -0.00000    0    orth

 Final occupancy:   8

 !RHF STATE  1.1 Energy               -78.024213792934
 Nuclear energy                        33.34477303
 One-electron energy                 -170.01943936
 Two-electron energy                   58.65045253
 Virial quotient                       -1.00042245
 !RHF STATE  1.1 Dipole moment          0.00000000    -0.00000000    -0.00000000
 Dipole moment /Debye                   0.00000000    -0.00000000    -0.00000000

 ELECTRON ORBITALS
 =================

  Orbital  Occupation    Energy     Coefficients
    1.1     2.00000   -11.22690     1 1s    0.70419     2 1s    0.70419
    2.1     2.00000   -11.22532     1 1s    0.70454     2 1s   -0.70454
    3.1     2.00000    -1.02714     1 1s    0.30173     2 1s    0.30173
    4.1     2.00000    -0.79031     2 1s   -0.24319
    5.1     2.00000    -0.63717     1 2py   0.32106     2 2py   0.32106
    6.1     2.00000    -0.58868     1 2pz   0.38918     2 2pz  -0.38918
    7.1     2.00000    -0.49418     1 2py   0.29360     2 2py  -0.29360
    8.1     2.00000    -0.36958     1 2px   0.37333     1 2px   0.30799     2 2px   0.37333     2 2px   0.30799
    9.1     0.00000     0.17821     1 2px   0.34246     1 2px   0.73285     2 2px  -0.34246     2 2px  -0.73285
   10.1     0.00000     0.26545     1 1s   -1.47601     1 2pz  -0.63545     2 1s   -1.47601     2 2pz   0.63545     3 1s    0.98528
                                    4 1s    1.07356     5 1s    1.07356     6 1s    0.98528
   11.1     0.00000     0.28641     1 1s   -0.75483     1 2py  -0.67905     2 1s    0.75483     2 2py  -0.67905     3 1s    1.42877
                                    4 1s   -0.47731     5 1s    0.47731     6 1s   -1.42877
   12.1     0.00000     0.31364     1 1s   -1.76660     1 2py   0.46706     2 1s    1.76660     2 2py   0.46706     3 1s    0.40063
                                    4 1s    1.51461     5 1s   -1.51461     6 1s   -0.40063
   13.1     0.00000     0.38452     1 2py  -1.80473     2 2py   1.80473     3 1s    1.69670     4 1s   -1.43773     5 1s   -1.43773
                                    6 1s    1.69670
   14.1     0.00000     0.48945     1 1s   -3.02536     1 2pz   2.97935     2 1s    3.02536     2 2pz   2.97935     3 1s   -0.78025
                                    4 1s   -0.41296     5 1s    0.41296     6 1s    0.78025
   15.1     0.00000     0.67315     1 2pz  -0.54298     1 2pz   1.02143     2 2pz   0.54298     2 2pz  -1.02143     3 1s   -0.25556
                                    6 1s   -0.25556
   16.1     0.00000     0.76169     1 1s   -0.32093     1 2py  -0.38324     1 2py   0.74869     1 2pz   0.56480     2 1s    0.32093
                                    2 2py  -0.38324     2 2py   0.74869     2 2pz   0.56480     3 1s   -0.47189     4 1s    0.27970
                                    5 1s   -0.27970     6 1s    0.47189
   17.1     0.00000     0.77681     1 2px  -0.74072     1 2px   0.63962     2 2px  -0.74072     2 2px   0.63962
   18.1     0.00000     0.86159     1 1s   -0.88304     1 1s    1.41998     1 2pz   0.29891     2 1s   -0.88304     2 1s    1.41998
                                    2 2pz  -0.29891     3 1s   -0.41083     4 1s   -0.38242     4 1s   -0.32933     5 1s   -0.38242
                                    5 1s   -0.32933     6 1s   -0.41083
   19.1     0.00000     0.88977     1 2px  -0.81835     1 2px   1.07359     2 2px   0.81835     2 2px  -1.07359
   20.1     0.00000     0.96295     1 1s   -0.86901     1 2pz   0.57845     1 2py   0.48651     1 2pz  -0.37735     2 1s    0.86901
                                    2 2pz   0.57845     2 2py   0.48651     2 2pz  -0.37735     3 1s    0.32623     4 1s    0.40184
                                    4 1s    0.36252     5 1s   -0.40184     5 1s   -0.36252     6 1s   -0.32623
   21.1     0.00000     1.11900     1 1s    0.46476     1 2py  -0.65701     1 2py   1.01418     2 1s   -0.46476     2 2py  -0.65701
                                    2 2py   1.01418     3 1s    0.26558     3 1s   -0.90001     4 1s   -0.51569     4 1s    1.12314
                                    5 1s    0.51569     5 1s   -1.12314     6 1s   -0.26558     6 1s    0.90001
   22.1     0.00000     1.15003     1 1s   -0.50559     1 2py   0.90442     1 2py  -2.82136     1 2pz  -0.42877     2 1s   -0.50559
                                    2 2py  -0.90442     2 2py   2.82136     2 2pz   0.42877     3 1s    1.67723     4 1s   -1.22904
                                    5 1s   -1.22904     6 1s    1.67723
   23.1     0.00000     1.21097     1 1s    1.03349     1 1s   -1.70918     1 2pz   0.35828     1 2pz  -0.47747     2 1s    1.03349
                                    2 1s   -1.70918     2 2pz  -0.35828     2 2pz   0.47747     3 1s   -0.42111     3 1s    0.77311
                                    4 1s   -0.45582     4 1s    0.94273     5 1s   -0.45582     5 1s    0.94273     6 1s   -0.42111
                                    6 1s    0.77311
   24.1     0.00000     1.21853     1 1s   -0.52902     1 1s    0.52013     1 2pz  -0.63458     1 2pz   1.22660     2 1s    0.52902
                                    2 1s   -0.52013     2 2pz  -0.63458     2 2pz   1.22660     3 1s    0.50624     3 1s   -1.08196
                                    4 1s    0.41494     4 1s   -0.84218     5 1s   -0.41494     5 1s    0.84218     6 1s   -0.50624
                                    6 1s    1.08196
   25.1     0.00000     1.33777     1 1s   -1.58659     1 1s    5.40648     1 2pz   0.26552     1 2py  -0.32810     1 2pz  -1.96345
                                    2 1s    1.58659     2 1s   -5.40648     2 2pz   0.26552     2 2py  -0.32810     2 2pz  -1.96345
                                    4 1s   -0.50586     5 1s    0.50586
   26.1     0.00000     1.45201     1 1s    0.33065     1 2py   2.31671     1 2pz   0.44286     2 1s    0.33065     2 2py  -2.31671
                                    2 2pz  -0.44286     3 1s   -0.73180     3 1s   -0.74573     4 1s    0.63704     4 1s    0.40328
                                    5 1s    0.63704     5 1s    0.40328     6 1s   -0.73180     6 1s   -0.74573
   27.1     0.00000     1.73794     1 3d1+  0.61833     2 3d1+ -0.61833
   28.1     0.00000     1.82253     1 3d2-  0.68095     2 3d2-  0.68095
   29.1     0.00000     2.12819     1 3d2-  0.73514     2 3d2- -0.73514
   30.1     0.00000     2.22049     1 1s   -0.55364     1 2py   0.47604     1 3d2+  0.70626     2 1s   -0.55364     2 2py  -0.47604
                                    2 3d2+  0.70626     4 1s    0.47608     5 1s    0.47608
   31.1     0.00000     2.29905     1 1s   -0.48915     1 2py   0.26437     1 2pz   0.40176     1 3d1-  0.66693     2 1s    0.48915
                                    2 2py   0.26437     2 2pz   0.40176     2 3d1- -0.66693     3 1s   -0.59005     4 1s    0.39344
                                    5 1s   -0.39344     6 1s    0.59005
   32.1     0.00000     2.41752     1 1s   -0.49210     1 2pz   0.27599     1 2pz  -0.43313     1 3d0   0.68739     2 1s   -0.49210
                                    2 2pz  -0.27599     2 2pz   0.43313     2 3d0   0.68739     4 1s    0.25450     5 1s    0.25450
   33.1     0.00000     2.62789     1 1s    0.29180     1 1s   -1.48245     1 2pz   0.38088     1 3d2+  0.78682     2 1s   -0.29180
                                    2 1s    1.48245     2 2pz   0.38088     2 3d2+ -0.78682     3 1s    0.28888     4 1s    0.56678
                                    5 1s   -0.56678     6 1s   -0.28888
   34.1     0.00000     2.70569     1 2px  -0.26441     1 3d1+  0.90133     2 2px   0.26441     2 3d1+  0.90133
   35.1     0.00000     3.04594     1 2py   0.44980     1 3d1-  0.96503     2 2py  -0.44980     2 3d1-  0.96503     3 1s   -0.53372
                                    4 1s    0.37435     5 1s    0.37435     6 1s   -0.53372
   36.1     0.00000     3.07347     1 1s    0.31945     1 1s    1.97416     1 2pz  -0.78370     1 2pz  -1.15672     1 3d0   1.10718
                                    2 1s   -0.31945     2 1s   -1.97416     2 2pz  -0.78370     2 2pz  -1.15672     2 3d0  -1.10718


 HOMO      8.1    -0.369576 =     -10.0567eV
 LUMO      9.1     0.178209 =       4.8493eV
 LUMO-HOMO         0.547785 =      14.9060eV


 **********************************************************************************************************************************
 DATASETS  * FILE   NREC   LENGTH (MB)   RECORD NAMES
              1      19       30.72       500      610      700      900      950      970     1000      129      960     1100   
                                          VAR    BASINP    GEOM    SYMINP    ZMAT    AOBASIS   BASIS     P2S    ABASIS      S 
                                         1400     1410     1200     1210     1080     1600     1650     1300     1700   
                                           T        V       H0       H01     AOSYM     SMH    MOLCAS    ERIS     OPER   

              2       4        2.86       700     1000      520     2100   
                                         GEOM     BASIS   MCVARS     RHF  

 PROGRAMS   *        TOTAL    HF-SCF       INT
 CPU TIMES  *         0.46      0.11      0.25
 REAL TIME  *         0.72 SEC
 DISK USED  *        35.71 MB
 **********************************************************************************************************************************


 PROGRAM * MULTI (Direct Multiconfiguration SCF)       Authors: P.J. Knowles, H.-J. Werner (1984)


 Number of closed-shell orbitals:   7 (   7 )
 Number of active  orbitals:        2 (   2 )
 Number of external orbitals:      27 (  27 )

 State symmetry 1

 Number of electrons:     2    Spin symmetry=Singlet   Space symmetry=1
 Number of states:        3
 Number of CSFs:          3   (4 determinants, 4 intermediate states)

 Molecular orbitals read from record     2100.2  Type=RHF/CANONICAL (state 1.1)

 EXTRA SYMMETRY OF MOS IN SYMMETRY 1:   1 1 1 1 1 1 1 2 2 1   1 1 1 1 1 1 2 1 2 1   1 1 1 1 1 1 2 2 2 1   1 1 1 2 1 1

 Wavefunction dump at record             2140.2

 Convergence thresholds  0.10E-01 (gradient)  0.10E-05 (energy)  0.10E-02 (step length)

 Weight factors for state symmetry  1:    0.33333   0.33333   0.33333

 Number of orbital rotations:      257   (    14 Core/Active    189 Core/Virtual   0 Active/Active     54 Active/Virtual)
 Total number of variables:        269

 Micro-Iterations solved by the two-step solver

 ITER. MIC  NCI  NEG     ENERGY(VAR)     ENERGY(PROJ)   ENERGY CHANGE     GRAD(0)  GRAD(ORB)   GRAD(CI)     STEP       TIME

   1    3    3    0     -77.72306668     -77.72930336   -0.00623668    0.13240687 0.00000154 0.00000000  0.63D-01      0.07
   2    2    3    0     -77.72920522     -77.72920898   -0.00000376    0.00303769 0.00000186 0.00000000  0.16D-02      0.11
   3    2    3    0     -77.72920898     -77.72920898   -0.00000000    0.00000216 0.00000000 0.00000000  0.13D-05      0.14

 ** WVFN ****  CONVERGENCE REACHED, FINAL GRADIENT:  0.13D-11



 Results for state 1.1
 =====================

 !MCSCF STATE  1.1 Energy             -78.041925187785
 Nuclear energy                        33.34477303
 Kinetic energy                        78.05972581
 One electron energy                 -170.15100327
 Two electron energy                   58.76430505
 Virial ratio                           1.99977196

 !MCSCF STATE  1.1 Dipole moment        0.00000000     0.00000000    -0.00000000
 Dipole moment /Debye                   0.00000000     0.00000000    -0.00000000

 Results for state 2.1
 =====================

 !MCSCF STATE  2.1 Energy             -77.665879576657
 Nuclear energy                        33.34477303
 Kinetic energy                        78.24072372
 One electron energy                 -169.57923960
 Two electron energy                   58.56858699
 Virial ratio                           1.99265288

 !MCSCF STATE  2.1 Dipole moment        0.00000000     0.00000000    -0.00000000
 Dipole moment /Debye                   0.00000000     0.00000000    -0.00000000

 Results for state 3.1
 =====================

 !MCSCF STATE  3.1 Energy             -77.479822181221
 Nuclear energy                        33.34477303
 Kinetic energy                        78.42172163
 One electron energy                 -169.00747592
 Two electron energy                   58.18288071
 Virial ratio                           1.98798930

 !MCSCF STATE  3.1 Dipole moment        0.00000000     0.00000000    -0.00000000
 Dipole moment /Debye                   0.00000000     0.00000000    -0.00000000

 State-averaged charge density matrix saved on record  2140.2 (density set 1)

 !MCSCF trans         <2.1|DMY|1.1>    -0.063120113951 au =    -0.160424819216 Debye
 !MCSCF trans         <3.1|DMY|2.1>    -0.095046081178 au =    -0.241567219000 Debye

 !MCSCF trans         <2.1|DMZ|1.1>    -1.509334368694 au =    -3.836094044784 Debye
 !MCSCF trans         <3.1|DMZ|2.1>    -2.272751234936 au =    -5.776379083688 Debye


 NATURAL ORBITALS (state averaged)
 =================================

  Orbital  Occupation    Energy     Coefficients
    1.1     2.00000   -11.24248     1 1s    0.70421     2 1s    0.70421
    2.1     2.00000   -11.24117     1 1s    0.70450     2 1s   -0.70450
    3.1     2.00000    -1.04196     1 1s    0.30969     2 1s    0.30969
    4.1     2.00000    -0.79803     1 1s    0.28880     2 1s   -0.28880
    5.1     2.00000    -0.65009     1 2py   0.32664     2 2py   0.32664
    6.1     2.00000    -0.60230     1 2pz   0.39444     2 2pz  -0.39444
    7.1     2.00000    -0.50210     1 2py   0.30249     2 2py  -0.30249
    8.1     1.00000     0.03336     1 2px   0.38039     1 2px   0.68590     2 2px  -0.38039     2 2px  -0.68590
    9.1     1.00000    -0.22569     1 2px   0.35790     1 2px   0.31943     2 2px   0.35790     2 2px   0.31943
   10.1    -0.00000     0.26261     1 1s   -1.46877     1 2pz  -0.63895     2 1s   -1.46877     2 2pz   0.63895     3 1s    0.96175
                                    4 1s    1.09213     5 1s    1.09213     6 1s    0.96175
   11.1    -0.00000     0.27921     1 1s   -0.63040     1 2py  -0.70453     2 1s    0.63040     2 2py  -0.70453     3 1s    1.37950
                                    4 1s   -0.59089     5 1s    0.59089     6 1s   -1.37950
   12.1    -0.00000     0.30912     1 1s   -1.84207     1 2py   0.40755     2 1s    1.84207     2 2py   0.40755     3 1s    0.50958
                                    4 1s    1.46496     5 1s   -1.46496     6 1s   -0.50958
   13.1    -0.00000     0.38020     1 2py  -1.78795     2 2py   1.78795     3 1s    1.70375     4 1s   -1.41380     5 1s   -1.41380
                                    6 1s    1.70375
   14.1    -0.00000     0.48636     1 1s   -2.99657     1 2pz   2.95793     2 1s    2.99657     2 2pz   2.95793     3 1s   -0.79554
                                    4 1s   -0.41784     5 1s    0.41784     6 1s    0.79554
   15.1    -0.00000     0.66209     1 1s    0.25054     1 2pz  -0.53535     1 2pz   1.00123     2 1s    0.25054     2 2pz   0.53535
                                    2 2pz  -1.00123
   16.1    -0.00000     0.75224     1 1s   -0.37448     1 2py  -0.39522     1 2py   0.76034     1 2pz   0.59704     2 1s    0.37448
                                    2 2py  -0.39522     2 2py   0.76034     2 2pz   0.59704     3 1s   -0.46551     4 1s    0.27639
                                    5 1s   -0.27639     6 1s    0.46551
   17.1    -0.00000     0.77083     1 2px  -0.74736     1 2px   0.63434     2 2px  -0.74736     2 2px   0.63434
   18.1    -0.00000     0.85855     1 1s   -0.87690     1 1s    1.44009     1 2py  -0.25984     1 2pz   0.34045     2 1s   -0.87690
                                    2 1s    1.44009     2 2py   0.25984     2 2pz  -0.34045     3 1s   -0.40892     4 1s   -0.38714
                                    4 1s   -0.34623     5 1s   -0.38714     5 1s   -0.34623     6 1s   -0.40892
   19.1    -0.00000     0.87220     1 2px  -0.80276     1 2px   1.10399     2 2px   0.80276     2 2px  -1.10399
   20.1    -0.00000     0.94388     1 1s   -0.72368     1 2pz   0.58445     1 2py   0.46994     1 2pz  -0.45876     2 1s    0.72368
                                    2 2pz   0.58445     2 2py   0.46994     2 2pz  -0.45876     3 1s    0.32561     4 1s    0.40425
                                    4 1s    0.34791     5 1s   -0.40425     5 1s   -0.34791     6 1s   -0.32561
   21.1    -0.00000     1.10329     1 1s    0.42940     1 2py  -0.64769     1 2py   1.02108     2 1s   -0.42940     2 2py  -0.64769
                                    2 2py   1.02108     3 1s    0.26990     3 1s   -0.91012     4 1s   -0.51221     4 1s    1.13649
                                    5 1s    0.51221     5 1s   -1.13649     6 1s   -0.26990     6 1s    0.91012
   22.1    -0.00000     1.13786     1 1s   -0.46567     1 2py   0.90308     1 2py  -2.82785     1 2pz  -0.41749     2 1s   -0.46567
                                    2 2py  -0.90308     2 2py   2.82785     2 2pz   0.41749     3 1s    1.66345     4 1s   -1.26057
                                    5 1s   -1.26057     6 1s    1.66345
   23.1    -0.00000     1.20754     1 1s    1.03131     1 1s   -1.71793     1 2pz   0.36508     1 2pz  -0.49421     2 1s    1.03131
                                    2 1s   -1.71793     2 2pz  -0.36508     2 2pz   0.49421     3 1s   -0.42701     3 1s    0.81927
                                    4 1s   -0.45071     4 1s    0.90714     5 1s   -0.45071     5 1s    0.90714     6 1s   -0.42701
                                    6 1s    0.81927
   24.1    -0.00000     1.21619     1 1s   -0.46568     1 1s    0.30751     1 2pz  -0.64739     1 2pz   1.30541     2 1s    0.46568
                                    2 1s   -0.30751     2 2pz  -0.64739     2 2pz   1.30541     3 1s    0.50953     3 1s   -1.07459
                                    4 1s    0.41802     4 1s   -0.82260     5 1s   -0.41802     5 1s    0.82260     6 1s   -0.50953
                                    6 1s    1.07459
   25.1    -0.00000     1.31796     1 1s   -1.60826     1 1s    5.43642     1 2py  -0.32578     1 2pz  -1.91273     2 1s    1.60826
                                    2 1s   -5.43642     2 2py  -0.32578     2 2pz  -1.91273     4 1s   -0.54095     5 1s    0.54095
   26.1    -0.00000     1.44367     1 1s    0.33563     1 2py   2.32103     1 2pz   0.44442     2 1s    0.33563     2 2py  -2.32103
                                    2 2pz  -0.44442     3 1s   -0.73101     3 1s   -0.74868     4 1s    0.63588     4 1s    0.40327
                                    5 1s    0.63588     5 1s    0.40327     6 1s   -0.73101     6 1s   -0.74868
   27.1    -0.00000     1.71231     1 3d1+  0.61806     2 3d1+ -0.61806
   28.1    -0.00000     1.80879     1 3d2-  0.68095     2 3d2-  0.68095
   29.1    -0.00000     2.10521     1 3d2-  0.73513     2 3d2- -0.73513
   30.1    -0.00000     2.20488     1 1s   -0.54981     1 2py   0.47286     1 3d2+  0.70573     2 1s   -0.54981     2 2py  -0.47286
                                    2 3d2+  0.70573     4 1s    0.47701     5 1s    0.47701
   31.1    -0.00000     2.28254     1 1s   -0.48983     1 2py   0.27111     1 2pz   0.40430     1 3d1-  0.66457     2 1s    0.48983
                                    2 2py   0.27111     2 2pz   0.40430     2 3d1- -0.66457     3 1s   -0.59528     4 1s    0.39386
                                    5 1s   -0.39386     6 1s    0.59528
   32.1    -0.00000     2.39761     1 1s   -0.48996     1 2pz   0.28161     1 2pz  -0.43576     1 3d0   0.68700     2 1s   -0.48996
                                    2 2pz  -0.28161     2 2pz   0.43576     2 3d0   0.68700     4 1s    0.25540     5 1s    0.25540
   33.1    -0.00000     2.60863     1 1s    0.29279     1 1s   -1.49287     1 2pz   0.38273     1 3d2+  0.78561     2 1s   -0.29279
                                    2 1s    1.49287     2 2pz   0.38273     2 3d2+ -0.78561     3 1s    0.28909     4 1s    0.57170
                                    5 1s   -0.57170     6 1s   -0.28909
   34.1    -0.00000     2.68322     1 2px  -0.26517     1 3d1+  0.90172     2 2px   0.26517     2 3d1+  0.90172
   35.1    -0.00000     3.03295     1 2py   0.44981     1 3d1-  0.96467     2 2py  -0.44981     2 3d1-  0.96467     3 1s   -0.53613
                                    4 1s    0.37659     5 1s    0.37659     6 1s   -0.53613
   36.1    -0.00000     3.05566     1 1s    0.31273     1 1s    1.99797     1 2pz  -0.77623     1 2pz  -1.16956     1 3d0   1.10873
                                    2 1s   -0.31273     2 1s   -1.99797     2 2pz  -0.77623     2 2pz  -1.16956     2 3d0  -1.10873


 Natural orbital dump (state averaged) at molpro section  2140.2    (Orbital set 2)



 **********************************************************************************************************************************
 DATASETS  * FILE   NREC   LENGTH (MB)   RECORD NAMES
              1      20       31.45       500      610      700      900      950      970     1000      129      960     1100   
                                          VAR    BASINP    GEOM    SYMINP    ZMAT    AOBASIS   BASIS     P2S    ABASIS      S 
                                         1400     1410     1200     1210     1080     1600     1650     1300     1700     1380   
                                           T        V       H0       H01     AOSYM     SMH    MOLCAS    ERIS     OPER     JKOP   

              2       5        5.42       700     1000      520     2100     2140   
                                         GEOM     BASIS   MCVARS     RHF     MCSCF   

 PROGRAMS   *        TOTAL     MULTI    HF-SCF       INT
 CPU TIMES  *         0.64      0.18      0.11      0.25
 REAL TIME  *         0.93 SEC
 DISK USED  *        38.63 MB
 **********************************************************************************************************************************
 Molecular orbitals read from record     2140.2  Type=MCSCF/NATURAL (state averaged)
 Occupation numbers read from record     2140.2  Type=MCSCF/NATURAL (state averaged)
 Orbital energies read from record       2140.2  Type=MCSCF/NATURAL (state averaged)
 Redundancy group numbers read from rec  2140.2  Type=MCSCF/NATURAL (state averaged)

 MULTI/6-31G* energy=    -77.479822181221

           MULTI          HF-SCF
    -77.47982218    -78.02421379
 **********************************************************************************************************************************
 Molpro calculation terminated
