
 Primary working directories    : /scratch.local/johan406.molpro_temp/molpro.K2bhm6uzuR
 Secondary working directories  : /scratch.local/johan406.molpro_temp/molpro.K2bhm6uzuR
 Wavefunction directory         : /home/goodpast/johan406/wfu/
 Main file repository           : /scratch.local/johan406.molpro_temp/molpro.K2bhm6uzuR/

 id        : roweumn

 Nodes     nprocs
 cn0117       1

 Using customized tuning parameters: mindgm=1; mindgv=20; mindgc=4; mindgr=1; noblas=0; minvec=7
 default implementation of scratch files=df  


 Variables initialized (934), CPU time= 0.00 sec
                                                                                 !leave this line blank
 
 gprint, orbitals=30
 memory, 125., m
 symmetry, nosym
 nelect=16
 basis=6-31g*
 
 geometry={
 C 0.0 0.0498 0.6691
 C 0.0 -0.0498 -0.6691
 H 0.0 0.8684 1.3908
 H -0.0 -0.9614 1.0787
 H 0.0 0.9614 -1.0787
 H 0.0 -0.8684 -1.3908
 }
 
 hf
 {multi,
 closed 7
 occ 9
 wf,spin=0;STATE,3
 }
 
 Commands  initialized (763), CPU time= 0.01 sec, 617 directives.
 Default parameters read. Elapsed time= 0.08 sec

 Checking input...
 Passed
1


                                         ***  PROGRAM SYSTEM MOLPRO  ***
                                       Copyright, TTI GmbH Stuttgart, 2015
                                    Version 2019.2 linked Oct 25 2019 22:50:27


 **********************************************************************************************************************************
 LABEL *                                                                                 
  64 bit serial version                                                                  DATE: 26-Jan-23          TIME: 20:09:51  
 **********************************************************************************************************************************

 SHA1:             8dbd9ae1082e4ce945b0f27595c9eb2d4aa09004
 **********************************************************************************************************************************


 Variable memory set to  125000000 words,  buffer space 

 SETTING NELECT         =        16.00000000                                  
 SETTING BASIS          =    6-31G*
 ZSYMEL=NOSYM


Geometry recognized as XYZ



 Recomputing integrals since basis changed


 Using spherical harmonics

 Library entry C      S 6-31G                selected for orbital group  1
 Library entry C      P 6-31G                selected for orbital group  1
 Library entry C      D 6-31G*               selected for orbital group  1
 Library entry H      S 6-31G                selected for orbital group  2


 PROGRAM * SEWARD (Integral evaluation for generally contracted gaussian basis sets)     Author: Roland Lindh, 1990

 Geometry written to block  1 of record 700


 Point group  C1  



 ATOMIC COORDINATES

 NR  ATOM    CHARGE       X              Y              Z

   1  C       6.00    0.000000000    0.094108361    1.264415750
   2  C       6.00    0.000000000   -0.094108361   -1.264415750
   3  H       1.00    0.000000000    1.641038167    2.628231094
   4  H       1.00    0.000000000   -1.816782696    2.038447571
   5  H       1.00    0.000000000    1.816782696   -2.038447571
   6  H       1.00    0.000000000   -1.641038167   -2.628231094

 Bond lengths in Bohr (Angstrom)

 1-2  2.535826155  1-3  2.062276440  1-4  2.061705578  2-5  2.061705578  2-6  2.062276440
     ( 1.341901412)     ( 1.091309695)     ( 1.091007608)     ( 1.091007608)     ( 1.091309695)

 Bond angles

  1-2-5  107.79448147   1-2-6  135.65685773   2-1-3  135.65685773   2-1-4  107.79448147

  3-1-4  116.54866081   5-2-6  116.54866081

 NUCLEAR CHARGE:                   16
 NUMBER OF PRIMITIVE AOS:          72
 NUMBER OF SYMMETRY AOS:           70
 NUMBER OF CONTRACTIONS:           36   (   36A   )
 NUMBER OF CORE ORBITALS:           2   (    2A   )
 NUMBER OF VALENCE ORBITALS:       12   (   12A   )


 NUCLEAR REPULSION ENERGY   33.21575299

 EXTRA SYMMETRY OF AOS IN SYMMETRY 1:   1 1 1 2 1 1 2 1 1 1   2 2 1 1 1 1 1 2 1 1   2 1 1 1 2 2 1 1 1 1   1 1 1 1 1 1

 Eigenvalues of metric

         1 0.740E-02 0.207E-01 0.413E-01 0.466E-01 0.723E-01 0.196E+00 0.217E+00 0.231E+00


 Contracted 2-electron integrals neglected if value below      1.0D-11
 AO integral compression algorithm  1   Integral accuracy      1.0D-11

     1.049 MB (compressed) written to integral file ( 36.8%)


 NUMBER OF SORTED TWO-ELECTRON INTEGRALS:     222111.     BUFFER LENGTH:  32768
 NUMBER OF SEGMENTS:   1  SEGMENT LENGTH:     222111      RECORD LENGTH: 524288

 Memory used in sort:       0.78 MW

 SORT1 READ      284735. AND WROTE      118724. INTEGRALS IN      1 RECORDS. CPU TIME:     0.00 SEC, REAL TIME:     0.00 SEC
 SORT2 READ      118724. AND WROTE      222111. INTEGRALS IN      4 RECORDS. CPU TIME:     0.02 SEC, REAL TIME:     0.02 SEC

 FILE SIZES:   FILE 1:    31.1 MBYTE,  FILE 4:     4.2 MBYTE,   TOTAL:     35.4 MBYTE

 OPERATOR DM      FOR CENTER  0  COORDINATES:    0.000000    0.000000    0.000000


 **********************************************************************************************************************************
 DATASETS  * FILE   NREC   LENGTH (MB)   RECORD NAMES
              1      19       30.72       500      610      700      900      950      970     1000      129      960     1100   
                                          VAR    BASINP    GEOM    SYMINP    ZMAT    AOBASIS   BASIS     P2S    ABASIS      S 
                                         1400     1410     1200     1210     1080     1600     1650     1300     1700   
                                           T        V       H0       H01     AOSYM     SMH    MOLCAS    ERIS     OPER   

 PROGRAMS   *        TOTAL       INT
 CPU TIMES  *         0.34      0.24
 REAL TIME  *         0.57 SEC
 DISK USED  *        35.71 MB
 **********************************************************************************************************************************


 PROGRAM * RHF-SCF (CLOSED SHELL)       Authors: W. Meyer, H.-J. Werner


 NUMBER OF ELECTRONS:       8+    8-    SPACE SYMMETRY=1    SPIN SYMMETRY: Singlet 
 CONVERGENCE THRESHOLDS:    1.00E-05 (Density)    1.00E-07 (Energy)
 MAX. NUMBER OF ITERATIONS:       60
 INTERPOLATION TYPE:            DIIS
 INTERPOLATION STEPS:              2 (START)      1 (STEP)
 LEVEL SHIFTS:                  0.00 (CLOSED)  0.00 (OPEN) 



 Orbital guess generated from atomic densities. Full valence occupancy:    8

 Molecular orbital dump at record        2100.2

 Initial occupancy:   8

 ITERATION    DDIFF          GRAD             ENERGY        2-EL.EN.            DIPOLE MOMENTS         DIIS   ORB.
    1      0.000D+00      0.000D+00       -77.98686396    118.322910   -0.00000    0.00000   -0.00000    0    start
    2      0.000D+00      0.836D-02       -78.00772061    116.529568   -0.00000    0.00000    0.00000    1    diag
    3      0.818D-02      0.285D-02       -78.00978399    117.153115   -0.00000    0.00000    0.00000    2    diag
    4      0.261D-02      0.708D-03       -78.00999659    117.052541   -0.00000    0.00000    0.00000    3    diag
    5      0.109D-02      0.765D-04       -78.00999950    117.055544   -0.00000    0.00000    0.00000    4    diag
    6      0.173D-03      0.994D-05       -78.00999956    117.055003   -0.00000   -0.00000   -0.00000    5    diag
    7      0.209D-04      0.174D-05       -78.00999956    117.055004   -0.00000   -0.00000   -0.00000    6    diag
    8      0.322D-05      0.235D-06       -78.00999956    117.054997    0.00000   -0.00000    0.00000    0    orth

 Final occupancy:   8

 !RHF STATE  1.1 Energy               -78.009999557619
 Nuclear energy                        33.21575299
 One-electron energy                 -169.75325090
 Two-electron energy                   58.52749835
 Virial quotient                       -1.00107643
 !RHF STATE  1.1 Dipole moment          0.00000000    -0.00000000     0.00000000
 Dipole moment /Debye                   0.00000000    -0.00000000     0.00000000

 ELECTRON ORBITALS
 =================

  Orbital  Occupation    Energy     Coefficients
    1.1     2.00000   -11.23076     1 1s    0.70420     2 1s    0.70420
    2.1     2.00000   -11.22920     1 1s    0.70454     2 1s   -0.70454
    3.1     2.00000    -1.02762     1 1s    0.30084     2 1s    0.30084
    4.1     2.00000    -0.78633     1 1s    0.24574
    5.1     2.00000    -0.63409     1 2py   0.31962     2 2py   0.31962
    6.1     2.00000    -0.59690     1 2pz   0.37000     2 2pz  -0.37000
    7.1     2.00000    -0.47397     1 2py   0.28151     2 2py  -0.28151
    8.1     2.00000    -0.37026     1 2px   0.37345     1 2px   0.30810     2 2px   0.37345     2 2px   0.30810
    9.1     0.00000     0.17735     1 2px   0.34337     1 2px   0.73047     2 2px  -0.34337     2 2px  -0.73047
   10.1     0.00000     0.26308     1 1s   -1.43157     1 2pz  -0.61095     2 1s   -1.43157     2 2pz   0.61095     3 1s    0.92761
                                    4 1s    1.07982     5 1s    1.07982     6 1s    0.92761
   11.1     0.00000     0.27367     1 1s   -0.82304     1 2py  -0.59661     1 2pz  -0.29135     2 1s    0.82304     2 2py  -0.59661
                                    2 2pz  -0.29135     3 1s    1.41921     4 1s   -0.31073     5 1s    0.31073     6 1s   -1.41921
   12.1     0.00000     0.31741     1 1s   -1.69055     1 2py   0.60675     2 1s    1.69055     2 2py   0.60675     4 1s    1.58394
                                    5 1s   -1.58394
   13.1     0.00000     0.37172     1 1s   -0.35067     1 2py  -1.66146     2 1s   -0.35067     2 2py   1.66146     3 1s    1.66646
                                    4 1s   -1.22897     5 1s   -1.22897     6 1s    1.66646
   14.1     0.00000     0.48703     1 1s   -3.10054     1 2py   0.26388     1 2pz   3.02863     2 1s    3.10054     2 2py   0.26388
                                    2 2pz   3.02863     3 1s   -0.93242     4 1s   -0.27790     5 1s    0.27790     6 1s    0.93242
   15.1     0.00000     0.68047     1 2pz  -0.52086     1 2pz   0.98983     2 2pz   0.52086     2 2pz  -0.98983     3 1s   -0.34976
                                    6 1s   -0.34976
   16.1     0.00000     0.76248     1 1s   -0.57919     1 2py  -0.35747     1 2py   0.71630     1 2pz   0.97067     2 1s    0.57919
                                    2 2py  -0.35747     2 2py   0.71630     2 2pz   0.97067     3 1s   -0.51357     6 1s    0.51357
   17.1     0.00000     0.77590     1 2px  -0.74099     1 2px   0.63982     2 2px  -0.74099     2 2px   0.63982
   18.1     0.00000     0.85984     1 1s   -0.87209     1 1s    1.33210     1 2py  -0.37047     2 1s   -0.87209     2 1s    1.33210
                                    2 2py   0.37047     3 1s   -0.42654     4 1s   -0.37212     4 1s   -0.36954     5 1s   -0.37212
                                    5 1s   -0.36954     6 1s   -0.42654
   19.1     0.00000     0.88818     1 2px  -0.81788     1 2px   1.07314     2 2px   0.81788     2 2px  -1.07314
   20.1     0.00000     0.97634     1 1s   -0.82552     1 2py  -0.39203     1 2pz   0.52885     1 2py   0.83944     2 1s    0.82552
                                    2 2py  -0.39203     2 2pz   0.52885     2 2py   0.83944     3 1s    0.28372     3 1s   -0.40690
                                    4 1s    0.35871     4 1s    0.58962     5 1s   -0.35871     5 1s   -0.58962     6 1s   -0.28372
                                    6 1s    0.40690
   21.1     0.00000     1.12600     1 1s   -0.79812     1 2py   0.57818     1 2py  -0.80903     1 2pz   0.39154     2 1s    0.79812
                                    2 2py   0.57818     2 2py  -0.80903     2 2pz   0.39154     3 1s    0.64968     4 1s    0.64147
                                    4 1s   -1.11610     5 1s   -0.64147     5 1s    1.11610     6 1s   -0.64968
   22.1     0.00000     1.13004     1 1s   -0.77362     1 2py   0.86912     1 2py  -2.58658     1 2pz  -0.68278     2 1s   -0.77362
                                    2 2py  -0.86912     2 2py   2.58658     2 2pz   0.68278     3 1s    1.68157     4 1s   -1.01288
                                    5 1s   -1.01288     6 1s    1.68157
   23.1     0.00000     1.19898     1 1s    1.03523     1 1s   -1.69949     1 2pz   0.34825     1 2pz  -0.46105     2 1s    1.03523
                                    2 1s   -1.69949     2 2pz  -0.34825     2 2pz   0.46105     3 1s   -0.41547     3 1s    0.75745
                                    4 1s   -0.45356     4 1s    0.94536     5 1s   -0.45356     5 1s    0.94536     6 1s   -0.41547
                                    6 1s    0.75745
   24.1     0.00000     1.20991     1 1s   -0.53316     1 1s    0.59627     1 2pz  -0.65516     1 2pz   1.19106     2 1s    0.53316
                                    2 1s   -0.59627     2 2pz  -0.65516     2 2pz   1.19106     3 1s    0.53105     3 1s   -1.16014
                                    4 1s    0.33715     4 1s   -0.71258     5 1s   -0.33715     5 1s    0.71258     6 1s   -0.53105
                                    6 1s    1.16014
   25.1     0.00000     1.33621     1 1s   -1.57707     1 1s    5.46221     1 2pz   0.27009     1 2py  -0.56997     1 2pz  -2.07349
                                    2 1s    1.57707     2 1s   -5.46221     2 2pz   0.27009     2 2py  -0.56997     2 2pz  -2.07349
                                    4 1s   -0.61072     5 1s    0.61072
   26.1     0.00000     1.41511     1 1s    0.50801     1 2py   1.96614     1 2pz   0.69071     2 1s    0.50801     2 2py  -1.96614
                                    2 2pz  -0.69071     3 1s   -0.73062     3 1s   -0.69326     4 1s    0.59559     5 1s    0.59559
                                    6 1s   -0.73062     6 1s   -0.69326
   27.1     0.00000     1.73537     1 3d1+  0.61689     2 3d1+ -0.61689
   28.1     0.00000     1.82413     1 3d2-  0.68034     2 3d2-  0.68034
   29.1     0.00000     2.12891     1 3d2-  0.73297     2 3d2- -0.73297
   30.1     0.00000     2.23659     1 1s    0.28946     1 1s   -0.47143     1 2py   0.65807     1 3d2+  0.69241     2 1s    0.28946
                                    2 1s   -0.47143     2 2py  -0.65807     2 3d2+  0.69241     4 1s    0.51133     4 1s    0.25752
                                    5 1s    0.51133     5 1s    0.25752
   31.1     0.00000     2.23712     1 1s   -0.89763     1 2py   0.25835     1 2pz   0.70631     1 3d1-  0.63175     2 1s    0.89763
                                    2 2py   0.25835     2 2pz   0.70631     2 3d1- -0.63175     3 1s   -0.59303     4 1s    0.30907
                                    5 1s   -0.30907     6 1s    0.59303
   32.1     0.00000     2.43570     1 1s   -0.46197     1 2pz   0.26532     1 2pz  -0.39834     1 3d0   0.68424     2 1s   -0.46197
                                    2 2pz  -0.26532     2 2pz   0.39834     2 3d0   0.68424     4 1s    0.32524     5 1s    0.32524
   33.1     0.00000     2.62255     1 1s    0.29764     1 1s   -1.69716     1 2py   0.27848     1 2pz   0.56114     1 3d2+  0.77184
                                    2 1s   -0.29764     2 1s    1.69716     2 2py   0.27848     2 2pz   0.56114     2 3d2+ -0.77184
                                    4 1s    0.60932     5 1s   -0.60932
   34.1     0.00000     2.70056     1 2px  -0.26423     1 3d1+  0.89843     2 2px   0.26423     2 3d1+  0.89843
   35.1     0.00000     3.01176     1 2py   0.25433     1 3d1-  0.95200     2 2py  -0.25433     2 3d1-  0.95200     3 1s   -0.54234
                                    4 1s    0.26704     5 1s    0.26704     6 1s   -0.54234
   36.1     0.00000     3.09345     1 1s    0.32276     1 1s    1.89896     1 2pz  -0.76051     1 2pz  -1.12350     1 3d0   1.09916
                                    2 1s   -0.32276     2 1s   -1.89896     2 2pz  -0.76051     2 2pz  -1.12350     2 3d0  -1.09916


 HOMO      8.1    -0.370262 =     -10.0753eV
 LUMO      9.1     0.177353 =       4.8260eV
 LUMO-HOMO         0.547614 =      14.9013eV


 **********************************************************************************************************************************
 DATASETS  * FILE   NREC   LENGTH (MB)   RECORD NAMES
              1      19       30.72       500      610      700      900      950      970     1000      129      960     1100   
                                          VAR    BASINP    GEOM    SYMINP    ZMAT    AOBASIS   BASIS     P2S    ABASIS      S 
                                         1400     1410     1200     1210     1080     1600     1650     1300     1700   
                                           T        V       H0       H01     AOSYM     SMH    MOLCAS    ERIS     OPER   

              2       4        2.86       700     1000      520     2100   
                                         GEOM     BASIS   MCVARS     RHF  

 PROGRAMS   *        TOTAL    HF-SCF       INT
 CPU TIMES  *         0.46      0.12      0.24
 REAL TIME  *         0.72 SEC
 DISK USED  *        35.71 MB
 **********************************************************************************************************************************


 PROGRAM * MULTI (Direct Multiconfiguration SCF)       Authors: P.J. Knowles, H.-J. Werner (1984)


 Number of closed-shell orbitals:   7 (   7 )
 Number of active  orbitals:        2 (   2 )
 Number of external orbitals:      27 (  27 )

 State symmetry 1

 Number of electrons:     2    Spin symmetry=Singlet   Space symmetry=1
 Number of states:        3
 Number of CSFs:          3   (4 determinants, 4 intermediate states)

 Molecular orbitals read from record     2100.2  Type=RHF/CANONICAL (state 1.1)

 EXTRA SYMMETRY OF MOS IN SYMMETRY 1:   1 1 1 1 1 1 1 2 2 1   1 1 1 1 1 1 2 1 2 1   1 1 1 1 1 1 2 2 2 1   1 1 1 2 1 1

 Wavefunction dump at record             2140.2

 Convergence thresholds  0.10E-01 (gradient)  0.10E-05 (energy)  0.10E-02 (step length)

 Weight factors for state symmetry  1:    0.33333   0.33333   0.33333

 Number of orbital rotations:      257   (    14 Core/Active    189 Core/Virtual   0 Active/Active     54 Active/Virtual)
 Total number of variables:        269

 Micro-Iterations solved by the two-step solver

 ITER. MIC  NCI  NEG     ENERGY(VAR)     ENERGY(PROJ)   ENERGY CHANGE     GRAD(0)  GRAD(ORB)   GRAD(CI)     STEP       TIME

   1    3    3    0     -77.70893872     -77.71515411   -0.00621539    0.13189735 0.00000154 0.00000000  0.63D-01      0.07
   2    2    3    0     -77.71505691     -77.71506064   -0.00000373    0.00302140 0.00000185 0.00000000  0.16D-02      0.11
   3    2    3    0     -77.71506064     -77.71506064   -0.00000000    0.00000216 0.00000000 0.00000000  0.13D-05      0.14

 ** WVFN ****  CONVERGENCE REACHED, FINAL GRADIENT:  0.13D-11



 Results for state 1.1
 =====================

 !MCSCF STATE  1.1 Energy             -78.027800848250
 Nuclear energy                        33.21575299
 Kinetic energy                        77.99479363
 One electron energy                 -169.88351282
 Two electron energy                   58.63995898
 Virial ratio                           2.00042320

 !MCSCF STATE  1.1 Dipole moment        0.00000000    -0.00000000    -0.00000000
 Dipole moment /Debye                   0.00000000    -0.00000000    -0.00000000

 Results for state 2.1
 =====================

 !MCSCF STATE  2.1 Energy             -77.651563180615
 Nuclear energy                        33.21575299
 Kinetic energy                        78.17752343
 One electron energy                 -169.31565295
 Two electron energy                   58.44833678
 Virial ratio                           1.99327223

 !MCSCF STATE  2.1 Dipole moment        0.00000000    -0.00000000     0.00000000
 Dipole moment /Debye                   0.00000000    -0.00000000     0.00000000

 Results for state 3.1
 =====================

 !MCSCF STATE  3.1 Energy             -77.465817905638
 Nuclear energy                        33.21575299
 Kinetic energy                        78.36025324
 One electron energy                 -168.74779309
 Two electron energy                   58.06622219
 Virial ratio                           1.98858560

 !MCSCF STATE  3.1 Dipole moment        0.00000000    -0.00000000    -0.00000000
 Dipole moment /Debye                   0.00000000    -0.00000000    -0.00000000

 State-averaged charge density matrix saved on record  2140.2 (density set 1)

 !MCSCF trans         <2.1|DMY|1.1>    -0.111401660022 au =    -0.283136231079 Debye
 !MCSCF trans         <3.1|DMY|2.1>    -0.167897013585 au =    -0.426723691788 Debye

 !MCSCF trans         <2.1|DMZ|1.1>    -1.506949707315 au =    -3.830033237117 Debye
 !MCSCF trans         <3.1|DMZ|2.1>    -2.271172219794 au =    -5.772365890384 Debye


 NATURAL ORBITALS (state averaged)
 =================================

  Orbital  Occupation    Energy     Coefficients
    1.1     2.00000   -11.24598     1 1s    0.70422     2 1s    0.70422
    2.1     2.00000   -11.24470     1 1s    0.70450     2 1s   -0.70450
    3.1     2.00000    -1.04258     1 1s    0.30868     2 1s    0.30868
    4.1     2.00000    -0.79383     1 1s    0.29187     2 1s   -0.29187
    5.1     2.00000    -0.64714     1 2py   0.32496     2 2py   0.32496
    6.1     2.00000    -0.60852     1 2pz   0.37682     2 2pz  -0.37682
    7.1     2.00000    -0.48340     1 2py   0.29131     2 2py  -0.29131
    8.1     1.00000     0.03258     1 2px   0.38118     1 2px   0.68365     2 2px  -0.38118     2 2px  -0.68365
    9.1     1.00000    -0.22632     1 2px   0.35793     1 2px   0.31962     2 2px   0.35793     2 2px   0.31962
   10.1    -0.00000     0.26007     1 1s   -1.41795     1 2py   0.26230     1 2pz  -0.61001     2 1s   -1.41795     2 2py  -0.26230
                                    2 2pz   0.61001     3 1s    0.88629     4 1s    1.10816     5 1s    1.10816     6 1s    0.88629
   11.1    -0.00000     0.26723     1 1s   -0.75397     1 2py  -0.61985     1 2pz  -0.26550     2 1s    0.75397     2 2py  -0.61985
                                    2 2pz  -0.26550     3 1s    1.38852     4 1s   -0.39574     5 1s    0.39574     6 1s   -1.38852
   12.1    -0.00000     0.31183     1 1s   -1.75509     1 2py   0.56655     2 1s    1.75509     2 2py   0.56655     3 1s    0.28542
                                    4 1s    1.55652     5 1s   -1.55652     6 1s   -0.28542
   13.1    -0.00000     0.36719     1 1s   -0.39318     1 2py  -1.64023     2 1s   -0.39318     2 2py   1.64023     3 1s    1.68197
                                    4 1s   -1.19142     5 1s   -1.19142     6 1s    1.68197
   14.1    -0.00000     0.48332     1 1s   -3.06066     1 2py   0.26314     1 2pz   3.00206     2 1s    3.06066     2 2py   0.26314
                                    2 2pz   3.00206     3 1s   -0.95130     4 1s   -0.28197     5 1s    0.28197     6 1s    0.95130
   15.1    -0.00000     0.66995     1 2pz  -0.51392     1 2pz   0.97529     2 2pz   0.51392     2 2pz  -0.97529     3 1s   -0.34559
                                    4 1s    0.27867     5 1s    0.27867     6 1s   -0.34559
   16.1    -0.00000     0.75497     1 1s   -0.65874     1 2py  -0.37005     1 2py   0.73432     1 2pz   1.02070     2 1s    0.65874
                                    2 2py  -0.37005     2 2py   0.73432     2 2pz   1.02070     3 1s   -0.50631     6 1s    0.50631
   17.1    -0.00000     0.77003     1 2px  -0.74769     1 2px   0.63449     2 2px  -0.74769     2 2px   0.63449
   18.1    -0.00000     0.85650     1 1s   -0.86689     1 1s    1.34456     1 2py  -0.42199     1 2pz   0.25558     2 1s   -0.86689
                                    2 1s    1.34456     2 2py   0.42199     2 2pz  -0.25558     3 1s   -0.42189     4 1s   -0.37821
                                    4 1s   -0.38688     5 1s   -0.37821     5 1s   -0.38688     6 1s   -0.42189
   19.1    -0.00000     0.87078     1 2px  -0.80226     1 2px   1.10337     2 2px   0.80226     2 2px  -1.10337
   20.1    -0.00000     0.95748     1 1s   -0.70827     1 2py  -0.37815     1 2pz   0.53775     1 2py   0.81471     1 2pz  -0.29993
                                    2 1s    0.70827     2 2py  -0.37815     2 2pz   0.53775     2 2py   0.81471     2 2pz  -0.29993
                                    3 1s    0.28171     3 1s   -0.39146     4 1s    0.36567     4 1s    0.56980     5 1s   -0.36567
                                    5 1s   -0.56980     6 1s   -0.28171     6 1s    0.39146
   21.1    -0.00000     1.10981     1 1s   -0.74175     1 2py   0.57486     1 2py  -0.82862     1 2pz   0.36262     2 1s    0.74175
                                    2 2py   0.57486     2 2py  -0.82862     2 2pz   0.36262     3 1s    0.67401     4 1s    0.63223
                                    4 1s   -1.13125     5 1s   -0.63223     5 1s    1.13125     6 1s   -0.67401
   22.1    -0.00000     1.11854     1 1s   -0.72093     1 2py   0.86892     1 2py  -2.59181     1 2pz  -0.66721     2 1s   -0.72093
                                    2 2py  -0.86892     2 2py   2.59181     2 2pz   0.66721     3 1s    1.65848     4 1s   -1.05193
                                    5 1s   -1.05193     6 1s    1.65848
   23.1    -0.00000     1.19537     1 1s    1.03566     1 1s   -1.72201     1 2pz   0.35868     1 2pz  -0.49091     2 1s    1.03566
                                    2 1s   -1.72201     2 2pz  -0.35868     2 2pz   0.49091     3 1s   -0.42305     3 1s    0.82142
                                    4 1s   -0.44540     4 1s    0.90385     5 1s   -0.44540     5 1s    0.90385     6 1s   -0.42305
                                    6 1s    0.82142
   24.1    -0.00000     1.20762     1 1s   -0.47165     1 1s    0.37633     1 2pz  -0.66509     1 2pz   1.27603     2 1s    0.47165
                                    2 1s   -0.37633     2 2pz  -0.66509     2 2pz   1.27603     3 1s    0.53384     3 1s   -1.15494
                                    4 1s    0.34675     4 1s   -0.69738     5 1s   -0.34675     5 1s    0.69738     6 1s   -0.53384
                                    6 1s    1.15494
   25.1    -0.00000     1.31631     1 1s   -1.59768     1 1s    5.49425     1 2py  -0.56689     1 2pz  -2.02778     2 1s    1.59768
                                    2 1s   -5.49425     2 2py  -0.56689     2 2pz  -2.02778     4 1s   -0.63972     5 1s    0.63972
   26.1    -0.00000     1.40724     1 1s    0.51667     1 2py   1.97113     1 2pz   0.69344     2 1s    0.51667     2 2py  -1.97113
                                    2 2pz  -0.69344     3 1s   -0.73040     3 1s   -0.69728     4 1s    0.59452     5 1s    0.59452
                                    6 1s   -0.73040     6 1s   -0.69728
   27.1    -0.00000     1.70996     1 3d1+  0.61661     2 3d1+ -0.61661
   28.1    -0.00000     1.81068     1 3d2-  0.68036     2 3d2-  0.68036
   29.1    -0.00000     2.10624     1 3d2-  0.73296     2 3d2- -0.73296
   30.1    -0.00000     2.22040     1 1s   -0.89973     1 2py   0.25317     1 2pz   0.71005     1 3d1-  0.62891     2 1s    0.89973
                                    2 2py   0.25317     2 2pz   0.71005     2 3d1- -0.62891     3 1s   -0.59844     4 1s    0.30843
                                    5 1s   -0.30843     6 1s    0.59844
   31.1    -0.00000     2.22078     1 1s    0.28638     1 1s   -0.46815     1 2py   0.65323     1 3d2+  0.69178     2 1s    0.28638
                                    2 1s   -0.46815     2 2py  -0.65323     2 3d2+  0.69178     4 1s    0.51129     4 1s    0.25459
                                    5 1s    0.51129     5 1s    0.25459
   32.1    -0.00000     2.41629     1 1s   -0.45947     1 2pz   0.27044     1 2pz  -0.40046     1 3d0   0.68353     2 1s   -0.45947
                                    2 2pz  -0.27044     2 2pz   0.40046     2 3d0   0.68353     4 1s    0.32713     5 1s    0.32713
   33.1    -0.00000     2.60399     1 1s    0.29890     1 1s   -1.71358     1 2py   0.27994     1 2pz   0.56698     1 3d2+  0.77033
                                    2 1s   -0.29890     2 1s    1.71358     2 2py   0.27994     2 2pz   0.56698     2 3d2+ -0.77033
                                    4 1s    0.61406     5 1s   -0.61406
   34.1    -0.00000     2.67825     1 2px  -0.26498     1 3d1+  0.89882     2 2px   0.26498     2 3d1+  0.89882
   35.1    -0.00000     2.99845     1 2py   0.25427     1 3d1-  0.95173     2 2py  -0.25427     2 3d1-  0.95173     3 1s   -0.54485
                                    4 1s    0.26931     5 1s    0.26931     6 1s   -0.54485
   36.1    -0.00000     3.07610     1 1s    0.31667     1 1s    1.91957     1 2pz  -0.75313     1 2pz  -1.13527     1 3d0   1.10053
                                    2 1s   -0.31667     2 1s   -1.91957     2 2pz  -0.75313     2 2pz  -1.13527     2 3d0  -1.10053


 Natural orbital dump (state averaged) at molpro section  2140.2    (Orbital set 2)



 **********************************************************************************************************************************
 DATASETS  * FILE   NREC   LENGTH (MB)   RECORD NAMES
              1      20       31.45       500      610      700      900      950      970     1000      129      960     1100   
                                          VAR    BASINP    GEOM    SYMINP    ZMAT    AOBASIS   BASIS     P2S    ABASIS      S 
                                         1400     1410     1200     1210     1080     1600     1650     1300     1700     1380   
                                           T        V       H0       H01     AOSYM     SMH    MOLCAS    ERIS     OPER     JKOP   

              2       5        5.42       700     1000      520     2100     2140   
                                         GEOM     BASIS   MCVARS     RHF     MCSCF   

 PROGRAMS   *        TOTAL     MULTI    HF-SCF       INT
 CPU TIMES  *         0.64      0.18      0.12      0.24
 REAL TIME  *         0.94 SEC
 DISK USED  *        38.63 MB
 **********************************************************************************************************************************
 Molecular orbitals read from record     2140.2  Type=MCSCF/NATURAL (state averaged)
 Occupation numbers read from record     2140.2  Type=MCSCF/NATURAL (state averaged)
 Orbital energies read from record       2140.2  Type=MCSCF/NATURAL (state averaged)
 Redundancy group numbers read from rec  2140.2  Type=MCSCF/NATURAL (state averaged)

 MULTI/6-31G* energy=    -77.465817905638

           MULTI          HF-SCF
    -77.46581791    -78.00999956
 **********************************************************************************************************************************
 Molpro calculation terminated
