
 Primary working directories    : /scratch.local/johan406.molpro_temp/molpro.1UdCfLZOVo
 Secondary working directories  : /scratch.local/johan406.molpro_temp/molpro.1UdCfLZOVo
 Wavefunction directory         : /home/goodpast/johan406/wfu/
 Main file repository           : /scratch.local/johan406.molpro_temp/molpro.1UdCfLZOVo/

 id        : roweumn

 Nodes     nprocs
 cn0117       1

 Using customized tuning parameters: mindgm=1; mindgv=20; mindgc=4; mindgr=1; noblas=0; minvec=7
 default implementation of scratch files=df  


 Variables initialized (934), CPU time= 0.00 sec
                                                                                 !leave this line blank
 
 gprint, orbitals=30
 memory, 125., m
 symmetry, nosym
 nelect=16
 basis=6-31g*
 
 geometry={
 C 0.0 0.0558 0.6691
 C 0.0 -0.0558 -0.6691
 H 0.0 0.8628 1.4096
 H -0.0 -0.967 1.0599
 H 0.0 0.967 -1.0599
 H 0.0 -0.8628 -1.4096
 }
 
 hf
 {multi,
 closed 7
 occ 9
 wf,spin=0;STATE,3
 }
 
 Commands  initialized (763), CPU time= 0.01 sec, 617 directives.
 Default parameters read. Elapsed time= 0.09 sec

 Checking input...
 Passed
1


                                         ***  PROGRAM SYSTEM MOLPRO  ***
                                       Copyright, TTI GmbH Stuttgart, 2015
                                    Version 2019.2 linked Oct 25 2019 22:50:27


 **********************************************************************************************************************************
 LABEL *                                                                                 
  64 bit serial version                                                                  DATE: 26-Jan-23          TIME: 20:10:50  
 **********************************************************************************************************************************

 SHA1:             8dbd9ae1082e4ce945b0f27595c9eb2d4aa09004
 **********************************************************************************************************************************


 Variable memory set to  125000000 words,  buffer space 

 SETTING NELECT         =        16.00000000                                  
 SETTING BASIS          =    6-31G*
 ZSYMEL=NOSYM


Geometry recognized as XYZ



 Recomputing integrals since basis changed


 Using spherical harmonics

 Library entry C      S 6-31G                selected for orbital group  1
 Library entry C      P 6-31G                selected for orbital group  1
 Library entry C      D 6-31G*               selected for orbital group  1
 Library entry H      S 6-31G                selected for orbital group  2


 PROGRAM * SEWARD (Integral evaluation for generally contracted gaussian basis sets)     Author: Roland Lindh, 1990

 Geometry written to block  1 of record 700


 Point group  C1  



 ATOMIC COORDINATES

 NR  ATOM    CHARGE       X              Y              Z

   1  C       6.00    0.000000000    0.105446718    1.264415750
   2  C       6.00    0.000000000   -0.105446718   -1.264415750
   3  H       1.00    0.000000000    1.630455700    2.663757945
   4  H       1.00    0.000000000   -1.827365162    2.002920719
   5  H       1.00    0.000000000    1.827365162   -2.002920719
   6  H       1.00    0.000000000   -1.630455700   -2.663757945

 Bond lengths in Bohr (Angstrom)

 1-2  2.537610056  1-3  2.069736934  1-4  2.069094332  2-5  2.069094332  2-6  2.069736934
     ( 1.342845412)     ( 1.095257618)     ( 1.094917568)     ( 1.094917568)     ( 1.095257618)

 Bond angles

  1-2-5  106.14409094   1-2-6  137.30655395   2-1-3  137.30655395   2-1-4  106.14409094

  3-1-4  116.54935511   5-2-6  116.54935511

 NUCLEAR CHARGE:                   16
 NUMBER OF PRIMITIVE AOS:          72
 NUMBER OF SYMMETRY AOS:           70
 NUMBER OF CONTRACTIONS:           36   (   36A   )
 NUMBER OF CORE ORBITALS:           2   (    2A   )
 NUMBER OF VALENCE ORBITALS:       12   (   12A   )


 NUCLEAR REPULSION ENERGY   33.16817784

 EXTRA SYMMETRY OF AOS IN SYMMETRY 1:   1 1 1 2 1 1 2 1 1 1   2 2 1 1 1 1 1 2 1 1   2 1 1 1 2 2 1 1 1 1   1 1 1 1 1 1

 Eigenvalues of metric

         1 0.719E-02 0.215E-01 0.422E-01 0.468E-01 0.727E-01 0.196E+00 0.218E+00 0.232E+00


 Contracted 2-electron integrals neglected if value below      1.0D-11
 AO integral compression algorithm  1   Integral accuracy      1.0D-11

     1.049 MB (compressed) written to integral file ( 36.8%)


 NUMBER OF SORTED TWO-ELECTRON INTEGRALS:     222111.     BUFFER LENGTH:  32768
 NUMBER OF SEGMENTS:   1  SEGMENT LENGTH:     222111      RECORD LENGTH: 524288

 Memory used in sort:       0.78 MW

 SORT1 READ      284735. AND WROTE      118724. INTEGRALS IN      1 RECORDS. CPU TIME:     0.00 SEC, REAL TIME:     0.01 SEC
 SORT2 READ      118724. AND WROTE      222111. INTEGRALS IN      4 RECORDS. CPU TIME:     0.02 SEC, REAL TIME:     0.02 SEC

 FILE SIZES:   FILE 1:    31.1 MBYTE,  FILE 4:     4.2 MBYTE,   TOTAL:     35.4 MBYTE

 OPERATOR DM      FOR CENTER  0  COORDINATES:    0.000000    0.000000    0.000000


 **********************************************************************************************************************************
 DATASETS  * FILE   NREC   LENGTH (MB)   RECORD NAMES
              1      19       30.72       500      610      700      900      950      970     1000      129      960     1100   
                                          VAR    BASINP    GEOM    SYMINP    ZMAT    AOBASIS   BASIS     P2S    ABASIS      S 
                                         1400     1410     1200     1210     1080     1600     1650     1300     1700   
                                           T        V       H0       H01     AOSYM     SMH    MOLCAS    ERIS     OPER   

 PROGRAMS   *        TOTAL       INT
 CPU TIMES  *         0.36      0.26
 REAL TIME  *         0.58 SEC
 DISK USED  *        35.71 MB
 **********************************************************************************************************************************


 PROGRAM * RHF-SCF (CLOSED SHELL)       Authors: W. Meyer, H.-J. Werner


 NUMBER OF ELECTRONS:       8+    8-    SPACE SYMMETRY=1    SPIN SYMMETRY: Singlet 
 CONVERGENCE THRESHOLDS:    1.00E-05 (Density)    1.00E-07 (Energy)
 MAX. NUMBER OF ITERATIONS:       60
 INTERPOLATION TYPE:            DIIS
 INTERPOLATION STEPS:              2 (START)      1 (STEP)
 LEVEL SHIFTS:                  0.00 (CLOSED)  0.00 (OPEN) 



 Orbital guess generated from atomic densities. Full valence occupancy:    8

 Molecular orbital dump at record        2100.2

 Initial occupancy:   8

 ITERATION    DDIFF          GRAD             ENERGY        2-EL.EN.            DIPOLE MOMENTS         DIIS   ORB.
    1      0.000D+00      0.000D+00       -77.98172920    118.222396    0.00000   -0.00000    0.00000    0    start
    2      0.000D+00      0.831D-02       -78.00231412    116.440970   -0.00000    0.00000   -0.00000    1    diag
    3      0.817D-02      0.284D-02       -78.00436071    117.062601    0.00000   -0.00000   -0.00000    2    diag
    4      0.261D-02      0.706D-03       -78.00457402    116.961537    0.00000    0.00000    0.00000    3    diag
    5      0.109D-02      0.787D-04       -78.00457717    116.964559   -0.00000   -0.00000    0.00000    4    diag
    6      0.180D-03      0.104D-04       -78.00457723    116.963988   -0.00000    0.00000    0.00000    5    diag
    7      0.224D-04      0.188D-05       -78.00457723    116.963988   -0.00000   -0.00000   -0.00000    6    diag
    8      0.360D-05      0.253D-06       -78.00457723    116.963980    0.00000   -0.00000    0.00000    0    orth

 Final occupancy:   8

 !RHF STATE  1.1 Energy               -78.004577227472
 Nuclear energy                        33.16817784
 One-electron energy                 -169.65474506
 Two-electron energy                   58.48198999
 Virial quotient                       -1.00131393
 !RHF STATE  1.1 Dipole moment          0.00000000    -0.00000000     0.00000000
 Dipole moment /Debye                   0.00000000    -0.00000000     0.00000000

 ELECTRON ORBITALS
 =================

  Orbital  Occupation    Energy     Coefficients
    1.1     2.00000   -11.23219     1 1s    0.70420     2 1s    0.70420
    2.1     2.00000   -11.23064     1 1s    0.70455     2 1s   -0.70455
    3.1     2.00000    -1.02779     1 1s    0.30051     2 1s    0.30051
    4.1     2.00000    -0.78485     2 1s   -0.24658
    5.1     2.00000    -0.63297     1 2py   0.31909     2 2py   0.31909
    6.1     2.00000    -0.59912     1 2pz   0.36558     2 2pz  -0.36558
    7.1     2.00000    -0.46730     1 2py   0.27881     2 2py  -0.27881
    8.1     2.00000    -0.37051     1 2px   0.37350     1 2px   0.30814     2 2px   0.37350     2 2px   0.30814
    9.1     0.00000     0.17703     1 2px   0.34371     1 2px   0.72958     2 2px  -0.34371     2 2px  -0.72958
   10.1     0.00000     0.26216     1 1s   -1.41526     1 2pz  -0.60206     2 1s   -1.41526     2 2pz   0.60206     3 1s    0.90945
                                    4 1s    1.07906     5 1s    1.07906     6 1s    0.90945
   11.1     0.00000     0.26949     1 1s   -0.81676     1 2py  -0.57968     1 2pz  -0.31508     2 1s    0.81676     2 2py  -0.57968
                                    2 2pz  -0.31508     3 1s    1.40944     4 1s   -0.28468     5 1s    0.28468     6 1s   -1.40944
   12.1     0.00000     0.31827     1 1s   -1.67533     1 2py   0.63543     2 1s    1.67533     2 2py   0.63543     4 1s    1.59452
                                    5 1s   -1.59452
   13.1     0.00000     0.36734     1 1s   -0.38727     1 2py  -1.61304     2 1s   -0.38727     2 2py   1.61304     3 1s    1.65015
                                    4 1s   -1.16738     5 1s   -1.16738     6 1s    1.65015
   14.1     0.00000     0.48623     1 1s   -3.12869     1 2py   0.29928     1 2pz   3.04741     2 1s    3.12869     2 2py   0.29928
                                    2 2pz   3.04741     3 1s   -0.97582     6 1s    0.97582
   15.1     0.00000     0.68301     1 2pz  -0.51401     1 2pz   0.97960     2 2pz   0.51401     2 2pz  -0.97960     3 1s   -0.36823
                                    4 1s    0.27631     5 1s    0.27631     6 1s   -0.36823
   16.1     0.00000     0.76345     1 1s   -0.65220     1 2py  -0.34933     1 2py   0.70844     1 2pz   1.07888     2 1s    0.65220
                                    2 2py  -0.34933     2 2py   0.70844     2 2pz   1.07888     3 1s   -0.52189     6 1s    0.52189
   17.1     0.00000     0.77557     1 2px  -0.74109     1 2px   0.63990     2 2px  -0.74109     2 2px   0.63990
   18.1     0.00000     0.85924     1 1s   -0.86778     1 1s    1.30143     1 2py  -0.40404     2 1s   -0.86778     2 1s    1.30143
                                    2 2py   0.40404     3 1s   -0.43161     4 1s   -0.36911     4 1s   -0.37602     5 1s   -0.36911
                                    5 1s   -0.37602     6 1s   -0.43161
   19.1     0.00000     0.88760     1 2px  -0.81769     1 2px   1.07297     2 2px   0.81769     2 2px  -1.07297
   20.1     0.00000     0.97990     1 1s   -0.79785     1 2py  -0.43612     1 2pz   0.51062     1 2py   0.92866     2 1s    0.79785
                                    2 2py  -0.43612     2 2pz   0.51062     2 2py   0.92866     3 1s    0.27333     3 1s   -0.46623
                                    4 1s    0.33704     4 1s    0.65395     5 1s   -0.33704     5 1s   -0.65395     6 1s   -0.27333
                                    6 1s    0.46623
   21.1     0.00000     1.12339     1 1s   -0.82583     1 2py   0.85811     1 2py  -2.50752     1 2pz  -0.73748     2 1s   -0.82583
                                    2 2py  -0.85811     2 2py   2.50752     2 2pz   0.73748     3 1s    1.66603     4 1s   -0.95917
                                    5 1s   -0.95917     6 1s    1.66603
   22.1     0.00000     1.12929     1 1s   -0.87297     1 2py   0.54632     1 2py  -0.72821     1 2pz   0.47793     2 1s    0.87297
                                    2 2py   0.54632     2 2py  -0.72821     2 2pz   0.47793     3 1s    0.54715     4 1s    0.67981
                                    4 1s   -1.11062     5 1s   -0.67981     5 1s    1.11062     6 1s   -0.54715
   23.1     0.00000     1.19457     1 1s    1.03733     1 1s   -1.70097     1 2pz   0.34565     1 2pz  -0.45907     2 1s    1.03733
                                    2 1s   -1.70097     2 2pz  -0.34565     2 2pz   0.45907     3 1s   -0.41546     3 1s    0.76189
                                    4 1s   -0.45034     4 1s    0.94033     5 1s   -0.45034     5 1s    0.94033     6 1s   -0.41546
                                    6 1s    0.76189
   24.1     0.00000     1.20705     1 1s   -0.53193     1 1s    0.63098     1 2pz  -0.66481     1 2pz   1.16955     2 1s    0.53193
                                    2 1s   -0.63098     2 2pz  -0.66481     2 2pz   1.16955     3 1s    0.53837     3 1s   -1.17975
                                    4 1s    0.30203     4 1s   -0.66275     5 1s   -0.30203     5 1s    0.66275     6 1s   -0.53837
                                    6 1s    1.17975
   25.1     0.00000     1.33569     1 1s   -1.57498     1 1s    5.48886     1 2pz   0.27020     1 2py  -0.63522     1 2pz  -2.11509
                                    2 1s    1.57498     2 1s   -5.48886     2 2pz   0.27020     2 2py  -0.63522     2 2pz  -2.11509
                                    4 1s   -0.63510     5 1s    0.63510
   26.1     0.00000     1.40384     1 1s    0.54562     1 2py   1.86463     1 2pz   0.74434     2 1s    0.54562     2 2py  -1.86463
                                    2 2pz  -0.74434     3 1s   -0.72679     3 1s   -0.67223     4 1s    0.58639     5 1s    0.58639
                                    6 1s   -0.72679     6 1s   -0.67223
   27.1     0.00000     1.73443     1 3d1+  0.61638     2 3d1+ -0.61638
   28.1     0.00000     1.82470     1 3d2-  0.68010     2 3d2-  0.68010
   29.1     0.00000     2.12913     1 3d2-  0.73218     2 3d2- -0.73218
   30.1     0.00000     2.21672     1 1s   -1.01839     1 2py   0.27658     1 2pz   0.79325     1 3d1-  0.62218     2 1s    1.01839
                                    2 2py   0.27658     2 2pz   0.79325     2 3d1- -0.62218     3 1s   -0.58895     4 1s    0.28983
                                    5 1s   -0.28983     6 1s    0.58895
   31.1     0.00000     2.24045     1 1s    0.30260     1 1s   -0.44839     1 2py   0.67972     1 3d2+  0.68780     2 1s    0.30260
                                    2 1s   -0.44839     2 2py  -0.67972     2 3d2+  0.68780     4 1s    0.51542     4 1s    0.25217
                                    5 1s    0.51542     5 1s    0.25217
   32.1     0.00000     2.44167     1 1s   -0.45239     1 2pz   0.26217     1 2pz  -0.38521     1 3d0   0.68359     2 1s   -0.45239
                                    2 2pz  -0.26217     2 2pz   0.38521     2 3d0   0.68359     4 1s    0.34189     5 1s    0.34189
   33.1     0.00000     2.61913     1 1s    0.30046     1 1s   -1.76316     1 2py   0.31435     1 2pz   0.61894     1 3d2+  0.76825
                                    2 1s   -0.30046     2 1s    1.76316     2 2py   0.31435     2 2pz   0.61894     2 3d2+ -0.76825
                                    4 1s    0.61551     5 1s   -0.61551
   34.1     0.00000     2.69868     1 2px  -0.26415     1 3d1+  0.89734     2 2px   0.26415     2 3d1+  0.89734
   35.1     0.00000     3.00048     1 3d1-  0.94718     2 3d1-  0.94718     3 1s   -0.54003     6 1s   -0.54003
   36.1     0.00000     3.09981     1 1s    0.32286     1 1s    1.87930     1 2pz  -0.75301     1 2pz  -1.11496     1 3d0   1.09667
                                    2 1s   -0.32286     2 1s   -1.87930     2 2pz  -0.75301     2 2pz  -1.11496     2 3d0  -1.09667


 HOMO      8.1    -0.370511 =     -10.0821eV
 LUMO      9.1     0.177032 =       4.8173eV
 LUMO-HOMO         0.547542 =      14.8994eV


 **********************************************************************************************************************************
 DATASETS  * FILE   NREC   LENGTH (MB)   RECORD NAMES
              1      19       30.72       500      610      700      900      950      970     1000      129      960     1100   
                                          VAR    BASINP    GEOM    SYMINP    ZMAT    AOBASIS   BASIS     P2S    ABASIS      S 
                                         1400     1410     1200     1210     1080     1600     1650     1300     1700   
                                           T        V       H0       H01     AOSYM     SMH    MOLCAS    ERIS     OPER   

              2       4        2.86       700     1000      520     2100   
                                         GEOM     BASIS   MCVARS     RHF  

 PROGRAMS   *        TOTAL    HF-SCF       INT
 CPU TIMES  *         0.48      0.12      0.26
 REAL TIME  *         0.72 SEC
 DISK USED  *        35.71 MB
 **********************************************************************************************************************************


 PROGRAM * MULTI (Direct Multiconfiguration SCF)       Authors: P.J. Knowles, H.-J. Werner (1984)


 Number of closed-shell orbitals:   7 (   7 )
 Number of active  orbitals:        2 (   2 )
 Number of external orbitals:      27 (  27 )

 State symmetry 1

 Number of electrons:     2    Spin symmetry=Singlet   Space symmetry=1
 Number of states:        3
 Number of CSFs:          3   (4 determinants, 4 intermediate states)

 Molecular orbitals read from record     2100.2  Type=RHF/CANONICAL (state 1.1)

 EXTRA SYMMETRY OF MOS IN SYMMETRY 1:   1 1 1 1 1 1 1 2 2 1   1 1 1 1 1 1 2 1 2 1   1 1 1 1 1 1 2 2 2 1   1 1 1 2 1 1

 Wavefunction dump at record             2140.2

 Convergence thresholds  0.10E-01 (gradient)  0.10E-05 (energy)  0.10E-02 (step length)

 Weight factors for state symmetry  1:    0.33333   0.33333   0.33333

 Number of orbital rotations:      257   (    14 Core/Active    189 Core/Virtual   0 Active/Active     54 Active/Virtual)
 Total number of variables:        269

 Micro-Iterations solved by the two-step solver

 ITER. MIC  NCI  NEG     ENERGY(VAR)     ENERGY(PROJ)   ENERGY CHANGE     GRAD(0)  GRAD(ORB)   GRAD(CI)     STEP       TIME

   1    3    3    0     -77.70355583     -77.70976303   -0.00620720    0.13170423 0.00000155 0.00000000  0.63D-01      0.07
   2    2    3    0     -77.70966619     -77.70966991   -0.00000372    0.00301499 0.00000185 0.00000000  0.16D-02      0.10
   3    2    3    0     -77.70966991     -77.70966991   -0.00000000    0.00000216 0.00000000 0.00000000  0.13D-05      0.14

 ** WVFN ****  CONVERGENCE REACHED, FINAL GRADIENT:  0.13D-11



 Results for state 1.1
 =====================

 !MCSCF STATE  1.1 Energy             -78.022413353497
 Nuclear energy                        33.16817784
 Kinetic energy                        77.97096326
 One electron energy                 -169.78450800
 Two electron energy                   58.59391681
 Virial ratio                           2.00065986

 !MCSCF STATE  1.1 Dipole moment        0.00000000     0.00000000     0.00000000
 Dipole moment /Debye                   0.00000000     0.00000000     0.00000000

 Results for state 2.1
 =====================

 !MCSCF STATE  2.1 Energy             -77.646108601342
 Nuclear energy                        33.16817784
 Kinetic energy                        78.15433820
 One electron energy                 -169.21812887
 Two electron energy                   58.40384243
 Virial ratio                           1.99349710

 !MCSCF STATE  2.1 Dipole moment        0.00000000     0.00000000     0.00000000
 Dipole moment /Debye                   0.00000000     0.00000000     0.00000000

 Results for state 3.1
 =====================

 !MCSCF STATE  3.1 Energy             -77.460487766474
 Nuclear energy                        33.16817784
 Kinetic energy                        78.33771313
 One electron energy                 -168.65174973
 Two electron energy                   58.02308413
 Virial ratio                           1.98880200

 !MCSCF STATE  3.1 Dipole moment        0.00000000     0.00000000    -0.00000000
 Dipole moment /Debye                   0.00000000     0.00000000    -0.00000000

 State-averaged charge density matrix saved on record  2140.2 (density set 1)

 !MCSCF trans         <2.1|DMY|1.1>    -0.124792193202 au =    -0.317169342398 Debye
 !MCSCF trans         <3.1|DMY|2.1>    -0.188143621155 au =    -0.478182064656 Debye

 !MCSCF trans         <2.1|DMZ|1.1>    -1.506043815280 au =    -3.827730840040 Debye
 !MCSCF trans         <3.1|DMZ|2.1>    -2.270595056910 au =    -5.770898984741 Debye


 NATURAL ORBITALS (state averaged)
 =================================

  Orbital  Occupation    Energy     Coefficients
    1.1     2.00000   -11.24728     1 1s    0.70422     2 1s    0.70422
    2.1     2.00000   -11.24600     1 1s    0.70451     2 1s   -0.70451
    3.1     2.00000    -1.04280     1 1s    0.30830     2 1s    0.30830
    4.1     2.00000    -0.79227     1 1s    0.29291     2 1s   -0.29291
    5.1     2.00000    -0.64606     1 2py   0.32434     2 2py   0.32434
    6.1     2.00000    -0.61019     1 2pz   0.37243     2 2pz  -0.37243
    7.1     2.00000    -0.47710     1 2py   0.28856     2 2py  -0.28856
    8.1     1.00000     0.03229     1 2px   0.38147     1 2px   0.68281     2 2px  -0.38147     2 2px  -0.68281
    9.1     1.00000    -0.22655     1 2px   0.35794     1 2px   0.31969     2 2px   0.35794     2 2px   0.31969
   10.1    -0.00000     0.25910     1 1s   -1.39936     1 2py   0.28978     1 2pz  -0.59960     2 1s   -1.39936     2 2py  -0.28978
                                    2 2pz   0.59960     3 1s    0.86334     4 1s    1.10932     5 1s    1.10932     6 1s    0.86334
   11.1    -0.00000     0.26319     1 1s   -0.76101     1 2py  -0.60069     1 2pz  -0.28770     2 1s    0.76101     2 2py  -0.60069
                                    2 2pz  -0.28770     3 1s    1.38105     4 1s   -0.36130     5 1s    0.36130     6 1s   -1.38105
   12.1    -0.00000     0.31245     1 1s   -1.73587     1 2py   0.59954     2 1s    1.73587     2 2py   0.59954     4 1s    1.57064
                                    5 1s   -1.57064
   13.1    -0.00000     0.36276     1 1s   -0.43408     1 2py  -1.59028     2 1s   -0.43408     2 2py   1.59028     3 1s    1.66777
                                    4 1s   -1.12611     5 1s   -1.12611     6 1s    1.66777
   14.1    -0.00000     0.48233     1 1s   -3.08535     1 2py   0.29824     1 2pz   3.01936     2 1s    3.08535     2 2py   0.29824
                                    2 2pz   3.01936     3 1s   -0.99538     6 1s    0.99538
   15.1    -0.00000     0.67264     1 2pz  -0.50729     1 2pz   0.96681     2 2pz   0.50729     2 2pz  -0.96681     3 1s   -0.36599
                                    4 1s    0.30790     5 1s    0.30790     6 1s   -0.36599
   16.1    -0.00000     0.75657     1 1s   -0.73586     1 2py  -0.36199     1 2py   0.72815     1 2pz   1.13217     2 1s    0.73586
                                    2 2py  -0.36199     2 2py   0.72815     2 2pz   1.13217     3 1s   -0.51443     6 1s    0.51443
   17.1    -0.00000     0.76974     1 2px  -0.74781     1 2px   0.63455     2 2px  -0.74781     2 2px   0.63455
   18.1    -0.00000     0.85581     1 1s   -0.86289     1 1s    1.31151     1 2py  -0.45934     2 1s   -0.86289     2 1s    1.31151
                                    2 2py   0.45934     3 1s   -0.42624     4 1s   -0.37540     4 1s   -0.39300     5 1s   -0.37540
                                    5 1s   -0.39300     6 1s   -0.42624
   19.1    -0.00000     0.87025     1 2px  -0.80207     1 2px   1.10314     2 2px   0.80207     2 2px  -1.10314
   20.1    -0.00000     0.96123     1 1s   -0.69085     1 2py  -0.42115     1 2pz   0.52054     1 2py   0.90323     1 2pz  -0.25227
                                    2 1s    0.69085     2 2py  -0.42115     2 2pz   0.52054     2 2py   0.90323     2 2pz  -0.25227
                                    3 1s    0.27084     3 1s   -0.44915     4 1s    0.34548     4 1s    0.63368     5 1s   -0.34548
                                    5 1s   -0.63368     6 1s   -0.27084     6 1s    0.44915
   21.1    -0.00000     1.11209     1 1s   -0.77135     1 2py   0.85799     1 2py  -2.51178     1 2pz  -0.72100     2 1s   -0.77135
                                    2 2py  -0.85799     2 2py   2.51178     2 2pz   0.72100     3 1s    1.64082     4 1s   -0.99896
                                    5 1s   -0.99896     6 1s    1.64082
   22.1    -0.00000     1.11293     1 1s   -0.81592     1 2py   0.54557     1 2py  -0.75266     1 2pz   0.43950     2 1s    0.81592
                                    2 2py   0.54557     2 2py  -0.75266     2 2pz   0.43950     3 1s    0.58083     4 1s    0.66846
                                    4 1s   -1.12429     5 1s   -0.66846     5 1s    1.12429     6 1s   -0.58083
   23.1    -0.00000     1.19094     1 1s    1.03825     1 1s   -1.72639     1 2pz   0.35690     1 2pz  -0.49195     2 1s    1.03825
                                    2 1s   -1.72639     2 2pz  -0.35690     2 2pz   0.49195     3 1s   -0.42324     3 1s    0.82811
                                    4 1s   -0.44140     4 1s    0.89891     5 1s   -0.44140     5 1s    0.89891     6 1s   -0.42324
                                    6 1s    0.82811
   24.1    -0.00000     1.20470     1 1s   -0.47020     1 1s    0.40145     1 2pz  -0.67337     1 2pz   1.26051     2 1s    0.47020
                                    2 1s   -0.40145     2 2pz  -0.67337     2 2pz   1.26051     3 1s    0.54085     3 1s   -1.17446
                                    4 1s    0.31680     4 1s   -0.65243     5 1s   -0.31680     5 1s    0.65243     6 1s   -0.54085
                                    6 1s    1.17446
   25.1    -0.00000     1.31578     1 1s   -1.59522     1 1s    5.52147     1 2py  -0.63207     1 2pz  -2.07075     2 1s    1.59522
                                    2 1s   -5.52147     2 2py  -0.63207     2 2pz  -2.07075     4 1s   -0.66244     5 1s    0.66244
   26.1    -0.00000     1.39613     1 1s    0.55526     1 2py   1.86971     1 2pz   0.74736     2 1s    0.55526     2 2py  -1.86971
                                    2 2pz  -0.74736     3 1s   -0.72675     3 1s   -0.67647     4 1s    0.58533     5 1s    0.58533
                                    6 1s   -0.72675     6 1s   -0.67647
   27.1    -0.00000     1.70911     1 3d1+  0.61609     2 3d1+ -0.61609
   28.1    -0.00000     1.81137     1 3d2-  0.68013     2 3d2-  0.68013
   29.1    -0.00000     2.10658     1 3d2-  0.73216     2 3d2- -0.73216
   30.1    -0.00000     2.20000     1 1s   -1.02097     1 2py   0.27137     1 2pz   0.79728     1 3d1-  0.61927     2 1s    1.02097
                                    2 2py   0.27137     2 2pz   0.79728     2 3d1- -0.61927     3 1s   -0.59435     4 1s    0.28908
                                    5 1s   -0.28908     6 1s    0.59435
   31.1    -0.00000     2.22461     1 1s    0.29959     1 1s   -0.44530     1 2py   0.67458     1 3d2+  0.68715     2 1s    0.29959
                                    2 1s   -0.44530     2 2py  -0.67458     2 3d2+  0.68715     4 1s    0.51512     5 1s    0.51512
   32.1    -0.00000     2.42245     1 1s   -0.44978     1 2pz   0.26714     1 2pz  -0.38712     1 3d0   0.68279     2 1s   -0.44978
                                    2 2pz  -0.26714     2 2pz   0.38712     2 3d0   0.68279     4 1s    0.34401     5 1s    0.34401
   33.1    -0.00000     2.60078     1 1s    0.30180     1 1s   -1.78118     1 2py   0.31609     1 2pz   0.62586     1 3d2+  0.76670
                                    2 1s   -0.30180     2 1s    1.78118     2 2py   0.31609     2 2pz   0.62586     2 3d2+ -0.76670
                                    4 1s    0.62009     5 1s   -0.62009
   34.1    -0.00000     2.67644     1 2px  -0.26490     1 3d1+  0.89773     2 2px   0.26490     2 3d1+  0.89773
   35.1    -0.00000     2.98707     1 3d1-  0.94694     2 3d1-  0.94694     3 1s   -0.54257     6 1s   -0.54257
   36.1    -0.00000     3.08262     1 1s    0.31695     1 1s    1.89893     1 2pz  -0.74564     1 2pz  -1.12638     1 3d0   1.09799
                                    2 1s   -0.31695     2 1s   -1.89893     2 2pz  -0.74564     2 2pz  -1.12638     2 3d0  -1.09799


 Natural orbital dump (state averaged) at molpro section  2140.2    (Orbital set 2)



 **********************************************************************************************************************************
 DATASETS  * FILE   NREC   LENGTH (MB)   RECORD NAMES
              1      20       31.45       500      610      700      900      950      970     1000      129      960     1100   
                                          VAR    BASINP    GEOM    SYMINP    ZMAT    AOBASIS   BASIS     P2S    ABASIS      S 
                                         1400     1410     1200     1210     1080     1600     1650     1300     1700     1380   
                                           T        V       H0       H01     AOSYM     SMH    MOLCAS    ERIS     OPER     JKOP   

              2       5        5.42       700     1000      520     2100     2140   
                                         GEOM     BASIS   MCVARS     RHF     MCSCF   

 PROGRAMS   *        TOTAL     MULTI    HF-SCF       INT
 CPU TIMES  *         0.66      0.18      0.12      0.26
 REAL TIME  *         0.93 SEC
 DISK USED  *        38.63 MB
 **********************************************************************************************************************************
 Molecular orbitals read from record     2140.2  Type=MCSCF/NATURAL (state averaged)
 Occupation numbers read from record     2140.2  Type=MCSCF/NATURAL (state averaged)
 Orbital energies read from record       2140.2  Type=MCSCF/NATURAL (state averaged)
 Redundancy group numbers read from rec  2140.2  Type=MCSCF/NATURAL (state averaged)

 MULTI/6-31G* energy=    -77.460487766474

           MULTI          HF-SCF
    -77.46048777    -78.00457723
 **********************************************************************************************************************************
 Molpro calculation terminated
