
 Primary working directories    : /scratch.local/johan406.molpro_temp/molpro.YZZCUlxaJj
 Secondary working directories  : /scratch.local/johan406.molpro_temp/molpro.YZZCUlxaJj
 Wavefunction directory         : /home/goodpast/johan406/wfu/
 Main file repository           : /scratch.local/johan406.molpro_temp/molpro.YZZCUlxaJj/

 id        : roweumn

 Nodes     nprocs
 cn0117       1

 Using customized tuning parameters: mindgm=1; mindgv=20; mindgc=4; mindgr=1; noblas=0; minvec=7
 default implementation of scratch files=df  


 Variables initialized (934), CPU time= 0.00 sec
                                                                                 !leave this line blank
 
 gprint, orbitals=30
 memory, 125., m
 symmetry, nosym
 nelect=16
 basis=6-31g*
 
 geometry={
 C 0.0294 0.0 0.6691
 C -0.0294 0.0 -0.6691
 H -0.096 0.9149 1.2348
 H -0.096 -0.9149 1.2348
 H 0.096 0.9149 -1.2348
 H 0.096 -0.9149 -1.2348
 }
 
 hf
 {multi,
 closed 7
 occ 9
 wf,spin=0;STATE,3
 }
 
 Commands  initialized (763), CPU time= 0.01 sec, 617 directives.
 Default parameters read. Elapsed time= 0.08 sec

 Checking input...
 Passed
1


                                         ***  PROGRAM SYSTEM MOLPRO  ***
                                       Copyright, TTI GmbH Stuttgart, 2015
                                    Version 2019.2 linked Oct 25 2019 22:50:27


 **********************************************************************************************************************************
 LABEL *                                                                                 
  64 bit serial version                                                                  DATE: 26-Jan-23          TIME: 19:26:56  
 **********************************************************************************************************************************

 SHA1:             8dbd9ae1082e4ce945b0f27595c9eb2d4aa09004
 **********************************************************************************************************************************


 Variable memory set to  125000000 words,  buffer space 

 SETTING NELECT         =        16.00000000                                  
 SETTING BASIS          =    6-31G*
 ZSYMEL=NOSYM


Geometry recognized as XYZ



 Recomputing integrals since basis changed


 Using spherical harmonics

 Library entry C      S 6-31G                selected for orbital group  1
 Library entry C      P 6-31G                selected for orbital group  1
 Library entry C      D 6-31G*               selected for orbital group  1
 Library entry H      S 6-31G                selected for orbital group  2


 PROGRAM * SEWARD (Integral evaluation for generally contracted gaussian basis sets)     Author: Roland Lindh, 1990

 Geometry written to block  1 of record 700


 Point group  C1  



 ATOMIC COORDINATES

 NR  ATOM    CHARGE       X              Y              Z

   1  C       6.00    0.055557948    0.000000000    1.264415750
   2  C       6.00   -0.055557948    0.000000000   -1.264415750
   3  H       1.00   -0.181413708    1.728910431    2.333433819
   4  H       1.00   -0.181413708   -1.728910431    2.333433819
   5  H       1.00    0.181413708    1.728910431   -2.333433819
   6  H       1.00    0.181413708   -1.728910431   -2.333433819

 Bond lengths in Bohr (Angstrom)

 1-2  2.531271518  1-3  2.046481487  1-4  2.046481487  2-5  2.046481487  2-6  2.046481487
     ( 1.339491202)     ( 1.082951365)     ( 1.082951365)     ( 1.082951365)     ( 1.082951365)

 Bond angles

  1-2-5  121.11665352   1-2-6  121.11665352   2-1-3  121.11665352   2-1-4  121.11665352

  3-1-4  115.30551418   5-2-6  115.30551418

 NUCLEAR CHARGE:                   16
 NUMBER OF PRIMITIVE AOS:          72
 NUMBER OF SYMMETRY AOS:           70
 NUMBER OF CONTRACTIONS:           36   (   36A   )
 NUMBER OF CORE ORBITALS:           2   (    2A   )
 NUMBER OF VALENCE ORBITALS:       12   (   12A   )


 NUCLEAR REPULSION ENERGY   33.30836786


 Eigenvalues of metric

         1 0.829E-02 0.203E-01 0.372E-01 0.471E-01 0.723E-01 0.193E+00 0.213E+00 0.221E+00


 Contracted 2-electron integrals neglected if value below      1.0D-11
 AO integral compression algorithm  1   Integral accuracy      1.0D-11

     1.311 MB (compressed) written to integral file ( 49.6%)


 NUMBER OF SORTED TWO-ELECTRON INTEGRALS:     222111.     BUFFER LENGTH:  32768
 NUMBER OF SEGMENTS:   1  SEGMENT LENGTH:     222111      RECORD LENGTH: 524288

 Memory used in sort:       0.78 MW

 SORT1 READ      284735. AND WROTE      177337. INTEGRALS IN      1 RECORDS. CPU TIME:     0.00 SEC, REAL TIME:     0.01 SEC
 SORT2 READ      177337. AND WROTE      222111. INTEGRALS IN      5 RECORDS. CPU TIME:     0.02 SEC, REAL TIME:     0.02 SEC

 FILE SIZES:   FILE 1:    31.4 MBYTE,  FILE 4:     4.2 MBYTE,   TOTAL:     35.6 MBYTE

 OPERATOR DM      FOR CENTER  0  COORDINATES:    0.000000    0.000000    0.000000


 **********************************************************************************************************************************
 DATASETS  * FILE   NREC   LENGTH (MB)   RECORD NAMES
              1      19       30.96       500      610      700      900      950      970     1000      129      960     1100   
                                          VAR    BASINP    GEOM    SYMINP    ZMAT    AOBASIS   BASIS     P2S    ABASIS      S 
                                         1400     1410     1200     1210     1080     1600     1650     1300     1700   
                                           T        V       H0       H01     AOSYM     SMH    MOLCAS    ERIS     OPER   

 PROGRAMS   *        TOTAL       INT
 CPU TIMES  *         0.36      0.26
 REAL TIME  *         0.57 SEC
 DISK USED  *        35.97 MB
 **********************************************************************************************************************************


 PROGRAM * RHF-SCF (CLOSED SHELL)       Authors: W. Meyer, H.-J. Werner


 NUMBER OF ELECTRONS:       8+    8-    SPACE SYMMETRY=1    SPIN SYMMETRY: Singlet 
 CONVERGENCE THRESHOLDS:    1.00E-05 (Density)    1.00E-07 (Energy)
 MAX. NUMBER OF ITERATIONS:       60
 INTERPOLATION TYPE:            DIIS
 INTERPOLATION STEPS:              2 (START)      1 (STEP)
 LEVEL SHIFTS:                  0.00 (CLOSED)  0.00 (OPEN) 



 Orbital guess generated from atomic densities. Full valence occupancy:    8

 Molecular orbital dump at record        2100.2

 Initial occupancy:   8

 ITERATION    DDIFF          GRAD             ENERGY        2-EL.EN.            DIPOLE MOMENTS         DIIS   ORB.
    1      0.000D+00      0.000D+00       -78.00188980    118.524123   -0.00000    0.00000   -0.00000    0    start
    2      0.000D+00      0.853D-02       -78.02370110    116.697877   -0.00000    0.00000    0.00000    1    diag
    3      0.814D-02      0.292D-02       -78.02584771    117.328953    0.00000    0.00000    0.00000    2    diag
    4      0.267D-02      0.725D-03       -78.02607039    117.227991   -0.00000    0.00000   -0.00000    3    diag
    5      0.111D-02      0.833D-04       -78.02607438    117.231152    0.00000    0.00000   -0.00000    4    diag
    6      0.194D-03      0.202D-04       -78.02607471    117.230609   -0.00000    0.00000    0.00000    5    diag
    7      0.448D-04      0.749D-05       -78.02607477    117.230672   -0.00000   -0.00000   -0.00000    6    diag
    8      0.213D-04      0.103D-05       -78.02607477    117.230665    0.00000    0.00000    0.00000    7    diag
    9      0.219D-05      0.110D-06       -78.02607477    117.230670   -0.00000   -0.00000   -0.00000    0    orth

 Final occupancy:   8

 !RHF STATE  1.1 Energy               -78.026074769864
 Nuclear energy                        33.30836786
 One-electron energy                 -169.94977743
 Two-electron energy                   58.61533479
 Virial quotient                       -1.00051753
 !RHF STATE  1.1 Dipole moment         -0.00000000    -0.00000000    -0.00000000
 Dipole moment /Debye                  -0.00000000    -0.00000000    -0.00000000

 ELECTRON ORBITALS
 =================

  Orbital  Occupation    Energy     Coefficients
    1.1     2.00000   -11.22766     1 1s    0.70420     2 1s    0.70420
    2.1     2.00000   -11.22608     1 1s    0.70455     2 1s   -0.70455
    3.1     2.00000    -1.02710     1 1s    0.30185     2 1s    0.30185
    4.1     2.00000    -0.79042     1 1s    0.24494
    5.1     2.00000    -0.63512     1 2py   0.32104     2 2py   0.32104
    6.1     2.00000    -0.58087     1 2pz   0.40630     2 2pz  -0.40630
    7.1     2.00000    -0.50132     1 2py   0.30442     2 2py  -0.30442
    8.1     2.00000    -0.37098     1 2px   0.37120     1 2px   0.30695     2 2px   0.37120     2 2px   0.30695
    9.1     0.00000     0.17150     1 2px   0.33736     1 2px   0.70030     2 2px  -0.33736     2 2px  -0.70030
   10.1     0.00000     0.26659     1 1s   -1.46827     1 2px   0.26933     1 2pz  -0.63961     2 1s   -1.46827     2 2px  -0.26933
                                    2 2pz   0.63961     3 1s    1.03475     4 1s    1.03475     5 1s    1.03475     6 1s    1.03475
   11.1     0.00000     0.29302     1 2py  -0.25339     1 2py  -0.79912     2 2py  -0.25339     2 2py  -0.79912     3 1s    1.08846
                                    4 1s   -1.08846     5 1s    1.08846     6 1s   -1.08846
   12.1     0.00000     0.30699     1 1s    1.92564     2 1s   -1.92564     3 1s   -1.06921     4 1s   -1.06921     5 1s    1.06921
                                    6 1s    1.06921
   13.1     0.00000     0.38695     1 2py  -1.82495     2 2py   1.82495     3 1s    1.57560     4 1s   -1.57560     5 1s   -1.57560
                                    6 1s    1.57560
   14.1     0.00000     0.48887     1 1s   -2.98647     1 2pz   2.91154     2 1s    2.98647     2 2pz   2.91154     3 1s   -0.56364
                                    4 1s   -0.56364     5 1s    0.56364     6 1s    0.56364
   15.1     0.00000     0.66915     1 2pz  -0.55761     1 2pz   1.03299     2 2pz   0.55761     2 2pz  -1.03299
   16.1     0.00000     0.76331     1 2py  -0.40093     1 2py   0.75901     2 2py  -0.40093     2 2py   0.75901     3 1s   -0.38800
                                    4 1s    0.38800     5 1s   -0.38800     6 1s    0.38800
   17.1     0.00000     0.77940     1 2px  -0.73814     1 2px   0.64276     2 2px  -0.73814     2 2px   0.64276
   18.1     0.00000     0.87976     1 1s   -0.88929     1 1s    1.46333     1 2pz   0.34522     2 1s   -0.88929     2 1s    1.46333
                                    2 2pz  -0.34522     3 1s   -0.38648     4 1s   -0.38648     5 1s   -0.38648     6 1s   -0.38648
   19.1     0.00000     0.88906     1 1s   -0.29688     1 2px  -0.79474     1 2px   1.09591     2 1s   -0.29688     2 2px   0.79474
                                    2 2px  -1.09591
   20.1     0.00000     0.96121     1 1s   -0.80751     1 2pz   0.61267     1 2pz  -0.48864     2 1s    0.80751     2 2pz   0.61267
                                    2 2pz  -0.48864     3 1s    0.38134     4 1s    0.38134     5 1s   -0.38134     6 1s   -0.38134
   21.1     0.00000     1.11070     1 2py  -0.68767     1 2py   1.09507     2 2py  -0.68767     2 2py   1.09507     3 1s    0.38277
                                    3 1s   -1.05929     4 1s   -0.38277     4 1s    1.05929     5 1s    0.38277     5 1s   -1.05929
                                    6 1s   -0.38277     6 1s    1.05929
   22.1     0.00000     1.11340     1 2py  -0.89081     1 2py   3.02097     2 2py   0.89081     2 2py  -3.02097     3 1s   -1.40068
                                    4 1s    1.40068     5 1s    1.40068     6 1s   -1.40068
   23.1     0.00000     1.21153     1 1s    1.03167     1 1s   -1.71909     1 2pz   0.36387     1 2pz  -0.49426     2 1s    1.03167
                                    2 1s   -1.71909     2 2pz  -0.36387     2 2pz   0.49426     3 1s   -0.44014     3 1s    0.86587
                                    4 1s   -0.44014     4 1s    0.86587     5 1s   -0.44014     5 1s    0.86587     6 1s   -0.44014
                                    6 1s    0.86587
   24.1     0.00000     1.21376     1 1s   -0.52869     1 1s    0.51206     1 2pz  -0.61881     1 2pz   1.21708     2 1s    0.52869
                                    2 1s   -0.51206     2 2pz  -0.61881     2 2pz   1.21708     3 1s    0.46784     3 1s   -0.96668
                                    4 1s    0.46784     4 1s   -0.96668     5 1s   -0.46784     5 1s    0.96668     6 1s   -0.46784
                                    6 1s    0.96668
   25.1     0.00000     1.34016     1 1s   -1.59330     1 1s    5.40012     1 2pz   0.25491     1 2pz  -1.91385     2 1s    1.59330
                                    2 1s   -5.40012     2 2pz   0.25491     2 2pz  -1.91385     3 1s   -0.33239     4 1s   -0.33239
                                    5 1s    0.33239     6 1s    0.33239
   26.1     0.00000     1.36027     1 2py   1.37755     2 2py  -1.37755     3 1s   -0.65846     4 1s    0.65846     5 1s    0.65846
                                    6 1s   -0.65846
   27.1     0.00000     1.74631     1 1s   -0.29123     1 3d1+  0.61498     2 1s    0.29123     2 3d1+ -0.61498
   28.1     0.00000     1.93819     1 2py  -1.26393     1 3d2-  0.66362     2 2py   1.26393     2 3d2-  0.66362     3 1s    0.25938
                                    3 1s    0.44054     4 1s   -0.25938     4 1s   -0.44054     5 1s   -0.25938     5 1s   -0.44054
                                    6 1s    0.25938     6 1s    0.44054
   29.1     0.00000     2.06997     1 3d2-  0.62293     1 3d1-  0.33207     2 3d2- -0.62293     2 3d1- -0.33207
   30.1     0.00000     2.18291     1 1s   -0.62736     1 3d2+  0.70514     2 1s   -0.62736     2 3d2+  0.70514     3 1s    0.36093
                                    4 1s    0.36093     5 1s    0.36093     6 1s    0.36093
   31.1     0.00000     2.39204     1 3d2- -0.40188     1 3d1-  0.60367     2 3d2-  0.40188     2 3d1- -0.60367     3 1s   -0.48009
                                    4 1s    0.48009     5 1s   -0.48009     6 1s    0.48009
   32.1     0.00000     2.40740     1 1s   -0.50613     1 2pz   0.28402     1 2pz  -0.44212     1 3d0   0.69311     2 1s   -0.50613
                                    2 2pz  -0.28402     2 2pz   0.44212     2 3d0   0.69311
   33.1     0.00000     2.59816     1 1s    0.30231     1 1s   -1.41994     1 2pz   0.30712     1 3d2+  0.79010     2 1s   -0.30231
                                    2 1s    1.41994     2 2pz   0.30712     2 3d2+ -0.79010     3 1s    0.43622     4 1s    0.43622
                                    5 1s   -0.43622     6 1s   -0.43622
   34.1     0.00000     2.71519     1 2px  -0.25166     1 3d1+  0.89667     2 2px   0.25166     2 3d1+  0.89667
   35.1     0.00000     3.02726     1 2py   0.43943     1 3d1-  0.96108     2 2py  -0.43943     2 3d1-  0.96108     3 1s   -0.45695
                                    4 1s    0.45695     5 1s    0.45695     6 1s   -0.45695
   36.1     0.00000     3.06078     1 1s    0.31530     1 1s    1.99905     1 2pz  -0.79381     1 2pz  -1.16468     1 3d0   1.10750
                                    2 1s   -0.31530     2 1s   -1.99905     2 2pz  -0.79381     2 2pz  -1.16468     2 3d0  -1.10750


 HOMO      8.1    -0.370982 =     -10.0949eV
 LUMO      9.1     0.171500 =       4.6668eV
 LUMO-HOMO         0.542482 =      14.7617eV


 **********************************************************************************************************************************
 DATASETS  * FILE   NREC   LENGTH (MB)   RECORD NAMES
              1      19       30.96       500      610      700      900      950      970     1000      129      960     1100   
                                          VAR    BASINP    GEOM    SYMINP    ZMAT    AOBASIS   BASIS     P2S    ABASIS      S 
                                         1400     1410     1200     1210     1080     1600     1650     1300     1700   
                                           T        V       H0       H01     AOSYM     SMH    MOLCAS    ERIS     OPER   

              2       4        2.86       700     1000      520     2100   
                                         GEOM     BASIS   MCVARS     RHF  

 PROGRAMS   *        TOTAL    HF-SCF       INT
 CPU TIMES  *         0.47      0.11      0.26
 REAL TIME  *         0.71 SEC
 DISK USED  *        35.97 MB
 **********************************************************************************************************************************


 PROGRAM * MULTI (Direct Multiconfiguration SCF)       Authors: P.J. Knowles, H.-J. Werner (1984)


 Number of closed-shell orbitals:   7 (   7 )
 Number of active  orbitals:        2 (   2 )
 Number of external orbitals:      27 (  27 )

 State symmetry 1

 Number of electrons:     2    Spin symmetry=Singlet   Space symmetry=1
 Number of states:        3
 Number of CSFs:          3   (4 determinants, 4 intermediate states)

 Molecular orbitals read from record     2100.2  Type=RHF/CANONICAL (state 1.1)

 Wavefunction dump at record             2140.2

 Convergence thresholds  0.10E-01 (gradient)  0.10E-05 (energy)  0.10E-02 (step length)

 Weight factors for state symmetry  1:    0.33333   0.33333   0.33333

 Number of orbital rotations:      257   (    14 Core/Active    189 Core/Virtual   0 Active/Active     54 Active/Virtual)
 Total number of variables:        269

 Micro-Iterations solved by the two-step solver

 ITER. MIC  NCI  NEG     ENERGY(VAR)     ENERGY(PROJ)   ENERGY CHANGE     GRAD(0)  GRAD(ORB)   GRAD(CI)     STEP       TIME

   1    5    4    0     -77.72778785     -77.73446021   -0.00667237    0.13426370 0.00034493 0.00000000  0.75D-01      0.09
   2    4    4    0     -77.73434754     -77.73435263   -0.00000508    0.00327921 0.00000002 0.00000000  0.32D-02      0.16
   3    2    3    0     -77.73435263     -77.73435263   -0.00000000    0.00000364 0.00000000 0.00000000  0.82D-05      0.20

 ** WVFN ****  CONVERGENCE REACHED, FINAL GRADIENT:  0.52D-10



 Results for state 1.1
 =====================

 !MCSCF STATE  1.1 Energy             -78.044008654700
 Nuclear energy                        33.30836786
 Kinetic energy                        78.05691791
 One electron energy                 -170.08294984
 Two electron energy                   58.73057332
 Virial ratio                           1.99983462

 !MCSCF STATE  1.1 Dipole moment       -0.00000000     0.00000000    -0.00000000
 Dipole moment /Debye                  -0.00000000     0.00000000    -0.00000000

 Results for state 2.1
 =====================

 !MCSCF STATE  2.1 Energy             -77.671105343179
 Nuclear energy                        33.30836786
 Kinetic energy                        78.23384996
 One electron energy                 -169.50692748
 Two electron energy                   58.52745428
 Virial ratio                           1.99280689

 !MCSCF STATE  2.1 Dipole moment       -0.00000000     0.00000000    -0.00000000
 Dipole moment /Debye                  -0.00000000     0.00000000    -0.00000000

 Results for state 3.1
 =====================

 !MCSCF STATE  3.1 Energy             -77.487943896331
 Nuclear energy                        33.30836786
 Kinetic energy                        78.41078201
 One electron energy                 -168.93090512
 Two electron energy                   58.13459336
 Virial ratio                           1.98823072

 !MCSCF STATE  3.1 Dipole moment       -0.00000000     0.00000000    -0.00000000
 Dipole moment /Debye                  -0.00000000     0.00000000    -0.00000000

 State-averaged charge density matrix saved on record  2140.2 (density set 1)

 !MCSCF trans         <2.1|DMX|1.1>    -0.224778642823 au =    -0.571292903026 Debye
 !MCSCF trans         <3.1|DMX|2.1>    -0.340843930181 au =    -0.866282116071 Debye

 !MCSCF trans         <2.1|DMZ|1.1>    -1.497913420903 au =    -3.807066792300 Debye
 !MCSCF trans         <3.1|DMZ|2.1>    -2.271366581096 au =    -5.772859875183 Debye


 NATURAL ORBITALS (state averaged)
 =================================

  Orbital  Occupation    Energy     Coefficients
    1.1     2.00000   -11.24373     1 1s    0.70421     2 1s    0.70421
    2.1     2.00000   -11.24241     1 1s    0.70451     2 1s   -0.70451
    3.1     2.00000    -1.04229     1 1s    0.30983     2 1s    0.30983
    4.1     2.00000    -0.79859     1 1s    0.29046     2 1s   -0.29046
    5.1     2.00000    -0.64830     1 2py   0.32676     2 2py   0.32676
    6.1     2.00000    -0.59627     1 2pz   0.40778     2 2pz  -0.40778
    7.1     2.00000    -0.50822     1 2py   0.31112     2 2py  -0.31112
    8.1     1.00000    -0.22779     1 2px   0.35642     1 2px   0.31946     2 2px   0.35642     2 2px   0.31946
    9.1     1.00000     0.02778     1 2px   0.37580     1 2px   0.66585     2 2px  -0.37580     2 2px  -0.66585
   10.1    -0.00000     0.26322     1 1s   -1.47156     1 2pz  -0.64838     2 1s   -1.47156     2 2pz   0.64838     3 1s    1.03714
                                    4 1s    1.03714     5 1s    1.03714     6 1s    1.03714
   11.1    -0.00000     0.28404     1 2py  -0.25186     1 2py  -0.78938     2 2py  -0.25186     2 2py  -0.78938     3 1s    1.07981
                                    4 1s   -1.07981     5 1s    1.07981     6 1s   -1.07981
   12.1    -0.00000     0.30339     1 1s    1.94380     2 1s   -1.94380     3 1s   -1.06440     4 1s   -1.06440     5 1s    1.06440
                                    6 1s    1.06440
   13.1    -0.00000     0.38242     1 2py  -1.81034     2 2py   1.81034     3 1s    1.56894     4 1s   -1.56894     5 1s   -1.56894
                                    6 1s    1.56894
   14.1    -0.00000     0.48618     1 1s   -2.96765     1 2pz   2.89342     2 1s    2.96765     2 2pz   2.89342     3 1s   -0.57100
                                    4 1s   -0.57100     5 1s    0.57100     6 1s    0.57100
   15.1    -0.00000     0.65743     1 1s    0.26008     1 2pz  -0.54879     1 2pz   1.01045     2 1s    0.26008     2 2pz   0.54879
                                    2 2pz  -1.01045
   16.1    -0.00000     0.75270     1 2py  -0.41223     1 2py   0.76657     2 2py  -0.41223     2 2py   0.76657     3 1s   -0.38316
                                    4 1s    0.38316     5 1s   -0.38316     6 1s    0.38316
   17.1    -0.00000     0.77275     1 2px  -0.74524     1 2px   0.63885     2 2px  -0.74524     2 2px   0.63885
   18.1    -0.00000     0.87101     1 1s   -0.25868     1 1s    0.36056     1 2px  -0.78146     1 2px   1.03565     2 1s   -0.25868
                                    2 1s    0.36056     2 2px   0.78146     2 2px  -1.03565
   19.1    -0.00000     0.87688     1 1s   -0.85449     1 1s    1.47285     1 2px  -0.44101     1 2pz   0.39896     2 1s   -0.85449
                                    2 1s    1.47285     2 2px   0.44101     2 2pz  -0.39896     3 1s   -0.39448     3 1s   -0.25730
                                    4 1s   -0.39448     4 1s   -0.25730     5 1s   -0.39448     5 1s   -0.25730     6 1s   -0.39448
                                    6 1s   -0.25730
   20.1    -0.00000     0.94213     1 1s   -0.64861     1 2pz   0.61700     1 2pz  -0.57121     2 1s    0.64861     2 2pz   0.61700
                                    2 2pz  -0.57121     3 1s    0.38145     4 1s    0.38145     5 1s   -0.38145     6 1s   -0.38145
   21.1    -0.00000     1.09517     1 2py  -0.67595     1 2py   1.09656     2 2py  -0.67595     2 2py   1.09656     3 1s    0.38366
                                    3 1s   -1.06839     4 1s   -0.38366     4 1s    1.06839     5 1s    0.38366     5 1s   -1.06839
                                    6 1s   -0.38366     6 1s    1.06839
   22.1    -0.00000     1.10159     1 2py  -0.88988     1 2py   3.01771     2 2py   0.88988     2 2py  -3.01771     3 1s   -1.40832
                                    4 1s    1.40832     5 1s    1.40832     6 1s   -1.40832
   23.1    -0.00000     1.20781     1 1s    1.02673     1 1s   -1.71543     1 2pz   0.36753     1 2pz  -0.49985     2 1s    1.02673
                                    2 1s   -1.71543     2 2pz  -0.36753     2 2pz   0.49985     3 1s   -0.44089     3 1s    0.86565
                                    4 1s   -0.44089     4 1s    0.86565     5 1s   -0.44089     5 1s    0.86565     6 1s   -0.44089
                                    6 1s    0.86565
   24.1    -0.00000     1.21078     1 1s   -0.47149     1 1s    0.32303     1 2pz  -0.63145     1 2pz   1.28810     2 1s    0.47149
                                    2 1s   -0.32303     2 2pz  -0.63145     2 2pz   1.28810     3 1s    0.46997     3 1s   -0.95491
                                    4 1s    0.46997     4 1s   -0.95491     5 1s   -0.46997     5 1s    0.95491     6 1s   -0.46997
                                    6 1s    0.95491
   25.1    -0.00000     1.32010     1 1s   -1.61323     1 1s    5.42704     1 2pz  -1.86715     2 1s    1.61323     2 1s   -5.42704
                                    2 2pz  -1.86715     3 1s   -0.36878     4 1s   -0.36878     5 1s    0.36878     6 1s    0.36878
   26.1    -0.00000     1.35232     1 2py   1.39802     2 2py  -1.39802     3 1s   -0.65702     4 1s    0.65702     5 1s    0.65702
                                    6 1s   -0.65702
   27.1    -0.00000     1.72082     1 1s   -0.29610     1 3d1+  0.61439     2 1s    0.29610     2 3d1+ -0.61439
   28.1    -0.00000     1.92346     1 2py  -1.26852     1 3d2-  0.66334     2 2py   1.26852     2 3d2-  0.66334     3 1s    0.26042
                                    3 1s    0.44172     4 1s   -0.26042     4 1s   -0.44172     5 1s   -0.26042     5 1s   -0.44172
                                    6 1s    0.26042     6 1s    0.44172
   29.1    -0.00000     2.04865     1 3d2-  0.62678     1 3d1-  0.32535     2 3d2- -0.62678     2 3d1- -0.32535
   30.1    -0.00000     2.16693     1 1s   -0.62308     1 3d2+  0.70444     2 1s   -0.62308     2 3d2+  0.70444     3 1s    0.36256
                                    4 1s    0.36256     5 1s    0.36256     6 1s    0.36256
   31.1    -0.00000     2.37366     1 3d2- -0.39583     1 3d1-  0.60534     2 3d2-  0.39583     2 3d1- -0.60534     3 1s   -0.48484
                                    4 1s    0.48484     5 1s   -0.48484     6 1s    0.48484
   32.1    -0.00000     2.38714     1 1s   -0.50406     1 2pz   0.28995     1 2pz  -0.44477     1 3d0   0.69297     2 1s   -0.50406
                                    2 2pz  -0.28995     2 2pz   0.44477     2 3d0   0.69297
   33.1    -0.00000     2.57837     1 1s    0.30332     1 1s   -1.42826     1 2pz   0.30717     1 3d2+  0.78927     2 1s   -0.30332
                                    2 1s    1.42826     2 2pz   0.30717     2 3d2+ -0.78927     3 1s    0.43940     4 1s    0.43940
                                    5 1s   -0.43940     6 1s   -0.43940
   34.1    -0.00000     2.69273     1 2px  -0.25196     1 3d1+  0.89676     2 2px   0.25196     2 3d1+  0.89676
   35.1    -0.00000     3.01413     1 2py   0.43879     1 3d1-  0.96078     2 2py  -0.43879     2 3d1-  0.96078     3 1s   -0.45913
                                    4 1s    0.45913     5 1s    0.45913     6 1s   -0.45913
   36.1    -0.00000     3.04268     1 1s    0.30834     1 1s    2.02400     1 2pz  -0.78624     1 2pz  -1.17808     1 3d0   1.10915
                                    2 1s   -0.30834     2 1s   -2.02400     2 2pz  -0.78624     2 2pz  -1.17808     2 3d0  -1.10915


 Natural orbital dump (state averaged) at molpro section  2140.2    (Orbital set 2)



 **********************************************************************************************************************************
 DATASETS  * FILE   NREC   LENGTH (MB)   RECORD NAMES
              1      20       31.69       500      610      700      900      950      970     1000      129      960     1100   
                                          VAR    BASINP    GEOM    SYMINP    ZMAT    AOBASIS   BASIS     P2S    ABASIS      S 
                                         1400     1410     1200     1210     1080     1600     1650     1300     1700     1380   
                                           T        V       H0       H01     AOSYM     SMH    MOLCAS    ERIS     OPER     JKOP   

              2       5        5.42       700     1000      520     2100     2140   
                                         GEOM     BASIS   MCVARS     RHF     MCSCF   

 PROGRAMS   *        TOTAL     MULTI    HF-SCF       INT
 CPU TIMES  *         0.72      0.25      0.11      0.26
 REAL TIME  *         0.99 SEC
 DISK USED  *        38.88 MB
 **********************************************************************************************************************************
 Molecular orbitals read from record     2140.2  Type=MCSCF/NATURAL (state averaged)
 Occupation numbers read from record     2140.2  Type=MCSCF/NATURAL (state averaged)
 Orbital energies read from record       2140.2  Type=MCSCF/NATURAL (state averaged)
 Redundancy group numbers read from rec  2140.2  Type=MCSCF/NATURAL (state averaged)

 MULTI/6-31G* energy=    -77.487943896331

           MULTI          HF-SCF
    -77.48794390    -78.02607477
 **********************************************************************************************************************************
 Molpro calculation terminated
