
 Primary working directories    : /scratch.local/johan406.molpro_temp/molpro.aL0wg6y6Yx
 Secondary working directories  : /scratch.local/johan406.molpro_temp/molpro.aL0wg6y6Yx
 Wavefunction directory         : /home/goodpast/johan406/wfu/
 Main file repository           : /scratch.local/johan406.molpro_temp/molpro.aL0wg6y6Yx/

 id        : roweumn

 Nodes     nprocs
 cn0117       1

 Using customized tuning parameters: mindgm=1; mindgv=20; mindgc=4; mindgr=1; noblas=0; minvec=7
 default implementation of scratch files=df  


 Variables initialized (934), CPU time= 0.00 sec
                                                                                 !leave this line blank
 
 gprint, orbitals=30
 memory, 125., m
 symmetry, nosym
 nelect=16
 basis=6-31g*
 
 geometry={
 C 0.0 0.0 0.6697
 C 0.0 0.0 -0.6697
 H 0.0 0.9142 1.2366
 H -0.0 -0.9142 1.2366
 H 0.0 0.9142 -1.2366
 H 0.0 -0.9142 -1.2366
 }
 
 hf
 {multi,
 closed 7
 occ 9
 wf,spin=0;STATE,3
 }
 
 Commands  initialized (763), CPU time= 0.01 sec, 617 directives.
 Default parameters read. Elapsed time= 0.08 sec

 Checking input...
 Passed
1


                                         ***  PROGRAM SYSTEM MOLPRO  ***
                                       Copyright, TTI GmbH Stuttgart, 2015
                                    Version 2019.2 linked Oct 25 2019 22:50:27


 **********************************************************************************************************************************
 LABEL *                                                                                 
  64 bit serial version                                                                  DATE: 26-Jan-23          TIME: 20:11:37  
 **********************************************************************************************************************************

 SHA1:             8dbd9ae1082e4ce945b0f27595c9eb2d4aa09004
 **********************************************************************************************************************************


 Variable memory set to  125000000 words,  buffer space 

 SETTING NELECT         =        16.00000000                                  
 SETTING BASIS          =    6-31G*
 ZSYMEL=NOSYM


Geometry recognized as XYZ



 Recomputing integrals since basis changed


 Using spherical harmonics

 Library entry C      S 6-31G                selected for orbital group  1
 Library entry C      P 6-31G                selected for orbital group  1
 Library entry C      D 6-31G*               selected for orbital group  1
 Library entry H      S 6-31G                selected for orbital group  2


 PROGRAM * SEWARD (Integral evaluation for generally contracted gaussian basis sets)     Author: Roland Lindh, 1990

 Geometry written to block  1 of record 700


 Point group  C1  



 ATOMIC COORDINATES

 NR  ATOM    CHARGE       X              Y              Z

   1  C       6.00    0.000000000    0.000000000    1.265549586
   2  C       6.00    0.000000000    0.000000000   -1.265549586
   3  H       1.00    0.000000000    1.727587623    2.336835326
   4  H       1.00    0.000000000   -1.727587623    2.336835326
   5  H       1.00    0.000000000    1.727587623   -2.336835326
   6  H       1.00    0.000000000   -1.727587623   -2.336835326

 Bond lengths in Bohr (Angstrom)

 1-2  2.531099171  1-3  2.032784330  1-4  2.032784330  2-5  2.032784330  2-6  2.032784330
     ( 1.339400000)     ( 1.075703142)     ( 1.075703142)     ( 1.075703142)     ( 1.075703142)

 Bond angles

  1-2-5  121.80325863   1-2-6  121.80325863   2-1-3  121.80325863   2-1-4  121.80325863

  3-1-4  116.39348273   5-2-6  116.39348273

 NUCLEAR CHARGE:                   16
 NUMBER OF PRIMITIVE AOS:          72
 NUMBER OF SYMMETRY AOS:           70
 NUMBER OF CONTRACTIONS:           36   (   36A   )
 NUMBER OF CORE ORBITALS:           2   (    2A   )
 NUMBER OF VALENCE ORBITALS:       12   (   12A   )


 NUCLEAR REPULSION ENERGY   33.38759956

 EXTRA SYMMETRY OF AOS IN SYMMETRY 1:   1 1 1 2 1 1 2 1 1 1   3 2 1 1 1 1 1 2 1 1   2 1 1 1 3 2 1 1 1 1   1 1 1 1 1 1

 Eigenvalues of metric

         1 0.836E-02 0.173E-01 0.376E-01 0.459E-01 0.710E-01 0.193E+00 0.210E+00 0.225E+00


 Contracted 2-electron integrals neglected if value below      1.0D-11
 AO integral compression algorithm  1   Integral accuracy      1.0D-11

     0.786 MB (compressed) written to integral file ( 37.8%)


 NUMBER OF SORTED TWO-ELECTRON INTEGRALS:     222111.     BUFFER LENGTH:  32768
 NUMBER OF SEGMENTS:   1  SEGMENT LENGTH:     222111      RECORD LENGTH: 524288

 Memory used in sort:       0.78 MW

 SORT1 READ      284735. AND WROTE       98271. INTEGRALS IN      1 RECORDS. CPU TIME:     0.01 SEC, REAL TIME:     0.01 SEC
 SORT2 READ       98271. AND WROTE      222111. INTEGRALS IN      3 RECORDS. CPU TIME:     0.02 SEC, REAL TIME:     0.02 SEC

 FILE SIZES:   FILE 1:    30.9 MBYTE,  FILE 4:     4.2 MBYTE,   TOTAL:     35.1 MBYTE

 OPERATOR DM      FOR CENTER  0  COORDINATES:    0.000000    0.000000    0.000000


 **********************************************************************************************************************************
 DATASETS  * FILE   NREC   LENGTH (MB)   RECORD NAMES
              1      19       30.63       500      610      700      900      950      970     1000      129      960     1100   
                                          VAR    BASINP    GEOM    SYMINP    ZMAT    AOBASIS   BASIS     P2S    ABASIS      S 
                                         1400     1410     1200     1210     1080     1600     1650     1300     1700   
                                           T        V       H0       H01     AOSYM     SMH    MOLCAS    ERIS     OPER   

 PROGRAMS   *        TOTAL       INT
 CPU TIMES  *         0.35      0.25
 REAL TIME  *         0.56 SEC
 DISK USED  *        35.45 MB
 **********************************************************************************************************************************


 PROGRAM * RHF-SCF (CLOSED SHELL)       Authors: W. Meyer, H.-J. Werner


 NUMBER OF ELECTRONS:       8+    8-    SPACE SYMMETRY=1    SPIN SYMMETRY: Singlet 
 CONVERGENCE THRESHOLDS:    1.00E-05 (Density)    1.00E-07 (Energy)
 MAX. NUMBER OF ITERATIONS:       60
 INTERPOLATION TYPE:            DIIS
 INTERPOLATION STEPS:              2 (START)      1 (STEP)
 LEVEL SHIFTS:                  0.00 (CLOSED)  0.00 (OPEN) 



 Orbital guess generated from atomic densities. Full valence occupancy:    8

 Molecular orbital dump at record        2100.2

 Initial occupancy:   8

 ITERATION    DDIFF          GRAD             ENERGY        2-EL.EN.            DIPOLE MOMENTS         DIIS   ORB.
    1      0.000D+00      0.000D+00       -78.00648997    118.679888   -0.00000   -0.00000   -0.00000    0    start
    2      0.000D+00      0.858D-02       -78.02840464    116.847990   -0.00000    0.00000   -0.00000    1    diag
    3      0.820D-02      0.291D-02       -78.03052372    117.476647    0.00000    0.00000    0.00000    2    diag
    4      0.263D-02      0.712D-03       -78.03073278    117.377825    0.00000   -0.00000   -0.00000    3    diag
    5      0.107D-02      0.678D-04       -78.03073487    117.380733    0.00000    0.00000    0.00000    4    diag
    6      0.145D-03      0.808D-05       -78.03073490    117.380302   -0.00000   -0.00000   -0.00000    5    diag
    7      0.154D-04      0.118D-05       -78.03073490    117.380311   -0.00000    0.00000    0.00000    6    diag
    8      0.178D-05      0.139D-06       -78.03073490    117.380305    0.00000   -0.00000    0.00000    0    orth

 Final occupancy:   8

 !RHF STATE  1.1 Energy               -78.030734901080
 Nuclear energy                        33.38759956
 One-electron energy                 -170.10848687
 Two-electron energy                   58.69015241
 Virial quotient                       -1.00015936
 !RHF STATE  1.1 Dipole moment          0.00000000    -0.00000000     0.00000000
 Dipole moment /Debye                   0.00000000    -0.00000000     0.00000000

 ELECTRON ORBITALS
 =================

  Orbital  Occupation    Energy     Coefficients
    1.1     2.00000   -11.22533     1 1s    0.70419     2 1s    0.70419
    2.1     2.00000   -11.22375     1 1s    0.70454     2 1s   -0.70454
    3.1     2.00000    -1.02648     1 1s    0.30214     2 1s    0.30214
    4.1     2.00000    -0.79255     1 1s    0.24176
    5.1     2.00000    -0.63822     1 2py   0.32176     2 2py   0.32176
    6.1     2.00000    -0.58301     1 2pz   0.40717     2 2pz  -0.40717
    7.1     2.00000    -0.50578     1 2py   0.30546     2 2py  -0.30546
    8.1     2.00000    -0.36898     1 2px   0.37320     1 2px   0.30814     2 2px   0.37320     2 2px   0.30814
    9.1     0.00000     0.17828     1 2px   0.34216     1 2px   0.73318     2 2px  -0.34216     2 2px  -0.73318
   10.1     0.00000     0.26669     1 1s   -1.49882     1 2pz  -0.64869     2 1s   -1.49882     2 2pz   0.64869     3 1s    1.04299
                                    4 1s    1.04299     5 1s    1.04299     6 1s    1.04299
   11.1     0.00000     0.29467     1 2py  -0.25200     1 2py  -0.80946     2 2py  -0.25200     2 2py  -0.80946     3 1s    1.10201
                                    4 1s   -1.10201     5 1s    1.10201     6 1s   -1.10201
   12.1     0.00000     0.30941     1 1s    1.93653     2 1s   -1.93653     3 1s   -1.07658     4 1s   -1.07658     5 1s    1.07658
                                    6 1s    1.07658
   13.1     0.00000     0.39130     1 2py  -1.87665     2 2py   1.87665     3 1s    1.63170     4 1s   -1.63170     5 1s   -1.63170
                                    6 1s    1.63170
   14.1     0.00000     0.49076     1 1s   -2.97970     1 2pz   2.95574     2 1s    2.97970     2 2pz   2.95574     3 1s   -0.59476
                                    4 1s   -0.59476     5 1s    0.59476     6 1s    0.59476
   15.1     0.00000     0.66988     1 2pz  -0.55660     1 2pz   1.03953     2 2pz   0.55660     2 2pz  -1.03953
   16.1     0.00000     0.76151     1 2py  -0.39883     1 2py   0.77025     2 2py  -0.39883     2 2py   0.77025     3 1s   -0.38618
                                    4 1s    0.38618     5 1s   -0.38618     6 1s    0.38618
   17.1     0.00000     0.77748     1 2px  -0.74085     1 2px   0.63955     2 2px  -0.74085     2 2px   0.63955
   18.1     0.00000     0.86282     1 1s   -0.88810     1 1s    1.46934     1 2pz   0.34335     2 1s   -0.88810     2 1s    1.46934
                                    2 2pz  -0.34335     3 1s   -0.39549     4 1s   -0.39549     5 1s   -0.39549     6 1s   -0.39549
   19.1     0.00000     0.89029     1 2px  -0.81845     1 2px   1.07339     2 2px   0.81845     2 2px  -1.07339
   20.1     0.00000     0.95315     1 1s   -0.84941     1 2pz   0.60298     1 2pz  -0.48242     2 1s    0.84941     2 2pz   0.60298
                                    2 2pz  -0.48242     3 1s    0.38384     4 1s    0.38384     5 1s   -0.38384     6 1s   -0.38384
   21.1     0.00000     1.11703     1 2py  -0.68974     1 2py   1.10070     2 2py  -0.68974     2 2py   1.10070     3 1s    0.38200
                                    3 1s   -1.06353     4 1s   -0.38200     4 1s    1.06353     5 1s    0.38200     5 1s   -1.06353
                                    6 1s   -0.38200     6 1s    1.06353
   22.1     0.00000     1.16068     1 2py   0.92526     1 2py  -2.94161     2 2py  -0.92526     2 2py   2.94161     3 1s    1.51032
                                    4 1s   -1.51032     5 1s   -1.51032     6 1s    1.51032
   23.1     0.00000     1.21698     1 1s    1.03591     1 1s   -1.72703     1 2pz   0.36610     1 2pz  -0.49674     2 1s    1.03591
                                    2 1s   -1.72703     2 2pz  -0.36610     2 2pz   0.49674     3 1s   -0.44069     3 1s    0.86719
                                    4 1s   -0.44069     4 1s    0.86719     5 1s   -0.44069     5 1s    0.86719     6 1s   -0.44069
                                    6 1s    0.86719
   24.1     0.00000     1.22314     1 1s   -0.52401     1 1s    0.49009     1 2pz  -0.62740     1 2pz   1.23595     2 1s    0.52401
                                    2 1s   -0.49009     2 2pz  -0.62740     2 2pz   1.23595     3 1s    0.47014     3 1s   -0.96907
                                    4 1s    0.47014     4 1s   -0.96907     5 1s   -0.47014     5 1s    0.96907     6 1s   -0.47014
                                    6 1s    0.96907
   25.1     0.00000     1.33777     1 1s   -1.59286     1 1s    5.37459     1 2pz   0.26083     1 2pz  -1.90456     2 1s    1.59286
                                    2 1s   -5.37459     2 2pz   0.26083     2 2pz  -1.90456     3 1s   -0.33524     4 1s   -0.33524
                                    5 1s    0.33524     6 1s    0.33524
   26.1     0.00000     1.47167     1 2py   2.53157     2 2py  -2.53157     3 1s   -0.69646     3 1s   -0.66654     4 1s    0.69646
                                    4 1s    0.66654     5 1s    0.69646     5 1s    0.66654     6 1s   -0.69646     6 1s   -0.66654
   27.1     0.00000     1.73863     1 3d1+  0.61921     2 3d1+ -0.61921
   28.1     0.00000     1.82218     1 3d2-  0.68133     2 3d2-  0.68133
   29.1     0.00000     2.12734     1 3d2-  0.73605     2 3d2- -0.73605
   30.1     0.00000     2.20842     1 1s   -0.60968     1 3d2+  0.71350     2 1s   -0.60968     2 3d2+  0.71350     3 1s    0.37489
                                    4 1s    0.37489     5 1s    0.37489     6 1s    0.37489
   31.1     0.00000     2.33362     1 2py   0.27799     1 3d1-  0.69257     2 2py   0.27799     2 3d1- -0.69257     3 1s   -0.51949
                                    4 1s    0.51949     5 1s   -0.51949     6 1s    0.51949
   32.1     0.00000     2.40596     1 1s   -0.50714     1 2pz   0.28230     1 2pz  -0.44761     1 3d0   0.68898     2 1s   -0.50714
                                    2 2pz  -0.28230     2 2pz   0.44761     2 3d0   0.68898
   33.1     0.00000     2.62537     1 1s    0.29026     1 1s   -1.33677     1 2pz   0.26542     1 3d2+  0.79897     2 1s   -0.29026
                                    2 1s    1.33677     2 2pz   0.26542     2 3d2+ -0.79897     3 1s    0.44481     4 1s    0.44481
                                    5 1s   -0.44481     6 1s   -0.44481
   34.1     0.00000     2.70678     1 2px  -0.26431     1 3d1+  0.90195     2 2px   0.26431     2 3d1+  0.90195
   35.1     0.00000     3.06073     1 1s    0.31172     1 1s    2.02534     1 2pz  -0.79289     1 2pz  -1.18022     1 3d0   1.11121
                                    2 1s   -0.31172     2 1s   -2.02534     2 2pz  -0.79289     2 2pz  -1.18022     2 3d0  -1.11121
   36.1     0.00000     3.06589     1 2py   0.56731     1 3d1-  0.97091     2 2py  -0.56731     2 3d1-  0.97091     3 1s   -0.47987
                                    4 1s    0.47987     5 1s    0.47987     6 1s   -0.47987


 HOMO      8.1    -0.368979 =     -10.0404eV
 LUMO      9.1     0.178283 =       4.8513eV
 LUMO-HOMO         0.547263 =      14.8918eV


 **********************************************************************************************************************************
 DATASETS  * FILE   NREC   LENGTH (MB)   RECORD NAMES
              1      19       30.63       500      610      700      900      950      970     1000      129      960     1100   
                                          VAR    BASINP    GEOM    SYMINP    ZMAT    AOBASIS   BASIS     P2S    ABASIS      S 
                                         1400     1410     1200     1210     1080     1600     1650     1300     1700   
                                           T        V       H0       H01     AOSYM     SMH    MOLCAS    ERIS     OPER   

              2       4        2.86       700     1000      520     2100   
                                         GEOM     BASIS   MCVARS     RHF  

 PROGRAMS   *        TOTAL    HF-SCF       INT
 CPU TIMES  *         0.45      0.10      0.25
 REAL TIME  *         0.69 SEC
 DISK USED  *        35.45 MB
 **********************************************************************************************************************************


 PROGRAM * MULTI (Direct Multiconfiguration SCF)       Authors: P.J. Knowles, H.-J. Werner (1984)


 Number of closed-shell orbitals:   7 (   7 )
 Number of active  orbitals:        2 (   2 )
 Number of external orbitals:      27 (  27 )

 State symmetry 1

 Number of electrons:     2    Spin symmetry=Singlet   Space symmetry=1
 Number of states:        3
 Number of CSFs:          3   (4 determinants, 4 intermediate states)

 Molecular orbitals read from record     2100.2  Type=RHF/CANONICAL (state 1.1)

 EXTRA SYMMETRY OF MOS IN SYMMETRY 1:   1 1 1 1 1 1 1 2 2 1   1 1 1 1 1 1 2 1 2 1   1 1 1 1 1 1 2 3 3 1   1 1 1 2 1 1

 Wavefunction dump at record             2140.2

 Convergence thresholds  0.10E-01 (gradient)  0.10E-05 (energy)  0.10E-02 (step length)

 Weight factors for state symmetry  1:    0.33333   0.33333   0.33333

 Number of orbital rotations:      257   (    14 Core/Active    189 Core/Virtual   0 Active/Active     54 Active/Virtual)
 Total number of variables:        269

 Micro-Iterations solved by the two-step solver

 ITER. MIC  NCI  NEG     ENERGY(VAR)     ENERGY(PROJ)   ENERGY CHANGE     GRAD(0)  GRAD(ORB)   GRAD(CI)     STEP       TIME

   1    3    3    0     -77.73003700     -77.73626383   -0.00622683    0.13240596 0.00000153 0.00000000  0.62D-01      0.07
   2    2    3    0     -77.73616581     -77.73616955   -0.00000374    0.00303320 0.00000184 0.00000000  0.16D-02      0.10
   3    2    3    0     -77.73616955     -77.73616955   -0.00000000    0.00000214 0.00000000 0.00000000  0.13D-05      0.13

 ** WVFN ****  CONVERGENCE REACHED, FINAL GRADIENT:  0.12D-11



 Results for state 1.1
 =====================

 !MCSCF STATE  1.1 Energy             -78.048476788418
 Nuclear energy                        33.38759956
 Kinetic energy                        78.08608572
 One electron energy                 -170.23961770
 Two electron energy                   58.80354135
 Virial ratio                           1.99951837

 !MCSCF STATE  1.1 Dipole moment        0.00000000     0.00000000    -0.00000000
 Dipole moment /Debye                   0.00000000     0.00000000    -0.00000000

 Results for state 2.1
 =====================

 !MCSCF STATE  2.1 Energy             -77.672850044323
 Nuclear energy                        33.38759956
 Kinetic energy                        78.26660673
 One electron energy                 -169.66860406
 Two electron energy                   58.60815446
 Virial ratio                           1.99241367

 !MCSCF STATE  2.1 Dipole moment        0.00000000     0.00000000     0.00000000
 Dipole moment /Debye                   0.00000000     0.00000000     0.00000000

 Results for state 3.1
 =====================

 !MCSCF STATE  3.1 Energy             -77.487181831911
 Nuclear energy                        33.38759956
 Kinetic energy                        78.44712775
 One electron energy                 -169.09759042
 Two electron energy                   58.22280903
 Virial ratio                           1.98776315

 !MCSCF STATE  3.1 Dipole moment        0.00000000     0.00000000    -0.00000000
 Dipole moment /Debye                   0.00000000     0.00000000    -0.00000000

 State-averaged charge density matrix saved on record  2140.2 (density set 1)

 !MCSCF trans         <2.1|DMZ|1.1>    -1.510512466842 au =    -3.839088275476 Debye
 !MCSCF trans         <3.1|DMZ|2.1>    -2.275814166757 au =    -5.784163769945 Debye


 NATURAL ORBITALS (state averaged)
 =================================

  Orbital  Occupation    Energy     Coefficients
    1.1     2.00000   -11.24098     1 1s    0.70420     2 1s    0.70420
    2.1     2.00000   -11.23966     1 1s    0.70450     2 1s   -0.70450
    3.1     2.00000    -1.04113     1 1s    0.31016     2 1s    0.31016
    4.1     2.00000    -0.80032     1 1s    0.28696     2 1s   -0.28696
    5.1     2.00000    -0.65100     1 2py   0.32744     2 2py   0.32744
    6.1     2.00000    -0.59813     1 2pz   0.40889     2 2pz  -0.40889
    7.1     2.00000    -0.51236     1 2py   0.31194     2 2py  -0.31194
    8.1     1.00000     0.03346     1 2px   0.38004     1 2px   0.68630     2 2px  -0.38004     2 2px  -0.68630
    9.1     1.00000    -0.22516     1 2px   0.35779     1 2px   0.31957     2 2px   0.35779     2 2px   0.31957
   10.1    -0.00000     0.26397     1 1s   -1.49488     1 2pz  -0.65453     2 1s   -1.49488     2 2pz   0.65453     3 1s    1.04255
                                    4 1s    1.04255     5 1s    1.04255     6 1s    1.04255
   11.1    -0.00000     0.28625     1 2py  -0.25032     1 2py  -0.79985     2 2py  -0.25032     2 2py  -0.79985     3 1s    1.09351
                                    4 1s   -1.09351     5 1s    1.09351     6 1s   -1.09351
   12.1    -0.00000     0.30632     1 1s    1.96066     2 1s   -1.96066     3 1s   -1.07103     4 1s   -1.07103     5 1s    1.07103
                                    6 1s    1.07103
   13.1    -0.00000     0.38715     1 2py  -0.25136     1 2py  -1.86232     2 2py   0.25136     2 2py   1.86232     3 1s    1.62490
                                    4 1s   -1.62490     5 1s   -1.62490     6 1s    1.62490
   14.1    -0.00000     0.48795     1 1s   -2.95685     1 2pz   2.93720     2 1s    2.95685     2 2pz   2.93720     3 1s   -0.60413
                                    4 1s   -0.60413     5 1s    0.60413     6 1s    0.60413
   15.1    -0.00000     0.65846     1 1s    0.25690     1 2pz  -0.54859     1 2pz   1.01580     2 1s    0.25690     2 2pz   0.54859
                                    2 2pz  -1.01580
   16.1    -0.00000     0.75103     1 2py  -0.41017     1 2py   0.77753     2 2py  -0.41017     2 2py   0.77753     3 1s   -0.38151
                                    4 1s    0.38151     5 1s   -0.38151     6 1s    0.38151
   17.1    -0.00000     0.77147     1 2px  -0.74748     1 2px   0.63427     2 2px  -0.74748     2 2px   0.63427
   18.1    -0.00000     0.86003     1 1s   -0.88141     1 1s    1.49374     1 2pz   0.39037     2 1s   -0.88141     2 1s    1.49374
                                    2 2pz  -0.39037     3 1s   -0.39718     4 1s   -0.39718     5 1s   -0.39718     6 1s   -0.39718
   19.1    -0.00000     0.87271     1 2px  -0.80289     1 2px   1.10376     2 2px   0.80289     2 2px  -1.10376
   20.1    -0.00000     0.93430     1 1s   -0.69158     1 2pz   0.60754     1 2pz  -0.56706     2 1s    0.69158     2 2pz   0.60754
                                    2 2pz  -0.56706     3 1s    0.38393     4 1s    0.38393     5 1s   -0.38393     6 1s   -0.38393
   21.1    -0.00000     1.10154     1 2py  -0.67812     1 2py   1.10232     2 2py  -0.67812     2 2py   1.10232     3 1s    0.38273
                                    3 1s   -1.07254     4 1s   -0.38273     4 1s    1.07254     5 1s    0.38273     5 1s   -1.07254
                                    6 1s   -0.38273     6 1s    1.07254
   22.1    -0.00000     1.14813     1 2py   0.92228     1 2py  -2.94656     2 2py  -0.92228     2 2py   2.94656     3 1s    1.51829
                                    4 1s   -1.51829     5 1s   -1.51829     6 1s    1.51829
   23.1    -0.00000     1.21375     1 1s    1.03104     1 1s   -1.72315     1 2pz   0.36971     1 2pz  -0.50236     2 1s    1.03104
                                    2 1s   -1.72315     2 2pz  -0.36971     2 2pz   0.50236     3 1s   -0.44122     3 1s    0.86680
                                    4 1s   -0.44122     4 1s    0.86680     5 1s   -0.44122     5 1s    0.86680     6 1s   -0.44122
                                    6 1s    0.86680
   24.1    -0.00000     1.22074     1 1s   -0.45763     1 1s    0.27163     1 2pz  -0.64128     1 2pz   1.31532     2 1s    0.45763
                                    2 1s   -0.27163     2 2pz  -0.64128     2 2pz   1.31532     3 1s    0.47298     3 1s   -0.95435
                                    4 1s    0.47298     4 1s   -0.95435     5 1s   -0.47298     5 1s    0.95435     6 1s   -0.47298
                                    6 1s    0.95435
   25.1    -0.00000     1.31809     1 1s   -1.61524     1 1s    5.40311     1 2pz  -1.84997     2 1s    1.61524     2 1s   -5.40311
                                    2 2pz  -1.84997     3 1s   -0.37733     4 1s   -0.37733     5 1s    0.37733     6 1s    0.37733
   26.1    -0.00000     1.46309     1 2py   2.53512     2 2py  -2.53512     3 1s   -0.69530     3 1s   -0.66781     4 1s    0.69530
                                    4 1s    0.66781     5 1s    0.69530     5 1s    0.66781     6 1s   -0.69530     6 1s   -0.66781
   27.1    -0.00000     1.71299     1 3d1+  0.61894     2 3d1+ -0.61894
   28.1    -0.00000     1.80836     1 3d2-  0.68133     2 3d2-  0.68133
   29.1    -0.00000     2.10428     1 3d2-  0.73605     2 3d2- -0.73605
   30.1    -0.00000     2.19306     1 1s   -0.60557     1 3d2+  0.71301     2 1s   -0.60557     2 3d2+  0.71301     3 1s    0.37678
                                    4 1s    0.37678     5 1s    0.37678     6 1s    0.37678
   31.1    -0.00000     2.31742     1 2py   0.28487     1 3d1-  0.69080     2 2py   0.28487     2 3d1- -0.69080     3 1s   -0.52290
                                    4 1s    0.52290     5 1s   -0.52290     6 1s    0.52290
   32.1    -0.00000     2.38587     1 1s   -0.50518     1 2pz   0.28819     1 2pz  -0.45040     1 3d0   0.68875     2 1s   -0.50518
                                    2 2pz  -0.28819     2 2pz   0.45040     2 3d0   0.68875
   33.1    -0.00000     2.60566     1 1s    0.29108     1 1s   -1.34266     1 2pz   0.26417     1 3d2+  0.79822     2 1s   -0.29108
                                    2 1s    1.34266     2 2pz   0.26417     2 3d2+ -0.79822     3 1s    0.44789     4 1s    0.44789
                                    5 1s   -0.44789     6 1s   -0.44789
   34.1    -0.00000     2.68427     1 2px  -0.26506     1 3d1+  0.90234     2 2px   0.26506     2 3d1+  0.90234
   35.1    -0.00000     3.04275     1 1s    0.30464     1 1s    2.05089     1 2pz  -0.78537     1 2pz  -1.19358     1 3d0   1.11285
                                    2 1s   -0.30464     2 1s   -2.05089     2 2pz  -0.78537     2 2pz  -1.19358     2 3d0  -1.11285
   36.1    -0.00000     3.05310     1 2py   0.56738     1 3d1-  0.97052     2 2py  -0.56738     2 3d1-  0.97052     3 1s   -0.48215
                                    4 1s    0.48215     5 1s    0.48215     6 1s   -0.48215


 Natural orbital dump (state averaged) at molpro section  2140.2    (Orbital set 2)



 **********************************************************************************************************************************
 DATASETS  * FILE   NREC   LENGTH (MB)   RECORD NAMES
              1      20       31.36       500      610      700      900      950      970     1000      129      960     1100   
                                          VAR    BASINP    GEOM    SYMINP    ZMAT    AOBASIS   BASIS     P2S    ABASIS      S 
                                         1400     1410     1200     1210     1080     1600     1650     1300     1700     1380   
                                           T        V       H0       H01     AOSYM     SMH    MOLCAS    ERIS     OPER     JKOP   

              2       5        5.42       700     1000      520     2100     2140   
                                         GEOM     BASIS   MCVARS     RHF     MCSCF   

 PROGRAMS   *        TOTAL     MULTI    HF-SCF       INT
 CPU TIMES  *         0.62      0.17      0.10      0.25
 REAL TIME  *         0.88 SEC
 DISK USED  *        38.55 MB
 **********************************************************************************************************************************
 Molecular orbitals read from record     2140.2  Type=MCSCF/NATURAL (state averaged)
 Occupation numbers read from record     2140.2  Type=MCSCF/NATURAL (state averaged)
 Orbital energies read from record       2140.2  Type=MCSCF/NATURAL (state averaged)
 Redundancy group numbers read from rec  2140.2  Type=MCSCF/NATURAL (state averaged)

 MULTI/6-31G* energy=    -77.487181831911

           MULTI          HF-SCF
    -77.48718183    -78.03073490
 **********************************************************************************************************************************
 Molpro calculation terminated
