
 Primary working directories    : /scratch.local/johan406.molpro_temp/molpro.WQCfp2lN35
 Secondary working directories  : /scratch.local/johan406.molpro_temp/molpro.WQCfp2lN35
 Wavefunction directory         : /home/goodpast/johan406/wfu/
 Main file repository           : /scratch.local/johan406.molpro_temp/molpro.WQCfp2lN35/

 id        : roweumn

 Nodes     nprocs
 cn0117       1

 Using customized tuning parameters: mindgm=1; mindgv=20; mindgc=4; mindgr=1; noblas=0; minvec=7
 default implementation of scratch files=df  


 Variables initialized (934), CPU time= 0.00 sec
                                                                                 !leave this line blank
 
 gprint, orbitals=30
 memory, 125., m
 symmetry, nosym
 nelect=16
 basis=6-31g*
 
 geometry={
 C 0.0 0.0 0.6805
 C 0.0 0.0 -0.6805
 H 0.0 0.902 1.2697
 H -0.0 -0.902 1.2697
 H 0.0 0.902 -1.2697
 H 0.0 -0.902 -1.2697
 }
 
 hf
 {multi,
 closed 7
 occ 9
 wf,spin=0;STATE,3
 }
 
 Commands  initialized (763), CPU time= 0.01 sec, 617 directives.
 Default parameters read. Elapsed time= 0.08 sec

 Checking input...
 Passed
1


                                         ***  PROGRAM SYSTEM MOLPRO  ***
                                       Copyright, TTI GmbH Stuttgart, 2015
                                    Version 2019.2 linked Oct 25 2019 22:50:27


 **********************************************************************************************************************************
 LABEL *                                                                                 
  64 bit serial version                                                                  DATE: 26-Jan-23          TIME: 20:13:22  
 **********************************************************************************************************************************

 SHA1:             8dbd9ae1082e4ce945b0f27595c9eb2d4aa09004
 **********************************************************************************************************************************


 Variable memory set to  125000000 words,  buffer space 

 SETTING NELECT         =        16.00000000                                  
 SETTING BASIS          =    6-31G*
 ZSYMEL=NOSYM


Geometry recognized as XYZ



 Recomputing integrals since basis changed


 Using spherical harmonics

 Library entry C      S 6-31G                selected for orbital group  1
 Library entry C      P 6-31G                selected for orbital group  1
 Library entry C      D 6-31G*               selected for orbital group  1
 Library entry H      S 6-31G                selected for orbital group  2


 PROGRAM * SEWARD (Integral evaluation for generally contracted gaussian basis sets)     Author: Roland Lindh, 1990

 Geometry written to block  1 of record 700


 Point group  C1  



 ATOMIC COORDINATES

 NR  ATOM    CHARGE       X              Y              Z

   1  C       6.00    0.000000000    0.000000000    1.285958628
   2  C       6.00    0.000000000    0.000000000   -1.285958628
   3  H       1.00    0.000000000    1.704532964    2.399385260
   4  H       1.00    0.000000000   -1.704532964    2.399385260
   5  H       1.00    0.000000000    1.704532964   -2.399385260
   6  H       1.00    0.000000000   -1.704532964   -2.399385260

 Bond lengths in Bohr (Angstrom)

 1-2  2.571917256  1-3  2.035964512  1-4  2.035964512  2-5  2.035964512  2-6  2.035964512
     ( 1.361000000)     ( 1.077386022)     ( 1.077386022)     ( 1.077386022)     ( 1.077386022)

 Bond angles

  1-2-5  123.15317500   1-2-6  123.15317500   2-1-3  123.15317500   2-1-4  123.15317500

  3-1-4  113.69365000   5-2-6  113.69365000

 NUCLEAR CHARGE:                   16
 NUMBER OF PRIMITIVE AOS:          72
 NUMBER OF SYMMETRY AOS:           70
 NUMBER OF CONTRACTIONS:           36   (   36A   )
 NUMBER OF CORE ORBITALS:           2   (    2A   )
 NUMBER OF VALENCE ORBITALS:       12   (   12A   )


 NUCLEAR REPULSION ENERGY   33.03926018

 EXTRA SYMMETRY OF AOS IN SYMMETRY 1:   1 1 1 2 1 1 2 1 1 1   3 2 1 1 1 1 1 2 1 1   2 1 1 1 3 2 1 1 1 1   1 1 1 1 1 1

 Eigenvalues of metric

         1 0.914E-02 0.189E-01 0.362E-01 0.443E-01 0.737E-01 0.209E+00 0.212E+00 0.226E+00


 Contracted 2-electron integrals neglected if value below      1.0D-11
 AO integral compression algorithm  1   Integral accuracy      1.0D-11

     0.786 MB (compressed) written to integral file ( 37.6%)


 NUMBER OF SORTED TWO-ELECTRON INTEGRALS:     222111.     BUFFER LENGTH:  32768
 NUMBER OF SEGMENTS:   1  SEGMENT LENGTH:     222111      RECORD LENGTH: 524288

 Memory used in sort:       0.78 MW

 SORT1 READ      284735. AND WROTE       98239. INTEGRALS IN      1 RECORDS. CPU TIME:     0.01 SEC, REAL TIME:     0.01 SEC
 SORT2 READ       98239. AND WROTE      222111. INTEGRALS IN      3 RECORDS. CPU TIME:     0.02 SEC, REAL TIME:     0.02 SEC

 FILE SIZES:   FILE 1:    30.9 MBYTE,  FILE 4:     4.2 MBYTE,   TOTAL:     35.1 MBYTE

 OPERATOR DM      FOR CENTER  0  COORDINATES:    0.000000    0.000000    0.000000


 **********************************************************************************************************************************
 DATASETS  * FILE   NREC   LENGTH (MB)   RECORD NAMES
              1      19       30.63       500      610      700      900      950      970     1000      129      960     1100   
                                          VAR    BASINP    GEOM    SYMINP    ZMAT    AOBASIS   BASIS     P2S    ABASIS      S 
                                         1400     1410     1200     1210     1080     1600     1650     1300     1700   
                                           T        V       H0       H01     AOSYM     SMH    MOLCAS    ERIS     OPER   

 PROGRAMS   *        TOTAL       INT
 CPU TIMES  *         0.36      0.26
 REAL TIME  *         0.57 SEC
 DISK USED  *        35.45 MB
 **********************************************************************************************************************************


 PROGRAM * RHF-SCF (CLOSED SHELL)       Authors: W. Meyer, H.-J. Werner


 NUMBER OF ELECTRONS:       8+    8-    SPACE SYMMETRY=1    SPIN SYMMETRY: Singlet 
 CONVERGENCE THRESHOLDS:    1.00E-05 (Density)    1.00E-07 (Energy)
 MAX. NUMBER OF ITERATIONS:       60
 INTERPOLATION TYPE:            DIIS
 INTERPOLATION STEPS:              2 (START)      1 (STEP)
 LEVEL SHIFTS:                  0.00 (CLOSED)  0.00 (OPEN) 



 Orbital guess generated from atomic densities. Full valence occupancy:    8

 Molecular orbital dump at record        2100.2

 Initial occupancy:   8

 ITERATION    DDIFF          GRAD             ENERGY        2-EL.EN.            DIPOLE MOMENTS         DIIS   ORB.
    1      0.000D+00      0.000D+00       -78.00495270    117.890542   -0.00000   -0.00000    0.00000    0    start
    2      0.000D+00      0.829D-02       -78.02609493    116.187686   -0.00000   -0.00000   -0.00000    1    diag
    3      0.799D-02      0.280D-02       -78.02808642    116.782770   -0.00000   -0.00000    0.00000    2    diag
    4      0.255D-02      0.704D-03       -78.02829229    116.681530   -0.00000   -0.00000    0.00000    3    diag
    5      0.105D-02      0.675D-04       -78.02829435    116.684568   -0.00000    0.00000   -0.00000    4    diag
    6      0.141D-03      0.832D-05       -78.02829438    116.684139    0.00000   -0.00000    0.00000    5    diag
    7      0.154D-04      0.126D-05       -78.02829438    116.684146    0.00000   -0.00000   -0.00000    6    diag
    8      0.201D-05      0.149D-06       -78.02829438    116.684140   -0.00000    0.00000   -0.00000    0    orth

 Final occupancy:   8

 !RHF STATE  1.1 Energy               -78.028294378705
 Nuclear energy                        33.03926018
 One-electron energy                 -169.40962440
 Two-electron energy                   58.34206984
 Virial quotient                       -1.00117590
 !RHF STATE  1.1 Dipole moment         -0.00000000     0.00000000    -0.00000000
 Dipole moment /Debye                  -0.00000000     0.00000000    -0.00000000

 ELECTRON ORBITALS
 =================

  Orbital  Occupation    Energy     Coefficients
    1.1     2.00000   -11.23046     1 1s    0.70422     2 1s    0.70422
    2.1     2.00000   -11.22905     1 1s    0.70453     2 1s   -0.70453
    3.1     2.00000    -1.01907     1 1s    0.30195     2 1s    0.30195
    4.1     2.00000    -0.79823     1 1s    0.24043
    5.1     2.00000    -0.63015     1 2py   0.32187     2 2py   0.32187
    6.1     2.00000    -0.58618     1 2pz   0.40551     2 2pz  -0.40551
    7.1     2.00000    -0.50517     1 2py   0.30582     2 2py  -0.30582
    8.1     2.00000    -0.36442     1 2px   0.37183     1 2px   0.31178     2 2px   0.37183     2 2px   0.31178
    9.1     0.00000     0.17238     1 2px   0.34439     1 2px   0.71923     2 2px  -0.34439     2 2px  -0.71923
   10.1     0.00000     0.26907     1 1s   -1.51773     1 2pz  -0.66799     2 1s   -1.51773     2 2pz   0.66799     3 1s    1.06073
                                    4 1s    1.06073     5 1s    1.06073     6 1s    1.06073
   11.1     0.00000     0.29426     1 2py  -0.25085     1 2py  -0.79342     2 2py  -0.25085     2 2py  -0.79342     3 1s    1.08503
                                    4 1s   -1.08503     5 1s    1.08503     6 1s   -1.08503
   12.1     0.00000     0.30441     1 1s    1.89064     2 1s   -1.89064     3 1s   -1.06614     4 1s   -1.06614     5 1s    1.06614
                                    6 1s    1.06614
   13.1     0.00000     0.39056     1 2py   0.25355     1 2py   1.79942     2 2py  -0.25355     2 2py  -1.79942     3 1s   -1.59357
                                    4 1s    1.59357     5 1s    1.59357     6 1s   -1.59357
   14.1     0.00000     0.49041     1 1s   -2.79832     1 2pz   2.93640     2 1s    2.79832     2 2pz   2.93640     3 1s   -0.63814
                                    4 1s   -0.63814     5 1s    0.63814     6 1s    0.63814
   15.1     0.00000     0.68041     1 1s    0.25330     1 2pz  -0.56768     1 2pz   1.04579     2 1s    0.25330     2 2pz   0.56768
                                    2 2pz  -1.04579
   16.1     0.00000     0.74607     1 2py  -0.40304     1 2py   0.72949     2 2py  -0.40304     2 2py   0.72949     3 1s   -0.38116
                                    4 1s    0.38116     5 1s   -0.38116     6 1s    0.38116
   17.1     0.00000     0.78117     1 2px  -0.74528     1 2px   0.63996     2 2px  -0.74528     2 2px   0.63996
   18.1     0.00000     0.86878     1 1s   -0.89120     1 1s    1.54307     1 2pz   0.43334     2 1s   -0.89120     2 1s    1.54307
                                    2 2pz  -0.43334     3 1s   -0.39775     3 1s   -0.27156     4 1s   -0.39775     4 1s   -0.27156
                                    5 1s   -0.39775     5 1s   -0.27156     6 1s   -0.39775     6 1s   -0.27156
   19.1     0.00000     0.88615     1 2px  -0.81615     1 2px   1.06579     2 2px   0.81615     2 2px  -1.06579
   20.1     0.00000     0.93281     1 1s   -0.53333     1 2pz   0.60818     1 2pz  -0.72684     2 1s    0.53333     2 2pz   0.60818
                                    2 2pz  -0.72684     3 1s    0.37797     4 1s    0.37797     5 1s   -0.37797     6 1s   -0.37797
   21.1     0.00000     1.11962     1 2py  -0.68591     1 2py   1.07482     2 2py  -0.68591     2 2py   1.07482     3 1s    0.38570
                                    3 1s   -1.05338     4 1s   -0.38570     4 1s    1.05338     5 1s    0.38570     5 1s   -1.05338
                                    6 1s   -0.38570     6 1s    1.05338
   22.1     0.00000     1.15482     1 2py   0.91858     1 2py  -2.84229     2 2py  -0.91858     2 2py   2.84229     3 1s    1.47540
                                    4 1s   -1.47540     5 1s   -1.47540     6 1s    1.47540
   23.1     0.00000     1.22087     1 1s    1.02857     1 1s   -1.71537     1 2pz   0.36435     1 2pz  -0.50163     2 1s    1.02857
                                    2 1s   -1.71537     2 2pz  -0.36435     2 2pz   0.50163     3 1s   -0.44780     3 1s    0.86817
                                    4 1s   -0.44780     4 1s    0.86817     5 1s   -0.44780     5 1s    0.86817     6 1s   -0.44780
                                    6 1s    0.86817
   24.1     0.00000     1.22605     1 1s   -0.52272     1 1s    0.53224     1 2pz  -0.63039     1 2pz   1.20633     2 1s    0.52272
                                    2 1s   -0.53224     2 2pz  -0.63039     2 2pz   1.20633     3 1s    0.47582     3 1s   -0.95643
                                    4 1s    0.47582     4 1s   -0.95643     5 1s   -0.47582     5 1s    0.95643     6 1s   -0.47582
                                    6 1s    0.95643
   25.1     0.00000     1.32390     1 1s   -1.58636     1 1s    5.15156     1 2pz   0.25113     1 2pz  -1.78487     2 1s    1.58636
                                    2 1s   -5.15156     2 2pz   0.25113     2 2pz  -1.78487     3 1s   -0.33694     4 1s   -0.33694
                                    5 1s    0.33694     6 1s    0.33694
   26.1     0.00000     1.42255     1 2py   2.36088     2 2py  -2.36088     3 1s   -0.67880     3 1s   -0.59059     4 1s    0.67880
                                    4 1s    0.59059     5 1s    0.67880     5 1s    0.59059     6 1s   -0.67880     6 1s   -0.59059
   27.1     0.00000     1.72915     1 3d1+  0.62208     2 3d1+ -0.62208
   28.1     0.00000     1.82997     1 3d2-  0.68329     2 3d2-  0.68329
   29.1     0.00000     2.11942     1 3d2-  0.73361     2 3d2- -0.73361
   30.1     0.00000     2.20842     1 1s   -0.62814     1 3d2+  0.71384     2 1s   -0.62814     2 3d2+  0.71384     3 1s    0.37505
                                    4 1s    0.37505     5 1s    0.37505     6 1s    0.37505
   31.1     0.00000     2.33210     1 2py   0.27403     1 3d1-  0.69713     2 2py   0.27403     2 3d1- -0.69713     3 1s   -0.51943
                                    4 1s    0.51943     5 1s   -0.51943     6 1s    0.51943
   32.1     0.00000     2.37176     1 1s   -0.48874     1 2pz   0.29007     1 2pz  -0.45158     1 3d0   0.68141     2 1s   -0.48874
                                    2 2pz  -0.29007     2 2pz   0.45158     2 3d0   0.68141
   33.1     0.00000     2.58942     1 1s    0.28015     1 1s   -1.12790     1 3d2+  0.79120     2 1s   -0.28015     2 1s    1.12790
                                    2 3d2+ -0.79120     3 1s    0.43257     4 1s    0.43257     5 1s   -0.43257     6 1s   -0.43257
   34.1     0.00000     2.68118     1 2px  -0.26094     1 3d1+  0.88896     2 2px   0.26094     2 3d1+  0.88896
   35.1     0.00000     3.03575     1 1s    2.03543     1 2pz  -0.72790     1 2pz  -1.20429     1 3d0   1.09768     2 1s   -2.03543
                                    2 2pz  -0.72790     2 2pz  -1.20429     2 3d0  -1.09768
   36.1     0.00000     3.07669     1 2py   0.52966     1 3d1-  0.96409     2 2py  -0.52966     2 3d1-  0.96409     3 1s   -0.48508
                                    4 1s    0.48508     5 1s    0.48508     6 1s   -0.48508


 HOMO      8.1    -0.364419 =      -9.9164eV
 LUMO      9.1     0.172377 =       4.6906eV
 LUMO-HOMO         0.536796 =      14.6070eV


 **********************************************************************************************************************************
 DATASETS  * FILE   NREC   LENGTH (MB)   RECORD NAMES
              1      19       30.63       500      610      700      900      950      970     1000      129      960     1100   
                                          VAR    BASINP    GEOM    SYMINP    ZMAT    AOBASIS   BASIS     P2S    ABASIS      S 
                                         1400     1410     1200     1210     1080     1600     1650     1300     1700   
                                           T        V       H0       H01     AOSYM     SMH    MOLCAS    ERIS     OPER   

              2       4        2.86       700     1000      520     2100   
                                         GEOM     BASIS   MCVARS     RHF  

 PROGRAMS   *        TOTAL    HF-SCF       INT
 CPU TIMES  *         0.46      0.10      0.26
 REAL TIME  *         0.70 SEC
 DISK USED  *        35.45 MB
 **********************************************************************************************************************************


 PROGRAM * MULTI (Direct Multiconfiguration SCF)       Authors: P.J. Knowles, H.-J. Werner (1984)


 Number of closed-shell orbitals:   7 (   7 )
 Number of active  orbitals:        2 (   2 )
 Number of external orbitals:      27 (  27 )

 State symmetry 1

 Number of electrons:     2    Spin symmetry=Singlet   Space symmetry=1
 Number of states:        3
 Number of CSFs:          3   (4 determinants, 4 intermediate states)

 Molecular orbitals read from record     2100.2  Type=RHF/CANONICAL (state 1.1)

 EXTRA SYMMETRY OF MOS IN SYMMETRY 1:   1 1 1 1 1 1 1 2 2 1   1 1 1 1 1 1 2 1 2 1   1 1 1 1 1 1 2 3 3 1   1 1 1 2 1 1

 Wavefunction dump at record             2140.2

 Convergence thresholds  0.10E-01 (gradient)  0.10E-05 (energy)  0.10E-02 (step length)

 Weight factors for state symmetry  1:    0.33333   0.33333   0.33333

 Number of orbital rotations:      257   (    14 Core/Active    189 Core/Virtual   0 Active/Active     54 Active/Virtual)
 Total number of variables:        269

 Micro-Iterations solved by the two-step solver

 ITER. MIC  NCI  NEG     ENERGY(VAR)     ENERGY(PROJ)   ENERGY CHANGE     GRAD(0)  GRAD(ORB)   GRAD(CI)     STEP       TIME

   1    3    3    0     -77.73604207     -77.74192993   -0.00588786    0.12823292 0.00000133 0.00000000  0.61D-01      0.06
   2    2    3    0     -77.74184154     -77.74184480   -0.00000326    0.00283253 0.00000160 0.00000000  0.15D-02      0.09
   3    2    3    0     -77.74184480     -77.74184480   -0.00000000    0.00000186 0.00000000 0.00000000  0.11D-05      0.12

 ** WVFN ****  CONVERGENCE REACHED, FINAL GRADIENT:  0.93D-12



 Results for state 1.1
 =====================

 !MCSCF STATE  1.1 Energy             -78.047336119149
 Nuclear energy                        33.03926018
 Kinetic energy                        77.99490410
 One electron energy                 -169.52259835
 Two electron energy                   58.43600204
 Virial ratio                           2.00067225

 !MCSCF STATE  1.1 Dipole moment        0.00000000    -0.00000000     0.00000000
 Dipole moment /Debye                   0.00000000    -0.00000000     0.00000000

 Results for state 2.1
 =====================

 !MCSCF STATE  2.1 Energy             -77.677313626690
 Nuclear energy                        33.03926018
 Kinetic energy                        78.18133879
 One electron energy                 -168.99663098
 Two electron energy                   58.28005717
 Virial ratio                           1.99355313

 !MCSCF STATE  2.1 Dipole moment        0.00000000    -0.00000000     0.00000000
 Dipole moment /Debye                   0.00000000    -0.00000000     0.00000000

 Results for state 3.1
 =====================

 !MCSCF STATE  3.1 Energy             -77.500884653102
 Nuclear energy                        33.03926018
 Kinetic energy                        78.36777349
 One electron energy                 -168.47066360
 Two electron energy                   57.93051877
 Virial ratio                           1.98893820

 !MCSCF STATE  3.1 Dipole moment        0.00000000    -0.00000000     0.00000000
 Dipole moment /Debye                   0.00000000    -0.00000000     0.00000000

 State-averaged charge density matrix saved on record  2140.2 (density set 1)

 !MCSCF trans         <2.1|DMZ|1.1>    -1.511171721582 au =    -3.840763824138 Debye
 !MCSCF trans         <3.1|DMZ|2.1>    -2.317273897939 au =    -5.889536993523 Debye


 NATURAL ORBITALS (state averaged)
 =================================

  Orbital  Occupation    Energy     Coefficients
    1.1     2.00000   -11.24433     1 1s    0.70424     2 1s    0.70424
    2.1     2.00000   -11.24317     1 1s    0.70449     2 1s   -0.70449
    3.1     2.00000    -1.03212     1 1s    0.30980     2 1s    0.30980
    4.1     2.00000    -0.80515     1 1s    0.28274     2 1s   -0.28274
    5.1     2.00000    -0.64176     1 2py   0.32729     2 2py   0.32729
    6.1     2.00000    -0.60045     1 2pz   0.40735     2 2pz  -0.40735
    7.1     2.00000    -0.51093     1 2py   0.31193     2 2py  -0.31193
    8.1     1.00000     0.02870     1 2px   0.38052     1 2px   0.67475     2 2px  -0.38052     2 2px  -0.67475
    9.1     1.00000    -0.22133     1 2px   0.35592     1 2px   0.32363     2 2px   0.35592     2 2px   0.32363
   10.1    -0.00000     0.26685     1 1s   -1.51481     1 2pz  -0.67399     2 1s   -1.51481     2 2pz   0.67399     3 1s    1.06069
                                    4 1s    1.06069     5 1s    1.06069     6 1s    1.06069
   11.1    -0.00000     0.28623     1 2py  -0.78490     2 2py  -0.78490     3 1s    1.07728     4 1s   -1.07728     5 1s    1.07728
                                    6 1s   -1.07728
   12.1    -0.00000     0.30151     1 1s    1.91680     2 1s   -1.91680     3 1s   -1.05952     4 1s   -1.05952     5 1s    1.05952
                                    6 1s    1.05952
   13.1    -0.00000     0.38673     1 2py   0.25679     1 2py   1.78640     2 2py  -0.25679     2 2py  -1.78640     3 1s   -1.58726
                                    4 1s    1.58726     5 1s    1.58726     6 1s   -1.58726
   14.1    -0.00000     0.48680     1 1s   -2.76870     1 2pz   2.91310     2 1s    2.76870     2 2pz   2.91310     3 1s   -0.64853
                                    4 1s   -0.64853     5 1s    0.64853     6 1s    0.64853
   15.1    -0.00000     0.66847     1 1s    0.28279     1 2pz  -0.55889     1 2pz   1.01877     2 1s    0.28279     2 2pz   0.55889
                                    2 2pz  -1.01877
   16.1    -0.00000     0.73647     1 2py  -0.41425     1 2py   0.73635     2 2py  -0.41425     2 2py   0.73635     3 1s   -0.37652
                                    4 1s    0.37652     5 1s   -0.37652     6 1s    0.37652
   17.1    -0.00000     0.77564     1 2px  -0.75223     1 2px   0.63437     2 2px  -0.75223     2 2px   0.63437
   18.1    -0.00000     0.86721     1 1s   -0.88353     1 1s    1.56552     1 2pz   0.47825     2 1s   -0.88353     2 1s    1.56552
                                    2 2pz  -0.47825     3 1s   -0.39875     3 1s   -0.28295     4 1s   -0.39875     4 1s   -0.28295
                                    5 1s   -0.39875     5 1s   -0.28295     6 1s   -0.39875     6 1s   -0.28295
   19.1    -0.00000     0.86955     1 2px  -0.80109     1 2px   1.09435     2 2px   0.80109     2 2px  -1.09435
   20.1    -0.00000     0.91586     1 1s   -0.38274     1 2pz   0.61169     1 2pz  -0.81281     2 1s    0.38274     2 2pz   0.61169
                                    2 2pz  -0.81281     3 1s    0.37771     4 1s    0.37771     5 1s   -0.37771     6 1s   -0.37771
   21.1    -0.00000     1.10530     1 2py  -0.67465     1 2py   1.07601     2 2py  -0.67465     2 2py   1.07601     3 1s    0.38637
                                    3 1s   -1.06181     4 1s   -0.38637     4 1s    1.06181     5 1s    0.38637     5 1s   -1.06181
                                    6 1s   -0.38637     6 1s    1.06181
   22.1    -0.00000     1.14322     1 2py   0.91565     1 2py  -2.84793     2 2py  -0.91565     2 2py   2.84793     3 1s    1.48323
                                    4 1s   -1.48323     5 1s   -1.48323     6 1s    1.48323
   23.1    -0.00000     1.21830     1 1s    1.02392     1 1s   -1.71159     1 2pz   0.36780     1 2pz  -0.50694     2 1s    1.02392
                                    2 1s   -1.71159     2 2pz  -0.36780     2 2pz   0.50694     3 1s   -0.44831     3 1s    0.86782
                                    4 1s   -0.44831     4 1s    0.86782     5 1s   -0.44831     5 1s    0.86782     6 1s   -0.44831
                                    6 1s    0.86782
   24.1    -0.00000     1.22417     1 1s   -0.44225     1 1s    0.27605     1 2pz  -0.64521     1 2pz   1.29550     2 1s    0.44225
                                    2 1s   -0.27605     2 2pz  -0.64521     2 2pz   1.29550     3 1s    0.48027     3 1s   -0.93797
                                    4 1s    0.48027     4 1s   -0.93797     5 1s   -0.48027     5 1s    0.93797     6 1s   -0.48027
                                    6 1s    0.93797
   25.1    -0.00000     1.30514     1 1s   -1.61198     1 1s    5.17898     1 2pz  -1.71687     2 1s    1.61198     2 1s   -5.17898
                                    2 2pz  -1.71687     3 1s   -0.38711     4 1s   -0.38711     5 1s    0.38711     6 1s    0.38711
   26.1    -0.00000     1.41461     1 2py   2.36280     2 2py  -2.36280     3 1s   -0.67783     3 1s   -0.59100     4 1s    0.67783
                                    4 1s    0.59100     5 1s    0.67783     5 1s    0.59100     6 1s   -0.67783     6 1s   -0.59100
   27.1    -0.00000     1.70504     1 3d1+  0.62185     2 3d1+ -0.62185
   28.1    -0.00000     1.81734     1 3d2-  0.68329     2 3d2-  0.68329
   29.1    -0.00000     2.09761     1 3d2-  0.73361     2 3d2- -0.73361
   30.1    -0.00000     2.19437     1 1s   -0.62432     1 3d2+  0.71323     2 1s   -0.62432     2 3d2+  0.71323     3 1s    0.37679
                                    4 1s    0.37679     5 1s    0.37679     6 1s    0.37679
   31.1    -0.00000     2.31669     1 2py   0.28081     1 3d1-  0.69540     2 2py   0.28081     2 3d1- -0.69540     3 1s   -0.52276
                                    4 1s    0.52276     5 1s   -0.52276     6 1s    0.52276
   32.1    -0.00000     2.35268     1 1s   -0.48643     1 2pz   0.29584     1 2pz  -0.45450     1 3d0   0.68108     2 1s   -0.48643
                                    2 2pz  -0.29584     2 2pz   0.45450     2 3d0   0.68108
   33.1    -0.00000     2.57078     1 1s    0.28068     1 1s   -1.13283     1 3d2+  0.79046     2 1s   -0.28068     2 1s    1.13283
                                    2 3d2+ -0.79046     3 1s    0.43553     4 1s    0.43553     5 1s   -0.43553     6 1s   -0.43553
   34.1    -0.00000     2.65959     1 2px  -0.26155     1 3d1+  0.88932     2 2px   0.26155     2 3d1+  0.88932
   35.1    -0.00000     3.01915     1 1s    2.05834     1 2pz  -0.72061     1 2pz  -1.21642     1 3d0   1.09910     2 1s   -2.05834
                                    2 2pz  -0.72061     2 2pz  -1.21642     2 3d0  -1.09910
   36.1    -0.00000     3.06442     1 2py   0.52905     1 3d1-  0.96374     2 2py  -0.52905     2 3d1-  0.96374     3 1s   -0.48718
                                    4 1s    0.48718     5 1s    0.48718     6 1s   -0.48718


 Natural orbital dump (state averaged) at molpro section  2140.2    (Orbital set 2)



 **********************************************************************************************************************************
 DATASETS  * FILE   NREC   LENGTH (MB)   RECORD NAMES
              1      20       31.36       500      610      700      900      950      970     1000      129      960     1100   
                                          VAR    BASINP    GEOM    SYMINP    ZMAT    AOBASIS   BASIS     P2S    ABASIS      S 
                                         1400     1410     1200     1210     1080     1600     1650     1300     1700     1380   
                                           T        V       H0       H01     AOSYM     SMH    MOLCAS    ERIS     OPER     JKOP   

              2       5        5.42       700     1000      520     2100     2140   
                                         GEOM     BASIS   MCVARS     RHF     MCSCF   

 PROGRAMS   *        TOTAL     MULTI    HF-SCF       INT
 CPU TIMES  *         0.63      0.16      0.10      0.26
 REAL TIME  *         0.89 SEC
 DISK USED  *        38.54 MB
 **********************************************************************************************************************************
 Molecular orbitals read from record     2140.2  Type=MCSCF/NATURAL (state averaged)
 Occupation numbers read from record     2140.2  Type=MCSCF/NATURAL (state averaged)
 Orbital energies read from record       2140.2  Type=MCSCF/NATURAL (state averaged)
 Redundancy group numbers read from rec  2140.2  Type=MCSCF/NATURAL (state averaged)

 MULTI/6-31G* energy=    -77.500884653102

           MULTI          HF-SCF
    -77.50088465    -78.02829438
 **********************************************************************************************************************************
 Molpro calculation terminated
