
 Primary working directories    : /scratch.local/johan406.molpro_temp/molpro.WlcEHaz19F
 Secondary working directories  : /scratch.local/johan406.molpro_temp/molpro.WlcEHaz19F
 Wavefunction directory         : /home/goodpast/johan406/wfu/
 Main file repository           : /scratch.local/johan406.molpro_temp/molpro.WlcEHaz19F/

 id        : roweumn

 Nodes     nprocs
 cn0117       1

 Using customized tuning parameters: mindgm=1; mindgv=20; mindgc=4; mindgr=1; noblas=0; minvec=7
 default implementation of scratch files=df  


 Variables initialized (934), CPU time= 0.00 sec
                                                                                 !leave this line blank
 
 gprint, orbitals=30
 memory, 125., m
 symmetry, nosym
 nelect=16
 basis=6-31g*
 
 geometry={
 C 0.0 0.0 0.7111
 C 0.0 0.0 -0.7111
 H 0.0 0.8673 1.3636
 H -0.0 -0.8673 1.3636
 H 0.0 0.8673 -1.3636
 H 0.0 -0.8673 -1.3636
 }
 
 hf
 {multi,
 closed 7
 occ 9
 wf,spin=0;STATE,3
 }
 
 Commands  initialized (763), CPU time= 0.01 sec, 617 directives.
 Default parameters read. Elapsed time= 0.08 sec

 Checking input...
 Passed
1


                                         ***  PROGRAM SYSTEM MOLPRO  ***
                                       Copyright, TTI GmbH Stuttgart, 2015
                                    Version 2019.2 linked Oct 25 2019 22:50:27


 **********************************************************************************************************************************
 LABEL *                                                                                 
  64 bit serial version                                                                  DATE: 26-Jan-23          TIME: 20:18:15  
 **********************************************************************************************************************************

 SHA1:             8dbd9ae1082e4ce945b0f27595c9eb2d4aa09004
 **********************************************************************************************************************************


 Variable memory set to  125000000 words,  buffer space 

 SETTING NELECT         =        16.00000000                                  
 SETTING BASIS          =    6-31G*
 ZSYMEL=NOSYM


Geometry recognized as XYZ



 Recomputing integrals since basis changed


 Using spherical harmonics

 Library entry C      S 6-31G                selected for orbital group  1
 Library entry C      P 6-31G                selected for orbital group  1
 Library entry C      D 6-31G*               selected for orbital group  1
 Library entry H      S 6-31G                selected for orbital group  2


 PROGRAM * SEWARD (Integral evaluation for generally contracted gaussian basis sets)     Author: Roland Lindh, 1990

 Geometry written to block  1 of record 700


 Point group  C1  



 ATOMIC COORDINATES

 NR  ATOM    CHARGE       X              Y              Z

   1  C       6.00    0.000000000    0.000000000    1.343784247
   2  C       6.00    0.000000000    0.000000000   -1.343784247
   3  H       1.00    0.000000000    1.638959468    2.576830543
   4  H       1.00    0.000000000   -1.638959468    2.576830543
   5  H       1.00    0.000000000    1.638959468   -2.576830543
   6  H       1.00    0.000000000   -1.638959468   -2.576830543

 Bond lengths in Bohr (Angstrom)

 1-2  2.687568494  1-3  2.050997637  1-4  2.050997637  2-5  2.050997637  2-6  2.050997637
     ( 1.422200000)     ( 1.085341209)     ( 1.085341209)     ( 1.085341209)     ( 1.085341209)

 Bond angles

  1-2-5  126.95541840   1-2-6  126.95541840   2-1-3  126.95541840   2-1-4  126.95541840

  3-1-4  106.08916320   5-2-6  106.08916320

 NUCLEAR CHARGE:                   16
 NUMBER OF PRIMITIVE AOS:          72
 NUMBER OF SYMMETRY AOS:           70
 NUMBER OF CONTRACTIONS:           36   (   36A   )
 NUMBER OF CORE ORBITALS:           2   (    2A   )
 NUMBER OF VALENCE ORBITALS:       12   (   12A   )


 NUCLEAR REPULSION ENERGY   32.07015288

 EXTRA SYMMETRY OF AOS IN SYMMETRY 1:   1 1 1 2 1 1 2 1 1 1   3 2 1 1 1 1 1 2 1 1   2 1 1 1 3 2 1 1 1 1   1 1 1 1 1 1

 Eigenvalues of metric

         1 0.116E-01 0.241E-01 0.326E-01 0.399E-01 0.813E-01 0.219E+00 0.229E+00 0.256E+00


 Contracted 2-electron integrals neglected if value below      1.0D-11
 AO integral compression algorithm  1   Integral accuracy      1.0D-11

     0.786 MB (compressed) written to integral file ( 37.0%)


 NUMBER OF SORTED TWO-ELECTRON INTEGRALS:     222111.     BUFFER LENGTH:  32768
 NUMBER OF SEGMENTS:   1  SEGMENT LENGTH:     222111      RECORD LENGTH: 524288

 Memory used in sort:       0.78 MW

 SORT1 READ      284735. AND WROTE       98180. INTEGRALS IN      1 RECORDS. CPU TIME:     0.01 SEC, REAL TIME:     0.00 SEC
 SORT2 READ       98180. AND WROTE      222111. INTEGRALS IN      3 RECORDS. CPU TIME:     0.02 SEC, REAL TIME:     0.02 SEC

 FILE SIZES:   FILE 1:    30.9 MBYTE,  FILE 4:     4.2 MBYTE,   TOTAL:     35.1 MBYTE

 OPERATOR DM      FOR CENTER  0  COORDINATES:    0.000000    0.000000    0.000000


 **********************************************************************************************************************************
 DATASETS  * FILE   NREC   LENGTH (MB)   RECORD NAMES
              1      19       30.62       500      610      700      900      950      970     1000      129      960     1100   
                                          VAR    BASINP    GEOM    SYMINP    ZMAT    AOBASIS   BASIS     P2S    ABASIS      S 
                                         1400     1410     1200     1210     1080     1600     1650     1300     1700   
                                           T        V       H0       H01     AOSYM     SMH    MOLCAS    ERIS     OPER   

 PROGRAMS   *        TOTAL       INT
 CPU TIMES  *         0.35      0.25
 REAL TIME  *         0.56 SEC
 DISK USED  *        35.45 MB
 **********************************************************************************************************************************


 PROGRAM * RHF-SCF (CLOSED SHELL)       Authors: W. Meyer, H.-J. Werner


 NUMBER OF ELECTRONS:       8+    8-    SPACE SYMMETRY=1    SPIN SYMMETRY: Singlet 
 CONVERGENCE THRESHOLDS:    1.00E-05 (Density)    1.00E-07 (Energy)
 MAX. NUMBER OF ITERATIONS:       60
 INTERPOLATION TYPE:            DIIS
 INTERPOLATION STEPS:              2 (START)      1 (STEP)
 LEVEL SHIFTS:                  0.00 (CLOSED)  0.00 (OPEN) 



 Orbital guess generated from atomic densities. Full valence occupancy:    8

 Molecular orbital dump at record        2100.2

 Initial occupancy:   8

 ITERATION    DDIFF          GRAD             ENERGY        2-EL.EN.            DIPOLE MOMENTS         DIIS   ORB.
    1      0.000D+00      0.000D+00       -77.98889635    115.706974   -0.00000   -0.00000    0.00000    0    start
    2      0.000D+00      0.762D-02       -78.00830873    114.324181   -0.00000    0.00000    0.00000    1    diag
    3      0.753D-02      0.254D-02       -78.01003581    114.839401    0.00000   -0.00000   -0.00000    2    diag
    4      0.237D-02      0.681D-03       -78.01023090    114.731076    0.00000   -0.00000    0.00000    3    diag
    5      0.996D-03      0.688D-04       -78.01023302    114.734682    0.00000   -0.00000   -0.00000    4    diag
    6      0.132D-03      0.935D-05       -78.01023306    114.734232   -0.00000   -0.00000    0.00000    5    diag
    7      0.167D-04      0.150D-05       -78.01023306    114.734235   -0.00000    0.00000   -0.00000    6    diag
    8      0.270D-05      0.181D-06       -78.01023306    114.734229   -0.00000    0.00000    0.00000    0    orth

 Final occupancy:   8

 !RHF STATE  1.1 Energy               -78.010233062182
 Nuclear energy                        32.07015288
 One-electron energy                 -167.44750041
 Two-electron energy                   57.36711447
 Virial quotient                       -1.00385388
 !RHF STATE  1.1 Dipole moment         -0.00000000     0.00000000     0.00000000
 Dipole moment /Debye                  -0.00000000     0.00000000     0.00000000

 ELECTRON ORBITALS
 =================

  Orbital  Occupation    Energy     Coefficients
    1.1     2.00000   -11.24574     1 1s    0.70431     2 1s    0.70431
    2.1     2.00000   -11.24469     1 1s    0.70450     2 1s   -0.70450
    3.1     2.00000    -0.99990     1 1s    0.30084     1 1s    0.25003     2 1s    0.30084     2 1s    0.25003
    4.1     2.00000    -0.81236     2 1s   -0.24015
    5.1     2.00000    -0.60722     1 2py   0.32203     2 2py   0.32203
    6.1     2.00000    -0.59384     1 2pz   0.40010     2 2pz  -0.40010
    7.1     2.00000    -0.50014     1 2py   0.30660     2 2py  -0.30660
    8.1     2.00000    -0.35273     1 2px   0.36847     1 2px   0.32143     2 2px   0.36847     2 2px   0.32143
    9.1     0.00000     0.15616     1 2px   0.35039     1 2px   0.68286     2 2px  -0.35039     2 2px  -0.68286
   10.1     0.00000     0.27343     1 1s   -1.55389     1 2pz  -0.71639     2 1s   -1.55389     2 2pz   0.71639     3 1s    1.09733
                                    4 1s    1.09733     5 1s    1.09733     6 1s    1.09733
   11.1     0.00000     0.28791     1 1s    1.75859     2 1s   -1.75859     3 1s   -1.02998     4 1s   -1.02998     5 1s    1.02998
                                    6 1s    1.02998
   12.1     0.00000     0.28960     1 2py  -0.74861     2 2py  -0.74861     3 1s    1.03269     4 1s   -1.03269     5 1s    1.03269
                                    6 1s   -1.03269
   13.1     0.00000     0.38869     1 2py   0.27158     1 2py   1.59034     2 2py  -0.27158     2 2py  -1.59034     3 1s   -1.48994
                                    4 1s    1.48994     5 1s    1.48994     6 1s   -1.48994
   14.1     0.00000     0.48366     1 1s   -2.29705     1 2pz   2.84870     2 1s    2.29705     2 2pz   2.84870     3 1s   -0.75256
                                    4 1s   -0.75256     5 1s    0.75256     6 1s    0.75256
   15.1     0.00000     0.71169     1 1s    0.35244     1 2pz  -0.59215     1 2pz   1.02484     2 1s    0.35244     2 2pz   0.59215
                                    2 2pz  -1.02484
   16.1     0.00000     0.71476     1 2py  -0.42144     1 2py   0.63544     2 2py  -0.42144     2 2py   0.63544     3 1s   -0.36777
                                    4 1s    0.36777     5 1s   -0.36777     6 1s    0.36777
   17.1     0.00000     0.78947     1 2px  -0.75634     1 2px   0.64106     2 2px  -0.75634     2 2px   0.64106
   18.1     0.00000     0.87525     1 2px  -0.81014     1 2px   1.04528     2 2px   0.81014     2 2px  -1.04528
   19.1     0.00000     0.89004     1 2pz  -0.61742     1 2pz   1.42596     2 2pz  -0.61742     2 2pz   1.42596     3 1s   -0.36260
                                    3 1s   -0.26141     4 1s   -0.36260     4 1s   -0.26141     5 1s    0.36260     5 1s    0.26141
                                    6 1s    0.36260     6 1s    0.26141
   20.1     0.00000     0.89606     1 1s   -0.89372     1 1s    1.78481     1 2pz   0.74110     2 1s   -0.89372     2 1s    1.78481
                                    2 2pz  -0.74110     3 1s   -0.39936     3 1s   -0.40552     4 1s   -0.39936     4 1s   -0.40552
                                    5 1s   -0.39936     5 1s   -0.40552     6 1s   -0.39936     6 1s   -0.40552
   21.1     0.00000     1.12256     1 2py   0.67281     1 2py  -1.00208     2 2py   0.67281     2 2py  -1.00208     3 1s   -0.39781
                                    3 1s    1.02595     4 1s    0.39781     4 1s   -1.02595     5 1s   -0.39781     5 1s    1.02595
                                    6 1s    0.39781     6 1s   -1.02595
   22.1     0.00000     1.13763     1 2py   0.89789     1 2py  -2.57657     2 2py  -0.89789     2 2py   2.57657     3 1s    1.38379
                                    4 1s   -1.38379     5 1s   -1.38379     6 1s    1.38379
   23.1     0.00000     1.22642     1 1s    0.99679     1 1s   -1.64246     1 2pz   0.35361     1 2pz  -0.49255     2 1s    0.99679
                                    2 1s   -1.64246     2 2pz  -0.35361     2 2pz   0.49255     3 1s   -0.47048     3 1s    0.85363
                                    4 1s   -0.47048     4 1s    0.85363     5 1s   -0.47048     5 1s    0.85363     6 1s   -0.47048
                                    6 1s    0.85363
   24.1     0.00000     1.22970     1 1s   -0.48454     1 1s    0.55056     1 2pz  -0.63788     1 2pz   1.12066     2 1s    0.48454
                                    2 1s   -0.55056     2 2pz  -0.63788     2 2pz   1.12066     3 1s    0.49568     3 1s   -0.90319
                                    4 1s    0.49568     4 1s   -0.90319     5 1s   -0.49568     5 1s    0.90319     6 1s   -0.49568
                                    6 1s    0.90319
   25.1     0.00000     1.28603     1 1s   -1.57181     1 1s    4.55817     1 2pz  -1.41369     2 1s    1.57181     2 1s   -4.55817
                                    2 2pz  -1.41369     3 1s   -0.36523     4 1s   -0.36523     5 1s    0.36523     6 1s    0.36523
   26.1     0.00000     1.29084     1 2py   1.91717     2 2py  -1.91717     3 1s   -0.63646     3 1s   -0.38342     4 1s    0.63646
                                    4 1s    0.38342     5 1s    0.63646     5 1s    0.38342     6 1s   -0.63646     6 1s   -0.38342
   27.1     0.00000     1.70837     1 3d1+  0.63091     2 3d1+ -0.63091
   28.1     0.00000     1.85121     1 3d2-  0.68823     2 3d2-  0.68823
   29.1     0.00000     2.09868     1 3d2-  0.72763     2 3d2- -0.72763
   30.1     0.00000     2.21083     1 1s   -0.68775     1 2pz  -0.35920     1 3d2+  0.72115     2 1s   -0.68775     2 2pz   0.35920
                                    2 3d2+  0.72115     3 1s    0.38454     4 1s    0.38454     5 1s    0.38454     6 1s    0.38454
   31.1     0.00000     2.27408     1 1s   -0.44712     1 2pz   0.31713     1 2pz  -0.43974     1 3d0   0.67051     2 1s   -0.44712
                                    2 2pz  -0.31713     2 2pz   0.43974     2 3d0   0.67051
   32.1     0.00000     2.31700     1 2py   0.25407     1 3d1-  0.70776     2 2py   0.25407     2 3d1- -0.70776     3 1s   -0.51381
                                    4 1s    0.51381     5 1s   -0.51381     6 1s    0.51381
   33.1     0.00000     2.49608     1 1s   -0.64159     1 3d2+  0.77096     2 1s    0.64159     2 3d2+ -0.77096     3 1s    0.39820
                                    4 1s    0.39820     5 1s   -0.39820     6 1s   -0.39820
   34.1     0.00000     2.60940     1 2px  -0.25128     1 3d1+  0.85614     2 2px   0.25128     2 3d1+  0.85614
   35.1     0.00000     2.98222     1 1s    1.97637     1 2pz  -0.56157     1 2pz  -1.23393     1 3d0   1.05984     2 1s   -1.97637
                                    2 2pz  -0.56157     2 2pz  -1.23393     2 3d0  -1.05984
   36.1     0.00000     3.07040     1 2py   0.36877     1 3d1-  0.94218     2 2py  -0.36877     2 3d1-  0.94218     3 1s   -0.48068
                                    4 1s    0.48068     5 1s    0.48068     6 1s   -0.48068


 HOMO      8.1    -0.352732 =      -9.5983eV
 LUMO      9.1     0.156157 =       4.2492eV
 LUMO-HOMO         0.508888 =      13.8476eV


 **********************************************************************************************************************************
 DATASETS  * FILE   NREC   LENGTH (MB)   RECORD NAMES
              1      19       30.62       500      610      700      900      950      970     1000      129      960     1100   
                                          VAR    BASINP    GEOM    SYMINP    ZMAT    AOBASIS   BASIS     P2S    ABASIS      S 
                                         1400     1410     1200     1210     1080     1600     1650     1300     1700   
                                           T        V       H0       H01     AOSYM     SMH    MOLCAS    ERIS     OPER   

              2       4        2.86       700     1000      520     2100   
                                         GEOM     BASIS   MCVARS     RHF  

 PROGRAMS   *        TOTAL    HF-SCF       INT
 CPU TIMES  *         0.45      0.10      0.25
 REAL TIME  *         0.68 SEC
 DISK USED  *        35.45 MB
 **********************************************************************************************************************************


 PROGRAM * MULTI (Direct Multiconfiguration SCF)       Authors: P.J. Knowles, H.-J. Werner (1984)


 Number of closed-shell orbitals:   7 (   7 )
 Number of active  orbitals:        2 (   2 )
 Number of external orbitals:      27 (  27 )

 State symmetry 1

 Number of electrons:     2    Spin symmetry=Singlet   Space symmetry=1
 Number of states:        3
 Number of CSFs:          3   (4 determinants, 4 intermediate states)

 Molecular orbitals read from record     2100.2  Type=RHF/CANONICAL (state 1.1)

 EXTRA SYMMETRY OF MOS IN SYMMETRY 1:   1 1 1 1 1 1 1 2 2 1   1 1 1 1 1 1 2 2 1 1   1 1 1 1 1 1 2 3 3 1   1 1 1 2 1 1

 Wavefunction dump at record             2140.2

 Convergence thresholds  0.10E-01 (gradient)  0.10E-05 (energy)  0.10E-02 (step length)

 Weight factors for state symmetry  1:    0.33333   0.33333   0.33333

 Number of orbital rotations:      257   (    14 Core/Active    189 Core/Virtual   0 Active/Active     54 Active/Virtual)
 Total number of variables:        269

 Micro-Iterations solved by the two-step solver

 ITER. MIC  NCI  NEG     ENERGY(VAR)     ENERGY(PROJ)   ENERGY CHANGE     GRAD(0)  GRAD(ORB)   GRAD(CI)     STEP       TIME

   1    3    3    0     -77.74003982     -77.74510265   -0.00506282    0.11739947 0.00000091 0.00000000  0.57D-01      0.06
   2    2    3    0     -77.74503621     -77.74503845   -0.00000224    0.00234780 0.00000110 0.00000000  0.12D-02      0.09
   3    2    3    0     -77.74503845     -77.74503845   -0.00000000    0.00000128 0.00000000 0.00000000  0.76D-06      0.12

 ** WVFN ****  CONVERGENCE REACHED, FINAL GRADIENT:  0.43D-12



 Results for state 1.1
 =====================

 !MCSCF STATE  1.1 Energy             -78.033110843061
 Nuclear energy                        32.07015288
 Kinetic energy                        77.74566375
 One electron energy                 -167.51466136
 Two electron energy                   57.41139763
 Virial ratio                           2.00369727

 !MCSCF STATE  1.1 Dipole moment        0.00000000    -0.00000000     0.00000000
 Dipole moment /Debye                   0.00000000    -0.00000000     0.00000000

 Results for state 2.1
 =====================

 !MCSCF STATE  2.1 Energy             -77.677263899596
 Nuclear energy                        32.07015288
 Kinetic energy                        77.94512130
 One electron energy                 -167.10378400
 Two electron energy                   57.35636722
 Virial ratio                           1.99656351

 !MCSCF STATE  2.1 Dipole moment        0.00000000    -0.00000000     0.00000000
 Dipole moment /Debye                   0.00000000    -0.00000000     0.00000000

 Results for state 3.1
 =====================

 !MCSCF STATE  3.1 Energy             -77.524740608199
 Nuclear energy                        32.07015288
 Kinetic energy                        78.14457884
 One electron energy                 -166.69290664
 Two electron energy                   57.09801316
 Virial ratio                           1.99206806

 !MCSCF STATE  3.1 Dipole moment        0.00000000    -0.00000000    -0.00000000
 Dipole moment /Debye                   0.00000000    -0.00000000    -0.00000000

 State-averaged charge density matrix saved on record  2140.2 (density set 1)

 !MCSCF trans         <2.1|DMZ|1.1>    -1.507678477250 au =    -3.831885464210 Debye
 !MCSCF trans         <3.1|DMZ|2.1>    -2.436637220323 au =    -6.192908426429 Debye


 NATURAL ORBITALS (state averaged)
 =================================

  Orbital  Occupation    Energy     Coefficients
    1.1     2.00000   -11.25507     1 1s    0.70432     2 1s    0.70432
    2.1     2.00000   -11.25425     1 1s    0.70446     2 1s   -0.70446
    3.1     2.00000    -1.00881     1 1s    0.30815     2 1s    0.30815
    4.1     2.00000    -0.81710     1 1s    0.27204     2 1s   -0.27204
    5.1     2.00000    -0.61586     1 2py   0.32675     2 2py   0.32675
    6.1     2.00000    -0.60592     1 2pz   0.40233     2 2pz  -0.40233
    7.1     2.00000    -0.50379     1 2py   0.31181     2 2py  -0.31181
    8.1     1.00000     0.01572     1 2px   0.38197     1 2px   0.64453     2 2px  -0.38197     2 2px  -0.64453
    9.1     1.00000    -0.21175     1 2px   0.35118     1 2px   0.33445     2 2px   0.35118     2 2px   0.33445
   10.1    -0.00000     0.27257     1 1s   -1.55375     1 2pz  -0.72244     2 1s   -1.55375     2 2pz   0.72244     3 1s    1.09837
                                    4 1s    1.09837     5 1s    1.09837     6 1s    1.09837
   11.1    -0.00000     0.28256     1 2py  -0.74266     2 2py  -0.74266     3 1s    1.02694     4 1s   -1.02694     5 1s    1.02694
                                    6 1s   -1.02694
   12.1    -0.00000     0.28527     1 1s    1.78973     2 1s   -1.78973     3 1s   -1.01892     4 1s   -1.01892     5 1s    1.01892
                                    6 1s    1.01892
   13.1    -0.00000     0.38564     1 2py   0.27396     1 2py   1.58060     2 2py  -0.27396     2 2py  -1.58060     3 1s   -1.48485
                                    4 1s    1.48485     5 1s    1.48485     6 1s   -1.48485
   14.1    -0.00000     0.47762     1 1s   -2.24536     1 2pz   2.81144     2 1s    2.24536     2 2pz   2.81144     3 1s   -0.76577
                                    4 1s   -0.76577     5 1s    0.76577     6 1s    0.76577
   15.1    -0.00000     0.69823     1 1s    0.38239     1 2pz  -0.58097     1 2pz   0.99456     2 1s    0.38239     2 2pz   0.58097
                                    2 2pz  -0.99456
   16.1    -0.00000     0.70746     1 2py  -0.43222     1 2py   0.64160     2 2py  -0.43222     2 2py   0.64160     3 1s   -0.36316
                                    4 1s    0.36316     5 1s   -0.36316     6 1s    0.36316
   17.1    -0.00000     0.78510     1 2px  -0.76410     1 2px   0.63454     2 2px  -0.76410     2 2px   0.63454
   18.1    -0.00000     0.86121     1 2px  -0.79645     1 2px   1.06929     2 2px   0.79645     2 2px  -1.06929
   19.1    -0.00000     0.87869     1 1s   -0.32683     1 2pz  -0.61813     1 2pz   1.50876     2 1s    0.32683     2 2pz  -0.61813
                                    2 2pz   1.50876     3 1s   -0.36084     3 1s   -0.26457     4 1s   -0.36084     4 1s   -0.26457
                                    5 1s    0.36084     5 1s    0.26457     6 1s    0.36084     6 1s    0.26457
   20.1    -0.00000     0.89770     1 1s   -0.88503     1 1s    1.79671     1 2pz   0.77082     2 1s   -0.88503     2 1s    1.79671
                                    2 2pz  -0.77082     3 1s   -0.39824     3 1s   -0.41416     4 1s   -0.39824     4 1s   -0.41416
                                    5 1s   -0.39824     5 1s   -0.41416     6 1s   -0.39824     6 1s   -0.41416
   21.1    -0.00000     1.11135     1 2py   0.66249     1 2py  -1.00198     2 2py   0.66249     2 2py  -1.00198     3 1s   -0.39847
                                    3 1s    1.03283     4 1s    0.39847     4 1s   -1.03283     5 1s   -0.39847     5 1s    1.03283
                                    6 1s    0.39847     6 1s   -1.03283
   22.1    -0.00000     1.12852     1 2py   0.89520     1 2py  -2.58497     2 2py  -0.89520     2 2py   2.58497     3 1s    1.39116
                                    4 1s   -1.39116     5 1s   -1.39116     6 1s    1.39116
   23.1    -0.00000     1.22542     1 1s    0.99285     1 1s   -1.63952     1 2pz   0.35668     1 2pz  -0.49751     2 1s    0.99285
                                    2 1s   -1.63952     2 2pz  -0.35668     2 2pz   0.49751     3 1s   -0.47086     3 1s    0.85356
                                    4 1s   -0.47086     4 1s    0.85356     5 1s   -0.47086     5 1s    0.85356     6 1s   -0.47086
                                    6 1s    0.85356
   24.1    -0.00000     1.22877     1 1s   -0.31118     1 2pz  -0.65829     1 2pz   1.26505     2 1s    0.31118     2 2pz  -0.65829
                                    2 2pz   1.26505     3 1s    0.50699     3 1s   -0.85691     4 1s    0.50699     4 1s   -0.85691
                                    5 1s   -0.50699     5 1s    0.85691     6 1s   -0.50699     6 1s    0.85691
   25.1    -0.00000     1.27005     1 1s   -1.61519     1 1s    4.58764     1 2pz  -1.27077     2 1s    1.61519     2 1s   -4.58764
                                    2 2pz  -1.27077     3 1s   -0.46443     4 1s   -0.46443     5 1s    0.46443     6 1s    0.46443
   26.1    -0.00000     1.28479     1 2py   1.91283     2 2py  -1.91283     3 1s   -0.63617     3 1s   -0.38043     4 1s    0.63617
                                    4 1s    0.38043     5 1s    0.63617     5 1s    0.38043     6 1s   -0.63617     6 1s   -0.38043
   27.1    -0.00000     1.68840     1 3d1+  0.63077     2 3d1+ -0.63077
   28.1    -0.00000     1.84166     1 3d2-  0.68823     2 3d2-  0.68823
   29.1    -0.00000     2.08018     1 3d2-  0.72763     2 3d2- -0.72763
   30.1    -0.00000     2.20026     1 1s   -0.68488     1 2pz  -0.36228     1 3d2+  0.72070     2 1s   -0.68488     2 2pz   0.36228
                                    2 3d2+  0.72070     3 1s    0.38623     4 1s    0.38623     5 1s    0.38623     6 1s    0.38623
   31.1    -0.00000     2.25773     1 1s   -0.44418     1 2pz   0.32293     1 2pz  -0.44214     1 3d0   0.67032     2 1s   -0.44418
                                    2 2pz  -0.32293     2 2pz   0.44214     2 3d0   0.67032
   32.1    -0.00000     2.30366     1 2py   0.26055     1 3d1-  0.70616     2 2py   0.26055     2 3d1- -0.70616     3 1s   -0.51691
                                    4 1s    0.51691     5 1s   -0.51691     6 1s    0.51691
   33.1    -0.00000     2.48035     1 1s   -0.64559     1 3d2+  0.77030     2 1s    0.64559     2 3d2+ -0.77030     3 1s    0.40093
                                    4 1s    0.40093     5 1s   -0.40093     6 1s   -0.40093
   34.1    -0.00000     2.59028     1 2px  -0.25150     1 3d1+  0.85645     2 2px   0.25150     2 3d1+  0.85645
   35.1    -0.00000     2.96895     1 1s    1.99267     1 2pz  -0.55502     1 2pz  -1.24298     1 3d0   1.06082     2 1s   -1.99267
                                    2 2pz  -0.55502     2 2pz  -1.24298     2 3d0  -1.06082
   36.1    -0.00000     3.05955     1 2py   0.36704     1 3d1-  0.94191     2 2py  -0.36704     2 3d1-  0.94191     3 1s   -0.48239
                                    4 1s    0.48239     5 1s    0.48239     6 1s   -0.48239


 Natural orbital dump (state averaged) at molpro section  2140.2    (Orbital set 2)



 **********************************************************************************************************************************
 DATASETS  * FILE   NREC   LENGTH (MB)   RECORD NAMES
              1      20       31.35       500      610      700      900      950      970     1000      129      960     1100   
                                          VAR    BASINP    GEOM    SYMINP    ZMAT    AOBASIS   BASIS     P2S    ABASIS      S 
                                         1400     1410     1200     1210     1080     1600     1650     1300     1700     1380   
                                           T        V       H0       H01     AOSYM     SMH    MOLCAS    ERIS     OPER     JKOP   

              2       5        5.42       700     1000      520     2100     2140   
                                         GEOM     BASIS   MCVARS     RHF     MCSCF   

 PROGRAMS   *        TOTAL     MULTI    HF-SCF       INT
 CPU TIMES  *         0.62      0.16      0.10      0.25
 REAL TIME  *         0.88 SEC
 DISK USED  *        38.54 MB
 **********************************************************************************************************************************
 Molecular orbitals read from record     2140.2  Type=MCSCF/NATURAL (state averaged)
 Occupation numbers read from record     2140.2  Type=MCSCF/NATURAL (state averaged)
 Orbital energies read from record       2140.2  Type=MCSCF/NATURAL (state averaged)
 Redundancy group numbers read from rec  2140.2  Type=MCSCF/NATURAL (state averaged)

 MULTI/6-31G* energy=    -77.524740608199

           MULTI          HF-SCF
    -77.52474061    -78.01023306
 **********************************************************************************************************************************
 Molpro calculation terminated
