
 Primary working directories    : /scratch.local/johan406.molpro_temp/molpro.VGLm7Kx0Fr
 Secondary working directories  : /scratch.local/johan406.molpro_temp/molpro.VGLm7Kx0Fr
 Wavefunction directory         : /home/goodpast/johan406/wfu/
 Main file repository           : /scratch.local/johan406.molpro_temp/molpro.VGLm7Kx0Fr/

 id        : roweumn

 Nodes     nprocs
 cn0117       1

 Using customized tuning parameters: mindgm=1; mindgv=20; mindgc=4; mindgr=1; noblas=0; minvec=7
 default implementation of scratch files=df  


 Variables initialized (934), CPU time= 0.00 sec
                                                                                 !leave this line blank
 
 gprint, orbitals=30
 memory, 125., m
 symmetry, nosym
 nelect=16
 basis=6-31g*
 
 geometry={
 C 0.0348 0.0 0.6691
 C -0.0348 0.0 -0.6691
 H -0.1137 0.9149 1.2348
 H -0.1137 -0.9149 1.2348
 H 0.1137 0.9149 -1.2348
 H 0.1137 -0.9149 -1.2348
 }
 
 hf
 {multi,
 closed 7
 occ 9
 wf,spin=0;STATE,3
 }
 
 Commands  initialized (763), CPU time= 0.01 sec, 617 directives.
 Default parameters read. Elapsed time= 0.08 sec

 Checking input...
 Passed
1


                                         ***  PROGRAM SYSTEM MOLPRO  ***
                                       Copyright, TTI GmbH Stuttgart, 2015
                                    Version 2019.2 linked Oct 25 2019 22:50:27


 **********************************************************************************************************************************
 LABEL *                                                                                 
  64 bit serial version                                                                  DATE: 26-Jan-23          TIME: 19:27:49  
 **********************************************************************************************************************************

 SHA1:             8dbd9ae1082e4ce945b0f27595c9eb2d4aa09004
 **********************************************************************************************************************************


 Variable memory set to  125000000 words,  buffer space 

 SETTING NELECT         =        16.00000000                                  
 SETTING BASIS          =    6-31G*
 ZSYMEL=NOSYM


Geometry recognized as XYZ



 Recomputing integrals since basis changed


 Using spherical harmonics

 Library entry C      S 6-31G                selected for orbital group  1
 Library entry C      P 6-31G                selected for orbital group  1
 Library entry C      D 6-31G*               selected for orbital group  1
 Library entry H      S 6-31G                selected for orbital group  2


 PROGRAM * SEWARD (Integral evaluation for generally contracted gaussian basis sets)     Author: Roland Lindh, 1990

 Geometry written to block  1 of record 700


 Point group  C1  



 ATOMIC COORDINATES

 NR  ATOM    CHARGE       X              Y              Z

   1  C       6.00    0.065762469    0.000000000    1.264415750
   2  C       6.00   -0.065762469    0.000000000   -1.264415750
   3  H       1.00   -0.214861860    1.728910431    2.333433819
   4  H       1.00   -0.214861860   -1.728910431    2.333433819
   5  H       1.00    0.214861860    1.728910431   -2.333433819
   6  H       1.00    0.214861860   -1.728910431   -2.333433819

 Bond lengths in Bohr (Angstrom)

 1-2  2.532249507  1-3  2.051994377  1-4  2.051994377  2-5  2.051994377  2-6  2.051994377
     ( 1.340008731)     ( 1.085868661)     ( 1.085868661)     ( 1.085868661)     ( 1.085868661)

 Bond angles

  1-2-5  120.87448306   1-2-6  120.87448306   2-1-3  120.87448306   2-1-4  120.87448306

  3-1-4  114.82102851   5-2-6  114.82102851

 NUCLEAR CHARGE:                   16
 NUMBER OF PRIMITIVE AOS:          72
 NUMBER OF SYMMETRY AOS:           70
 NUMBER OF CONTRACTIONS:           36   (   36A   )
 NUMBER OF CORE ORBITALS:           2   (    2A   )
 NUMBER OF VALENCE ORBITALS:       12   (   12A   )


 NUCLEAR REPULSION ENERGY   33.26937982


 Eigenvalues of metric

         1 0.828E-02 0.215E-01 0.370E-01 0.475E-01 0.729E-01 0.193E+00 0.214E+00 0.220E+00


 Contracted 2-electron integrals neglected if value below      1.0D-11
 AO integral compression algorithm  1   Integral accuracy      1.0D-11

     1.311 MB (compressed) written to integral file ( 49.7%)


 NUMBER OF SORTED TWO-ELECTRON INTEGRALS:     222111.     BUFFER LENGTH:  32768
 NUMBER OF SEGMENTS:   1  SEGMENT LENGTH:     222111      RECORD LENGTH: 524288

 Memory used in sort:       0.78 MW

 SORT1 READ      284735. AND WROTE      177325. INTEGRALS IN      1 RECORDS. CPU TIME:     0.01 SEC, REAL TIME:     0.01 SEC
 SORT2 READ      177325. AND WROTE      222111. INTEGRALS IN      5 RECORDS. CPU TIME:     0.01 SEC, REAL TIME:     0.02 SEC

 FILE SIZES:   FILE 1:    31.4 MBYTE,  FILE 4:     4.2 MBYTE,   TOTAL:     35.6 MBYTE

 OPERATOR DM      FOR CENTER  0  COORDINATES:    0.000000    0.000000    0.000000


 **********************************************************************************************************************************
 DATASETS  * FILE   NREC   LENGTH (MB)   RECORD NAMES
              1      19       30.96       500      610      700      900      950      970     1000      129      960     1100   
                                          VAR    BASINP    GEOM    SYMINP    ZMAT    AOBASIS   BASIS     P2S    ABASIS      S 
                                         1400     1410     1200     1210     1080     1600     1650     1300     1700   
                                           T        V       H0       H01     AOSYM     SMH    MOLCAS    ERIS     OPER   

 PROGRAMS   *        TOTAL       INT
 CPU TIMES  *         0.35      0.25
 REAL TIME  *         0.56 SEC
 DISK USED  *        35.97 MB
 **********************************************************************************************************************************


 PROGRAM * RHF-SCF (CLOSED SHELL)       Authors: W. Meyer, H.-J. Werner


 NUMBER OF ELECTRONS:       8+    8-    SPACE SYMMETRY=1    SPIN SYMMETRY: Singlet 
 CONVERGENCE THRESHOLDS:    1.00E-05 (Density)    1.00E-07 (Energy)
 MAX. NUMBER OF ITERATIONS:       60
 INTERPOLATION TYPE:            DIIS
 INTERPOLATION STEPS:              2 (START)      1 (STEP)
 LEVEL SHIFTS:                  0.00 (CLOSED)  0.00 (OPEN) 



 Orbital guess generated from atomic densities. Full valence occupancy:    8

 Molecular orbital dump at record        2100.2

 Initial occupancy:   8

 ITERATION    DDIFF          GRAD             ENERGY        2-EL.EN.            DIPOLE MOMENTS         DIIS   ORB.
    1      0.000D+00      0.000D+00       -77.99997113    118.444915   -0.00000    0.00000   -0.00000    0    start
    2      0.000D+00      0.851D-02       -78.02172469    116.623995    0.00000    0.00000   -0.00000    1    diag
    3      0.811D-02      0.292D-02       -78.02387889    117.255220    0.00000    0.00000   -0.00000    2    diag
    4      0.268D-02      0.730D-03       -78.02410685    117.153343    0.00000    0.00000   -0.00000    3    diag
    5      0.113D-02      0.885D-04       -78.02411158    117.156608   -0.00000   -0.00000   -0.00000    4    diag
    6      0.211D-03      0.230D-04       -78.02411203    117.156028   -0.00000    0.00000   -0.00000    5    diag
    7      0.526D-04      0.830D-05       -78.02411210    117.156108    0.00000    0.00000   -0.00000    6    diag
    8      0.237D-04      0.103D-05       -78.02411210    117.156101    0.00000   -0.00000   -0.00000    7    diag
    9      0.204D-05      0.117D-06       -78.02411210    117.156106    0.00000    0.00000    0.00000    0    orth

 Final occupancy:   8

 !RHF STATE  1.1 Energy               -78.024112099348
 Nuclear energy                        33.26937982
 One-electron energy                 -169.87154471
 Two-electron energy                   58.57805279
 Virial quotient                       -1.00068023
 !RHF STATE  1.1 Dipole moment          0.00000000     0.00000000     0.00000000
 Dipole moment /Debye                   0.00000000     0.00000000     0.00000000

 ELECTRON ORBITALS
 =================

  Orbital  Occupation    Energy     Coefficients
    1.1     2.00000   -11.22870     1 1s    0.70420     2 1s    0.70420
    2.1     2.00000   -11.22713     1 1s    0.70455     2 1s   -0.70455
    3.1     2.00000    -1.02717     1 1s    0.30173     2 1s    0.30173
    4.1     2.00000    -0.78969     1 1s    0.24619
    5.1     2.00000    -0.63372     1 2py   0.32076     2 2py   0.32076
    6.1     2.00000    -0.58008     1 2pz   0.40592     2 2pz  -0.40592
    7.1     2.00000    -0.49956     1 2py   0.30400     2 2py  -0.30400
    8.1     2.00000    -0.37167     1 2px   0.37037     1 2px   0.30655     2 2px   0.37037     2 2px   0.30655
    9.1     0.00000     0.16878     1 2px   0.33575     1 2px   0.68844     2 2px  -0.33575     2 2px  -0.68844
   10.1     0.00000     0.26655     1 1s   -1.45758     1 2px   0.31384     1 2pz  -0.63680     2 1s   -1.45758     2 2px  -0.31384
                                    2 2pz   0.63680     3 1s    1.03220     4 1s    1.03220     5 1s    1.03220     6 1s    1.03220
   11.1     0.00000     0.29234     1 2py  -0.25391     1 2py  -0.79471     2 2py  -0.25391     2 2py  -0.79471     3 1s    1.08278
                                    4 1s   -1.08278     5 1s    1.08278     6 1s   -1.08278
   12.1     0.00000     0.30592     1 1s    1.92028     2 1s   -1.92028     3 1s   -1.06607     4 1s   -1.06607     5 1s    1.06607
                                    6 1s    1.06607
   13.1     0.00000     0.38523     1 2py  -1.80348     2 2py   1.80348     3 1s    1.55346     4 1s   -1.55346     5 1s   -1.55346
                                    6 1s    1.55346
   14.1     0.00000     0.48813     1 1s   -2.98521     1 2pz   2.89420     2 1s    2.98521     2 2pz   2.89420     3 1s   -0.55254
                                    4 1s   -0.55254     5 1s    0.55254     6 1s    0.55254
   15.1     0.00000     0.66908     1 2pz  -0.55820     1 2pz   1.03064     2 2pz   0.55820     2 2pz  -1.03064
   16.1     0.00000     0.76369     1 2py  -0.40185     1 2py   0.75375     2 2py  -0.40185     2 2py   0.75375     3 1s   -0.38859
                                    4 1s    0.38859     5 1s   -0.38859     6 1s    0.38859
   17.1     0.00000     0.78023     1 2px  -0.73723     1 2px   0.64390     2 2px  -0.73723     2 2px   0.64390
   18.1     0.00000     0.88491     1 1s   -0.71942     1 1s    1.13667     1 2px  -0.55168     1 2px   0.54824     1 2pz   0.25050
                                    2 1s   -0.71942     2 1s    1.13667     2 2px   0.55168     2 2px  -0.54824     2 2pz  -0.25050
                                    3 1s   -0.28359     4 1s   -0.28359     5 1s   -0.28359     6 1s   -0.28359
   19.1     0.00000     0.89033     1 1s   -0.54582     1 1s    0.98400     1 2px   0.59932     1 2px  -0.96036     1 2pz   0.27056
                                    2 1s   -0.54582     2 1s    0.98400     2 2px  -0.59932     2 2px   0.96036     2 2pz  -0.27056
                                    3 1s   -0.28563     4 1s   -0.28563     5 1s   -0.28563     6 1s   -0.28563
   20.1     0.00000     0.96390     1 1s   -0.78224     1 2pz   0.61669     1 2pz  -0.49723     2 1s    0.78224     2 2pz   0.61669
                                    2 2pz  -0.49723     3 1s    0.38013     4 1s    0.38013     5 1s   -0.38013     6 1s   -0.38013
   21.1     0.00000     1.09513     1 2py  -0.87192     1 2py   2.99562     2 2py   0.87192     2 2py  -2.99562     3 1s   -1.33792
                                    4 1s    1.33792     5 1s    1.33792     6 1s   -1.33792
   22.1     0.00000     1.10830     1 2py  -0.68675     1 2py   1.09230     2 2py  -0.68675     2 2py   1.09230     3 1s    0.38315
                                    3 1s   -1.05743     4 1s   -0.38315     4 1s    1.05743     5 1s    0.38315     5 1s   -1.05743
                                    6 1s   -0.38315     6 1s    1.05743
   23.1     0.00000     1.20941     1 1s    1.02995     1 1s   -1.71584     1 2pz   0.36296     1 2pz  -0.49341     2 1s    1.02995
                                    2 1s   -1.71584     2 2pz  -0.36296     2 2pz   0.49341     3 1s   -0.44001     3 1s    0.86537
                                    4 1s   -0.44001     4 1s    0.86537     5 1s   -0.44001     5 1s    0.86537     6 1s   -0.44001
                                    6 1s    0.86537
   24.1     0.00000     1.21016     1 1s   -0.53036     1 1s    0.52097     1 2pz  -0.61545     1 2pz   1.20925     2 1s    0.53036
                                    2 1s   -0.52097     2 2pz  -0.61545     2 2pz   1.20925     3 1s    0.46713     3 1s   -0.96546
                                    4 1s    0.46713     4 1s   -0.96546     5 1s   -0.46713     5 1s    0.96546     6 1s   -0.46713
                                    6 1s    0.96546
   25.1     0.00000     1.33563     1 2py   1.08169     2 2py  -1.08169     3 1s   -0.65125     4 1s    0.65125     5 1s    0.65125
                                    6 1s   -0.65125
   26.1     0.00000     1.34088     1 1s   -1.59330     1 1s    5.40509     1 2pz   0.25207     1 2pz  -1.91465     2 1s    1.59330
                                    2 1s   -5.40509     2 2pz   0.25207     2 2pz  -1.91465     3 1s   -0.33136     4 1s   -0.33136
                                    5 1s    0.33136     6 1s    0.33136
   27.1     0.00000     1.74916     1 1s   -0.35022     1 3d1+  0.61338     2 1s    0.35022     2 3d1+ -0.61338
   28.1     0.00000     1.96682     1 2py  -1.29611     1 3d2-  0.66568     2 2py   1.29611     2 3d2-  0.66568     3 1s    0.27437
                                    3 1s    0.44491     4 1s   -0.27437     4 1s   -0.44491     5 1s   -0.27437     5 1s   -0.44491
                                    6 1s    0.27437     6 1s    0.44491
   29.1     0.00000     2.05295     1 3d2-  0.59840     1 3d1-  0.36150     2 3d2- -0.59840     2 3d1- -0.36150
   30.1     0.00000     2.17334     1 1s   -0.63441     1 3d2+  0.70217     2 1s   -0.63441     2 3d2+  0.70217     3 1s    0.35572
                                    4 1s    0.35572     5 1s    0.35572     6 1s    0.35572
   31.1     0.00000     2.40727     1 1s   -0.50527     1 2pz   0.28465     1 2pz  -0.44034     1 3d0   0.69423     2 1s   -0.50527
                                    2 2pz  -0.28465     2 2pz   0.44034     2 3d0   0.69423
   32.1     0.00000     2.40889     1 3d2- -0.44071     1 3d1-  0.58501     2 3d2-  0.44071     2 3d1- -0.58501     3 1s   -0.47324
                                    4 1s    0.47324     5 1s   -0.47324     6 1s    0.47324
   33.1     0.00000     2.58686     1 1s    0.30706     1 1s   -1.44633     1 2pz   0.31961     1 3d2+  0.78651     2 1s   -0.30706
                                    2 1s    1.44633     2 2pz   0.31961     2 3d2+ -0.78651     3 1s    0.43260     4 1s    0.43260
                                    5 1s   -0.43260     6 1s   -0.43260
   34.1     0.00000     2.71731     1 3d1+  0.89471     2 3d1+  0.89471
   35.1     0.00000     3.01340     1 2py   0.39781     1 3d1-  0.95741     2 2py  -0.39781     2 3d1-  0.95741     3 1s   -0.44877
                                    4 1s    0.44877     5 1s    0.44877     6 1s   -0.44877
   36.1     0.00000     3.06026     1 1s    0.31494     1 1s    1.98972     1 2pz  -0.79253     1 2pz  -1.15931     1 3d0   1.10567
                                    2 1s   -0.31494     2 1s   -1.98972     2 2pz  -0.79253     2 2pz  -1.15931     2 3d0  -1.10567


 HOMO      8.1    -0.371670 =     -10.1137eV
 LUMO      9.1     0.168778 =       4.5927eV
 LUMO-HOMO         0.540448 =      14.7063eV


 **********************************************************************************************************************************
 DATASETS  * FILE   NREC   LENGTH (MB)   RECORD NAMES
              1      19       30.96       500      610      700      900      950      970     1000      129      960     1100   
                                          VAR    BASINP    GEOM    SYMINP    ZMAT    AOBASIS   BASIS     P2S    ABASIS      S 
                                         1400     1410     1200     1210     1080     1600     1650     1300     1700   
                                           T        V       H0       H01     AOSYM     SMH    MOLCAS    ERIS     OPER   

              2       4        2.86       700     1000      520     2100   
                                         GEOM     BASIS   MCVARS     RHF  

 PROGRAMS   *        TOTAL    HF-SCF       INT
 CPU TIMES  *         0.46      0.11      0.25
 REAL TIME  *         0.69 SEC
 DISK USED  *        35.97 MB
 **********************************************************************************************************************************


 PROGRAM * MULTI (Direct Multiconfiguration SCF)       Authors: P.J. Knowles, H.-J. Werner (1984)


 Number of closed-shell orbitals:   7 (   7 )
 Number of active  orbitals:        2 (   2 )
 Number of external orbitals:      27 (  27 )

 State symmetry 1

 Number of electrons:     2    Spin symmetry=Singlet   Space symmetry=1
 Number of states:        3
 Number of CSFs:          3   (4 determinants, 4 intermediate states)

 Molecular orbitals read from record     2100.2  Type=RHF/CANONICAL (state 1.1)

 Wavefunction dump at record             2140.2

 Convergence thresholds  0.10E-01 (gradient)  0.10E-05 (energy)  0.10E-02 (step length)

 Weight factors for state symmetry  1:    0.33333   0.33333   0.33333

 Number of orbital rotations:      257   (    14 Core/Active    189 Core/Virtual   0 Active/Active     54 Active/Virtual)
 Total number of variables:        269

 Micro-Iterations solved by the two-step solver

 ITER. MIC  NCI  NEG     ENERGY(VAR)     ENERGY(PROJ)   ENERGY CHANGE     GRAD(0)  GRAD(ORB)   GRAD(CI)     STEP       TIME

   1    5    4    0     -77.72697984     -77.73377639   -0.00679654    0.13467913 0.00048191 0.00000000  0.78D-01      0.09
   2    4    4    0     -77.73366009     -77.73366551   -0.00000543    0.00333927 0.00000003 0.00000000  0.35D-02      0.15
   3    2    3    0     -77.73366552     -77.73366552   -0.00000000    0.00000404 0.00000000 0.00000000  0.95D-05      0.20

 ** WVFN ****  CONVERGENCE REACHED, FINAL GRADIENT:  0.35D-10



 Results for state 1.1
 =====================

 !MCSCF STATE  1.1 Energy             -78.042161630433
 Nuclear energy                        33.26937982
 Kinetic energy                        78.04330296
 One electron energy                 -170.00497805
 Two electron energy                   58.69343660
 Virial ratio                           1.99998538

 !MCSCF STATE  1.1 Dipole moment        0.00000000     0.00000000    -0.00000000
 Dipole moment /Debye                   0.00000000     0.00000000    -0.00000000

 Results for state 2.1
 =====================

 !MCSCF STATE  2.1 Energy             -77.670397172953
 Nuclear energy                        33.26937982
 Kinetic energy                        78.21895351
 One electron energy                 -169.42836761
 Two electron energy                   58.48859062
 Virial ratio                           1.99298691

 !MCSCF STATE  2.1 Dipole moment        0.00000000     0.00000000    -0.00000000
 Dipole moment /Debye                   0.00000000     0.00000000    -0.00000000

 Results for state 3.1
 =====================

 !MCSCF STATE  3.1 Energy             -77.488437754686
 Nuclear energy                        33.26937982
 Kinetic energy                        78.39460405
 One electron energy                 -168.85175717
 Two electron energy                   58.09393960
 Virial ratio                           1.98844096

 !MCSCF STATE  3.1 Dipole moment       -0.00000000     0.00000000     0.00000000
 Dipole moment /Debye                  -0.00000000     0.00000000     0.00000000

 State-averaged charge density matrix saved on record  2140.2 (density set 1)

 !MCSCF trans         <2.1|DMX|1.1>    -0.262872643598 au =    -0.668111853517 Debye
 !MCSCF trans         <3.1|DMX|2.1>    -0.399778322923 au =    -1.016068589974 Debye

 !MCSCF trans         <2.1|DMZ|1.1>    -1.493286604645 au =    -3.795307368633 Debye
 !MCSCF trans         <3.1|DMZ|2.1>    -2.270999394520 au =    -5.771926641125 Debye


 NATURAL ORBITALS (state averaged)
 =================================

  Orbital  Occupation    Energy     Coefficients
    1.1     2.00000   -11.24488     1 1s    0.70421     2 1s    0.70421
    2.1     2.00000   -11.24356     1 1s    0.70451     2 1s   -0.70451
    3.1     2.00000    -1.04251     1 1s    0.30969     2 1s    0.30969
    4.1     2.00000    -0.79798     1 1s    0.29178     2 1s   -0.29178
    5.1     2.00000    -0.64700     1 2py   0.32649     2 2py   0.32649
    6.1     2.00000    -0.59556     1 2pz   0.40731     2 2pz  -0.40731
    7.1     2.00000    -0.50655     1 2py   0.31076     2 2py  -0.31076
    8.1     1.00000     0.02546     1 2px   0.37422     1 2px   0.65793     2 2px  -0.37422     2 2px  -0.65793
    9.1     1.00000    -0.22873     1 2px   0.35583     1 2px   0.31947     2 2px   0.35583     2 2px   0.31947
   10.1    -0.00000     0.26298     1 1s   -1.46293     1 2px   0.28116     1 2pz  -0.64640     2 1s   -1.46293     2 2px  -0.28116
                                    2 2pz   0.64640     3 1s    1.03536     4 1s    1.03536     5 1s    1.03536     6 1s    1.03536
   11.1    -0.00000     0.28318     1 2py  -0.25242     1 2py  -0.78495     2 2py  -0.25242     2 2py  -0.78495     3 1s    1.07410
                                    4 1s   -1.07410     5 1s    1.07410     6 1s   -1.07410
   12.1    -0.00000     0.30215     1 1s    1.93633     2 1s   -1.93633     3 1s   -1.06150     4 1s   -1.06150     5 1s    1.06150
                                    6 1s    1.06150
   13.1    -0.00000     0.38058     1 2py  -1.78879     2 2py   1.78879     3 1s    1.54687     4 1s   -1.54687     5 1s   -1.54687
                                    6 1s    1.54687
   14.1    -0.00000     0.48546     1 1s   -2.96765     1 2pz   2.87613     2 1s    2.96765     2 2pz   2.87613     3 1s   -0.55921
                                    4 1s   -0.55921     5 1s    0.55921     6 1s    0.55921
   15.1    -0.00000     0.65725     1 1s    0.26151     1 2pz  -0.54910     1 2pz   1.00849     2 1s    0.26151     2 2pz   0.54910
                                    2 2pz  -1.00849
   16.1    -0.00000     0.75305     1 2py  -0.41315     1 2py   0.76144     2 2py  -0.41315     2 2py   0.76144     3 1s   -0.38369
                                    4 1s    0.38369     5 1s   -0.38369     6 1s    0.38369
   17.1    -0.00000     0.77335     1 2px  -0.74452     1 2px   0.64049     2 2px  -0.74452     2 2px   0.64049
   18.1    -0.00000     0.87041     1 2px  -0.79228     1 2px   1.06359     2 2px   0.79228     2 2px  -1.06359
   19.1    -0.00000     0.88375     1 1s   -0.87460     1 1s    1.50615     1 2px  -0.39427     1 2pz   0.40956     2 1s   -0.87460
                                    2 1s    1.50615     2 2px   0.39427     2 2pz  -0.40956     3 1s   -0.40131     3 1s   -0.26651
                                    4 1s   -0.40131     4 1s   -0.26651     5 1s   -0.40131     5 1s   -0.26651     6 1s   -0.40131
                                    6 1s   -0.26651
   20.1    -0.00000     0.94477     1 1s   -0.62317     1 2pz   0.62091     1 2pz  -0.57904     2 1s    0.62317     2 2pz   0.62091
                                    2 2pz  -0.57904     3 1s    0.38025     4 1s    0.38025     5 1s   -0.38025     6 1s   -0.38025
   21.1    -0.00000     1.08373     1 2py  -0.87211     1 2py   2.99221     2 2py   0.87211     2 2py  -2.99221     3 1s   -1.34663
                                    4 1s    1.34663     5 1s    1.34663     6 1s   -1.34663
   22.1    -0.00000     1.09279     1 2py  -0.67501     1 2py   1.09372     2 2py  -0.67501     2 2py   1.09372     3 1s    0.38411
                                    3 1s   -1.06655     4 1s   -0.38411     4 1s    1.06655     5 1s    0.38411     5 1s   -1.06655
                                    6 1s   -0.38411     6 1s    1.06655
   23.1    -0.00000     1.20554     1 1s    1.02496     1 1s   -1.71220     1 2pz   0.36663     1 2pz  -0.49898     2 1s    1.02496
                                    2 1s   -1.71220     2 2pz  -0.36663     2 2pz   0.49898     3 1s   -0.44085     3 1s    0.86519
                                    4 1s   -0.44085     4 1s    0.86519     5 1s   -0.44085     5 1s    0.86519     6 1s   -0.44085
                                    6 1s    0.86519
   24.1    -0.00000     1.20697     1 1s   -0.47604     1 1s    0.34126     1 2pz  -0.62769     1 2pz   1.27764     2 1s    0.47604
                                    2 1s   -0.34126     2 2pz  -0.62769     2 2pz   1.27764     3 1s    0.46903     3 1s   -0.95464
                                    4 1s    0.46903     4 1s   -0.95464     5 1s   -0.46903     5 1s    0.95464     6 1s   -0.46903
                                    6 1s    0.95464
   25.1    -0.00000     1.32070     1 1s   -1.61241     1 1s    5.43121     1 2pz  -1.87030     2 1s    1.61241     2 1s   -5.43121
                                    2 2pz  -1.87030     3 1s   -0.36594     4 1s   -0.36594     5 1s    0.36594     6 1s    0.36594
   26.1    -0.00000     1.32768     1 2py   1.10782     2 2py  -1.10782     3 1s   -0.65018     4 1s    0.65018     5 1s    0.65018
                                    6 1s   -0.65018
   27.1    -0.00000     1.72379     1 1s   -0.35600     1 3d1+  0.61268     2 1s    0.35600     2 3d1+ -0.61268
   28.1    -0.00000     1.95187     1 2py  -1.30083     1 3d2-  0.66539     2 2py   1.30083     2 3d2-  0.66539     3 1s    0.27549
                                    3 1s    0.44606     4 1s   -0.27549     4 1s   -0.44606     5 1s   -0.27549     5 1s   -0.44606
                                    6 1s    0.27549     6 1s    0.44606
   29.1    -0.00000     2.03195     1 3d2-  0.60241     1 3d1-  0.35516     2 3d2- -0.60241     2 3d1- -0.35516
   30.1    -0.00000     2.15718     1 1s   -0.63010     1 3d2+  0.70140     2 1s   -0.63010     2 3d2+  0.70140     3 1s    0.35727
                                    4 1s    0.35727     5 1s    0.35727     6 1s    0.35727
   31.1    -0.00000     2.38698     1 1s   -0.50315     1 2pz   0.29058     1 2pz  -0.44296     1 3d0   0.69411     2 1s   -0.50315
                                    2 2pz  -0.29058     2 2pz   0.44296     2 3d0   0.69411
   32.1    -0.00000     2.39010     1 3d2- -0.43518     1 3d1-  0.58684     2 3d2-  0.43518     2 3d1- -0.58684     3 1s   -0.47792
                                    4 1s    0.47792     5 1s   -0.47792     6 1s    0.47792
   33.1    -0.00000     2.56707     1 1s    0.30815     1 1s   -1.45554     1 2pz   0.32013     1 3d2+  0.78564     2 1s   -0.30815
                                    2 1s    1.45554     2 2pz   0.32013     2 3d2+ -0.78564     3 1s    0.43582     4 1s    0.43582
                                    5 1s   -0.43582     6 1s   -0.43582
   34.1    -0.00000     2.69488     1 3d1+  0.89472     2 3d1+  0.89472
   35.1    -0.00000     3.00017     1 2py   0.39690     1 3d1-  0.95714     2 2py  -0.39690     2 3d1-  0.95714     3 1s   -0.45090
                                    4 1s    0.45090     5 1s    0.45090     6 1s   -0.45090
   36.1    -0.00000     3.04214     1 1s    0.30804     1 1s    2.01438     1 2pz  -0.78494     1 2pz  -1.17267     1 3d0   1.10732
                                    2 1s   -0.30804     2 1s   -2.01438     2 2pz  -0.78494     2 2pz  -1.17267     2 3d0  -1.10732


 Natural orbital dump (state averaged) at molpro section  2140.2    (Orbital set 2)



 **********************************************************************************************************************************
 DATASETS  * FILE   NREC   LENGTH (MB)   RECORD NAMES
              1      20       31.69       500      610      700      900      950      970     1000      129      960     1100   
                                          VAR    BASINP    GEOM    SYMINP    ZMAT    AOBASIS   BASIS     P2S    ABASIS      S 
                                         1400     1410     1200     1210     1080     1600     1650     1300     1700     1380   
                                           T        V       H0       H01     AOSYM     SMH    MOLCAS    ERIS     OPER     JKOP   

              2       5        5.42       700     1000      520     2100     2140   
                                         GEOM     BASIS   MCVARS     RHF     MCSCF   

 PROGRAMS   *        TOTAL     MULTI    HF-SCF       INT
 CPU TIMES  *         0.71      0.25      0.11      0.25
 REAL TIME  *         0.98 SEC
 DISK USED  *        38.88 MB
 **********************************************************************************************************************************
 Molecular orbitals read from record     2140.2  Type=MCSCF/NATURAL (state averaged)
 Occupation numbers read from record     2140.2  Type=MCSCF/NATURAL (state averaged)
 Orbital energies read from record       2140.2  Type=MCSCF/NATURAL (state averaged)
 Redundancy group numbers read from rec  2140.2  Type=MCSCF/NATURAL (state averaged)

 MULTI/6-31G* energy=    -77.488437754686

           MULTI          HF-SCF
    -77.48843775    -78.02411210
 **********************************************************************************************************************************
 Molpro calculation terminated
