
 Primary working directories    : /scratch.local/johan406.molpro_temp/molpro.i3rQ6W1HUt
 Secondary working directories  : /scratch.local/johan406.molpro_temp/molpro.i3rQ6W1HUt
 Wavefunction directory         : /home/goodpast/johan406/wfu/
 Main file repository           : /scratch.local/johan406.molpro_temp/molpro.i3rQ6W1HUt/

 id        : roweumn

 Nodes     nprocs
 cn0117       1

 Using customized tuning parameters: mindgm=1; mindgv=20; mindgc=4; mindgr=1; noblas=0; minvec=7
 default implementation of scratch files=df  


 Variables initialized (934), CPU time= 0.01 sec
                                                                                 !leave this line blank
 
 gprint, orbitals=30
 memory, 125., m
 symmetry, nosym
 nelect=16
 basis=6-31g*
 
 geometry={
 C 0.0 0.0 0.7243
 C 0.0 0.0 -0.7243
 H 0.0 0.8523 1.4041
 H -0.0 -0.8523 1.4041
 H 0.0 0.8523 -1.4041
 H 0.0 -0.8523 -1.4041
 }
 
 hf
 {multi,
 closed 7
 occ 9
 wf,spin=0;STATE,3
 }
 
 Commands  initialized (763), CPU time= 0.01 sec, 617 directives.
 Default parameters read. Elapsed time= 0.08 sec

 Checking input...
 Passed
1


                                         ***  PROGRAM SYSTEM MOLPRO  ***
                                       Copyright, TTI GmbH Stuttgart, 2015
                                    Version 2019.2 linked Oct 25 2019 22:50:27


 **********************************************************************************************************************************
 LABEL *                                                                                 
  64 bit serial version                                                                  DATE: 26-Jan-23          TIME: 20:20:22  
 **********************************************************************************************************************************

 SHA1:             8dbd9ae1082e4ce945b0f27595c9eb2d4aa09004
 **********************************************************************************************************************************


 Variable memory set to  125000000 words,  buffer space 

 SETTING NELECT         =        16.00000000                                  
 SETTING BASIS          =    6-31G*
 ZSYMEL=NOSYM


Geometry recognized as XYZ



 Recomputing integrals since basis changed


 Using spherical harmonics

 Library entry C      S 6-31G                selected for orbital group  1
 Library entry C      P 6-31G                selected for orbital group  1
 Library entry C      D 6-31G*               selected for orbital group  1
 Library entry H      S 6-31G                selected for orbital group  2


 PROGRAM * SEWARD (Integral evaluation for generally contracted gaussian basis sets)     Author: Roland Lindh, 1990

 Geometry written to block  1 of record 700


 Point group  C1  



 ATOMIC COORDINATES

 NR  ATOM    CHARGE       X              Y              Z

   1  C       6.00    0.000000000    0.000000000    1.368728632
   2  C       6.00    0.000000000    0.000000000   -1.368728632
   3  H       1.00    0.000000000    1.610613576    2.653364452
   4  H       1.00    0.000000000   -1.610613576    2.653364452
   5  H       1.00    0.000000000    1.610613576   -2.653364452
   6  H       1.00    0.000000000   -1.610613576   -2.653364452

 Bond lengths in Bohr (Angstrom)

 1-2  2.737457264  1-3  2.060185739  1-4  2.060185739  2-5  2.060185739  2-6  2.060185739
     ( 1.448600000)     ( 1.090203343)     ( 1.090203343)     ( 1.090203343)     ( 1.090203343)

 Bond angles

  1-2-5  128.57608935   1-2-6  128.57608935   2-1-3  128.57608935   2-1-4  128.57608935

  3-1-4  102.84782129   5-2-6  102.84782129

 NUCLEAR CHARGE:                   16
 NUMBER OF PRIMITIVE AOS:          72
 NUMBER OF SYMMETRY AOS:           70
 NUMBER OF CONTRACTIONS:           36   (   36A   )
 NUMBER OF CORE ORBITALS:           2   (    2A   )
 NUMBER OF VALENCE ORBITALS:       12   (   12A   )


 NUCLEAR REPULSION ENERGY   31.65967407

 EXTRA SYMMETRY OF AOS IN SYMMETRY 1:   1 1 1 2 1 1 2 1 1 1   3 2 1 1 1 1 1 2 1 1   2 1 1 1 3 2 1 1 1 1   1 1 1 1 1 1

 Eigenvalues of metric

         1 0.127E-01 0.267E-01 0.313E-01 0.381E-01 0.845E-01 0.224E+00 0.230E+00 0.261E+00


 Contracted 2-electron integrals neglected if value below      1.0D-11
 AO integral compression algorithm  1   Integral accuracy      1.0D-11

     0.786 MB (compressed) written to integral file ( 36.8%)


 NUMBER OF SORTED TWO-ELECTRON INTEGRALS:     222111.     BUFFER LENGTH:  32768
 NUMBER OF SEGMENTS:   1  SEGMENT LENGTH:     222111      RECORD LENGTH: 524288

 Memory used in sort:       0.78 MW

 SORT1 READ      284735. AND WROTE       98145. INTEGRALS IN      1 RECORDS. CPU TIME:     0.00 SEC, REAL TIME:     0.01 SEC
 SORT2 READ       98145. AND WROTE      222111. INTEGRALS IN      3 RECORDS. CPU TIME:     0.02 SEC, REAL TIME:     0.02 SEC

 FILE SIZES:   FILE 1:    30.9 MBYTE,  FILE 4:     4.2 MBYTE,   TOTAL:     35.1 MBYTE

 OPERATOR DM      FOR CENTER  0  COORDINATES:    0.000000    0.000000    0.000000


 **********************************************************************************************************************************
 DATASETS  * FILE   NREC   LENGTH (MB)   RECORD NAMES
              1      19       30.62       500      610      700      900      950      970     1000      129      960     1100   
                                          VAR    BASINP    GEOM    SYMINP    ZMAT    AOBASIS   BASIS     P2S    ABASIS      S 
                                         1400     1410     1200     1210     1080     1600     1650     1300     1700   
                                           T        V       H0       H01     AOSYM     SMH    MOLCAS    ERIS     OPER   

 PROGRAMS   *        TOTAL       INT
 CPU TIMES  *         0.34      0.24
 REAL TIME  *         0.56 SEC
 DISK USED  *        35.45 MB
 **********************************************************************************************************************************


 PROGRAM * RHF-SCF (CLOSED SHELL)       Authors: W. Meyer, H.-J. Werner


 NUMBER OF ELECTRONS:       8+    8-    SPACE SYMMETRY=1    SPIN SYMMETRY: Singlet 
 CONVERGENCE THRESHOLDS:    1.00E-05 (Density)    1.00E-07 (Energy)
 MAX. NUMBER OF ITERATIONS:       60
 INTERPOLATION TYPE:            DIIS
 INTERPOLATION STEPS:              2 (START)      1 (STEP)
 LEVEL SHIFTS:                  0.00 (CLOSED)  0.00 (OPEN) 



 Orbital guess generated from atomic densities. Full valence occupancy:    8

 Molecular orbital dump at record        2100.2

 Initial occupancy:   8

 ITERATION    DDIFF          GRAD             ENERGY        2-EL.EN.            DIPOLE MOMENTS         DIIS   ORB.
    1      0.000D+00      0.000D+00       -77.97709373    114.788926    0.00000    0.00000   -0.00000    0    start
    2      0.000D+00      0.738D-02       -77.99594641    113.524891    0.00000   -0.00000   -0.00000    1    diag
    3      0.739D-02      0.245D-02       -77.99759625    114.011724   -0.00000   -0.00000    0.00000    2    diag
    4      0.232D-02      0.671D-03       -77.99778655    113.900418    0.00000    0.00000   -0.00000    3    diag
    5      0.973D-03      0.705D-04       -77.99778879    113.904382    0.00000    0.00000   -0.00000    4    diag
    6      0.130D-03      0.999D-05       -77.99778884    113.903907    0.00000   -0.00000   -0.00000    5    diag
    7      0.178D-04      0.163D-05       -77.99778884    113.903908    0.00000    0.00000   -0.00000    6    diag
    8      0.302D-05      0.198D-06       -77.99778884    113.903901    0.00000   -0.00000   -0.00000    0    orth

 Final occupancy:   8

 !RHF STATE  1.1 Energy               -77.997788838993
 Nuclear energy                        31.65967407
 One-electron energy                 -166.60941360
 Two-electron energy                   56.95195070
 Virial quotient                       -1.00493374
 !RHF STATE  1.1 Dipole moment          0.00000000    -0.00000000    -0.00000000
 Dipole moment /Debye                   0.00000000    -0.00000000    -0.00000000

 ELECTRON ORBITALS
 =================

  Orbital  Occupation    Energy     Coefficients
    1.1     2.00000   -11.25259     1 1s    0.70434     2 1s    0.70434
    2.1     2.00000   -11.25166     1 1s    0.70450     2 1s   -0.70450
    3.1     2.00000    -0.99241     1 1s    0.30008     1 1s    0.25459     2 1s    0.30008     2 1s    0.25459
    4.1     2.00000    -0.81759     1 1s    0.24028
    5.1     2.00000    -0.59727     1 2py   0.32204     2 2py   0.32204
    6.1     2.00000    -0.59644     1 2pz   0.39741     2 2pz  -0.39741
    7.1     2.00000    -0.49662     1 2py   0.30686     2 2py  -0.30686
    8.1     2.00000    -0.34818     1 2px   0.36725     1 2px   0.32531     2 2px   0.36725     2 2px   0.32531
    9.1     0.00000     0.14940     1 2px   0.35283     1 2px   0.66849     2 2px  -0.35283     2 2px  -0.66849
   10.1     0.00000     0.27422     1 1s   -1.56037     1 2pz  -0.73334     2 1s   -1.56037     2 2pz   0.73334     3 1s    1.10601
                                    4 1s    1.10601     5 1s    1.10601     6 1s    1.10601
   11.1     0.00000     0.27962     1 1s    1.70246     1 2pz   0.26097     2 1s   -1.70246     2 2pz   0.26097     3 1s   -1.01019
                                    4 1s   -1.01019     5 1s    1.01019     6 1s    1.01019
   12.1     0.00000     0.28618     1 2py  -0.72973     2 2py  -0.72973     3 1s    1.00943     4 1s   -1.00943     5 1s    1.00943
                                    6 1s   -1.00943
   13.1     0.00000     0.38769     1 2py   0.27977     1 2py   1.50666     2 2py  -0.27977     2 2py  -1.50666     3 1s   -1.44782
                                    4 1s    1.44782     5 1s    1.44782     6 1s   -1.44782
   14.1     0.00000     0.47763     1 1s   -2.08123     1 2pz   2.79036     2 1s    2.08123     2 2pz   2.79036     3 1s   -0.79615
                                    4 1s   -0.79615     5 1s    0.79615     6 1s    0.79615
   15.1     0.00000     0.70615     1 2py  -0.43144     1 2py   0.60415     2 2py  -0.43144     2 2py   0.60415     3 1s   -0.36232
                                    4 1s    0.36232     5 1s   -0.36232     6 1s    0.36232
   16.1     0.00000     0.72492     1 1s    0.41136     1 2pz  -0.59596     1 2pz   0.99032     2 1s    0.41136     2 2pz   0.59596
                                    2 2pz  -0.99032
   17.1     0.00000     0.79211     1 2px  -0.76041     1 2px   0.64149     2 2px  -0.76041     2 2px   0.64149
   18.1     0.00000     0.87091     1 2px  -0.80777     1 2px   1.03687     2 2px   0.80777     2 2px  -1.03687
   19.1     0.00000     0.87986     1 1s   -0.44792     1 2pz  -0.62168     1 2pz   1.73054     2 1s    0.44792     2 2pz  -0.62168
                                    2 2pz   1.73054     3 1s   -0.35478     3 1s   -0.33369     4 1s   -0.35478     4 1s   -0.33369
                                    5 1s    0.35478     5 1s    0.33369     6 1s    0.35478     6 1s    0.33369
   20.1     0.00000     0.91365     1 1s   -0.89154     1 1s    1.89915     1 2pz   0.89160     2 1s   -0.89154     2 1s    1.89915
                                    2 2pz  -0.89160     3 1s   -0.39476     3 1s   -0.47595     4 1s   -0.39476     4 1s   -0.47595
                                    5 1s   -0.39476     5 1s   -0.47595     6 1s   -0.39476     6 1s   -0.47595
   21.1     0.00000     1.12189     1 2py   0.66632     1 2py  -0.97176     2 2py   0.66632     2 2py  -0.97176     3 1s   -0.40375
                                    3 1s    1.01542     4 1s    0.40375     4 1s   -1.01542     5 1s   -0.40375     5 1s    1.01542
                                    6 1s    0.40375     6 1s   -1.01542
   22.1     0.00000     1.13005     1 2py   0.88832     1 2py  -2.46792     2 2py  -0.88832     2 2py   2.46792     3 1s    1.34783
                                    4 1s   -1.34783     5 1s   -1.34783     6 1s    1.34783
   23.1     0.00000     1.22617     1 1s    0.97633     1 1s   -1.58620     1 2pz   0.34455     1 2pz  -0.47257     2 1s    0.97633
                                    2 1s   -1.58620     2 2pz  -0.34455     2 2pz   0.47257     3 1s   -0.48214     3 1s    0.83670
                                    4 1s   -0.48214     4 1s    0.83670     5 1s   -0.48214     5 1s    0.83670     6 1s   -0.48214
                                    6 1s    0.83670
   24.1     0.00000     1.22908     1 1s   -0.43028     1 1s    0.46085     1 2pz  -0.64055     1 2pz   1.08744     2 1s    0.43028
                                    2 1s   -0.46085     2 2pz  -0.64055     2 2pz   1.08744     3 1s    0.50869     3 1s   -0.86420
                                    4 1s    0.50869     4 1s   -0.86420     5 1s   -0.50869     5 1s    0.86420     6 1s   -0.50869
                                    6 1s    0.86420
   25.1     0.00000     1.24008     1 2py   1.75269     2 2py  -1.75269     3 1s   -0.62122     3 1s   -0.30256     4 1s    0.62122
                                    4 1s    0.30256     5 1s    0.62122     5 1s    0.30256     6 1s   -0.62122     6 1s   -0.30256
   26.1     0.00000     1.27010     1 1s   -1.57413     1 1s    4.33312     1 2pz  -1.22930     2 1s    1.57413     2 1s   -4.33312
                                    2 2pz  -1.22930     3 1s   -0.39887     4 1s   -0.39887     5 1s    0.39887     6 1s    0.39887
   27.1     0.00000     1.70223     1 3d1+  0.63493     2 3d1+ -0.63493
   28.1     0.00000     1.85991     1 3d2-  0.69009     2 3d2-  0.69009
   29.1     0.00000     2.09046     1 3d2-  0.72544     2 3d2- -0.72544
   30.1     0.00000     2.20969     1 1s   -0.67639     1 2pz  -0.51155     1 3d2+  0.71662     2 1s   -0.67639     2 2pz   0.51155
                                    2 3d2+  0.71662     3 1s    0.38616     4 1s    0.38616     5 1s    0.38616     6 1s    0.38616
   31.1     0.00000     2.23542     1 1s   -0.45486     1 1s    0.25699     1 2pz   0.32446     1 2pz  -0.30616     1 3d0   0.66212
                                    2 1s   -0.45486     2 1s    0.25699     2 2pz  -0.32446     2 2pz   0.30616     2 3d0   0.66212
   32.1     0.00000     2.30605     1 3d1-  0.71131     2 3d1- -0.71131     3 1s   -0.50859     4 1s    0.50859     5 1s   -0.50859
                                    6 1s    0.50859
   33.1     0.00000     2.46053     1 1s   -0.47576     1 2pz  -0.37027     1 3d2+  0.76343     2 1s    0.47576     2 2pz  -0.37027
                                    2 3d2+ -0.76343     3 1s    0.38465     4 1s    0.38465     5 1s   -0.38465     6 1s   -0.38465
   34.1     0.00000     2.57893     1 3d1+  0.84366     2 3d1+  0.84366
   35.1     0.00000     2.96497     1 1s    1.92505     1 2pz  -0.49804     1 2pz  -1.23501     1 3d0   1.04427     2 1s   -1.92505
                                    2 2pz  -0.49804     2 2pz  -1.23501     2 3d0  -1.04427
   36.1     0.00000     3.05248     1 2py   0.29449     1 3d1-  0.93115     2 2py  -0.29449     2 3d1-  0.93115     3 1s   -0.47331
                                    4 1s    0.47331     5 1s    0.47331     6 1s   -0.47331


 HOMO      8.1    -0.348182 =      -9.4745eV
 LUMO      9.1     0.149404 =       4.0655eV
 LUMO-HOMO         0.497585 =      13.5400eV


 **********************************************************************************************************************************
 DATASETS  * FILE   NREC   LENGTH (MB)   RECORD NAMES
              1      19       30.62       500      610      700      900      950      970     1000      129      960     1100   
                                          VAR    BASINP    GEOM    SYMINP    ZMAT    AOBASIS   BASIS     P2S    ABASIS      S 
                                         1400     1410     1200     1210     1080     1600     1650     1300     1700   
                                           T        V       H0       H01     AOSYM     SMH    MOLCAS    ERIS     OPER   

              2       4        2.86       700     1000      520     2100   
                                         GEOM     BASIS   MCVARS     RHF  

 PROGRAMS   *        TOTAL    HF-SCF       INT
 CPU TIMES  *         0.44      0.10      0.24
 REAL TIME  *         0.69 SEC
 DISK USED  *        35.45 MB
 **********************************************************************************************************************************


 PROGRAM * MULTI (Direct Multiconfiguration SCF)       Authors: P.J. Knowles, H.-J. Werner (1984)


 Number of closed-shell orbitals:   7 (   7 )
 Number of active  orbitals:        2 (   2 )
 Number of external orbitals:      27 (  27 )

 State symmetry 1

 Number of electrons:     2    Spin symmetry=Singlet   Space symmetry=1
 Number of states:        3
 Number of CSFs:          3   (4 determinants, 4 intermediate states)

 Molecular orbitals read from record     2100.2  Type=RHF/CANONICAL (state 1.1)

 EXTRA SYMMETRY OF MOS IN SYMMETRY 1:   1 1 1 1 1 1 1 2 2 1   1 1 1 1 1 1 2 2 1 1   1 1 1 1 1 1 2 3 3 1   1 1 1 2 1 1

 Wavefunction dump at record             2140.2

 Convergence thresholds  0.10E-01 (gradient)  0.10E-05 (energy)  0.10E-02 (step length)

 Weight factors for state symmetry  1:    0.33333   0.33333   0.33333

 Number of orbital rotations:      257   (    14 Core/Active    189 Core/Virtual   0 Active/Active     54 Active/Virtual)
 Total number of variables:        269

 Micro-Iterations solved by the two-step solver

 ITER. MIC  NCI  NEG     ENERGY(VAR)     ENERGY(PROJ)   ENERGY CHANGE     GRAD(0)  GRAD(ORB)   GRAD(CI)     STEP       TIME

   1    3    3    0     -77.73633292     -77.74109283   -0.00475991    0.11313743 0.00000078 0.00000000  0.55D-01      0.07
   2    2    3    0     -77.74103392     -77.74103583   -0.00000191    0.00217123 0.00000094 0.00000000  0.11D-02      0.10
   3    2    3    0     -77.74103583     -77.74103583   -0.00000000    0.00000109 0.00000000 0.00000000  0.64D-06      0.13

 ** WVFN ****  CONVERGENCE REACHED, FINAL GRADIENT:  0.32D-12



 Results for state 1.1
 =====================

 !MCSCF STATE  1.1 Energy             -78.022397245728
 Nuclear energy                        31.65967407
 Kinetic energy                        77.64124370
 One electron energy                 -166.65922615
 Two electron energy                   56.97715484
 Virial ratio                           2.00490916

 !MCSCF STATE  1.1 Dipole moment        0.00000000     0.00000000     0.00000000
 Dipole moment /Debye                   0.00000000     0.00000000     0.00000000

 Results for state 2.1
 =====================

 !MCSCF STATE  2.1 Energy             -77.671937110649
 Nuclear energy                        31.65967407
 Kinetic energy                        77.84474063
 One electron energy                 -166.29259358
 Two electron energy                   56.96098241
 Virial ratio                           1.99778015

 !MCSCF STATE  2.1 Dipole moment        0.00000000     0.00000000     0.00000000
 Dipole moment /Debye                   0.00000000     0.00000000     0.00000000

 Results for state 3.1
 =====================

 !MCSCF STATE  3.1 Energy             -77.528773133631
 Nuclear energy                        31.65967407
 Kinetic energy                        78.04823756
 One electron energy                 -165.92596102
 Two electron energy                   56.73751382
 Virial ratio                           1.99334432

 !MCSCF STATE  3.1 Dipole moment        0.00000000     0.00000000    -0.00000000
 Dipole moment /Debye                   0.00000000     0.00000000    -0.00000000

 State-averaged charge density matrix saved on record  2140.2 (density set 1)

 !MCSCF trans         <2.1|DMZ|1.1>    -1.503730122130 au =    -3.821850403804 Debye
 !MCSCF trans         <3.1|DMZ|2.1>    -2.488997759155 au =    -6.325986924714 Debye


 NATURAL ORBITALS (state averaged)
 =================================

  Orbital  Occupation    Energy     Coefficients
    1.1     2.00000   -11.26018     1 1s    0.70435     2 1s    0.70435
    2.1     2.00000   -11.25947     1 1s    0.70446     2 1s   -0.70446
    3.1     2.00000    -0.99971     1 1s    0.30716     2 1s    0.30716
    4.1     2.00000    -0.82148     1 1s    0.26781     2 1s   -0.26781
    5.1     2.00000    -0.60768     1 2pz   0.39979     2 2pz  -0.39979
    6.1     2.00000    -0.60478     1 2py   0.32648     2 2py   0.32648
    7.1     2.00000    -0.49947     1 2py   0.31172     2 2py  -0.31172
    8.1     1.00000     0.01037     1 2px   0.38261     1 2px   0.63256     2 2px  -0.38261     2 2px  -0.63256
    9.1     1.00000    -0.20811     1 2px   0.34938     1 2px   0.33882     2 2px   0.34938     2 2px   0.33882
   10.1    -0.00000     0.27390     1 1s   -1.56130     1 2pz  -0.73923     2 1s   -1.56130     2 2pz   0.73923     3 1s    1.10744
                                    4 1s    1.10744     5 1s    1.10744     6 1s    1.10744
   11.1    -0.00000     0.27697     1 1s    1.73496     2 1s   -1.73496     3 1s   -0.99658     4 1s   -0.99658     5 1s    0.99658
                                    6 1s    0.99658
   12.1    -0.00000     0.27954     1 2py  -0.72464     2 2py  -0.72464     3 1s    1.00448     4 1s   -1.00448     5 1s    1.00448
                                    6 1s   -1.00448
   13.1    -0.00000     0.38492     1 2py   0.28178     1 2py   1.49817     2 2py  -0.28178     2 2py  -1.49817     3 1s   -1.44322
                                    4 1s    1.44322     5 1s    1.44322     6 1s   -1.44322
   14.1    -0.00000     0.47066     1 1s   -2.02118     1 2pz   2.74938     2 1s    2.02118     2 2pz   2.74938     3 1s   -0.81074
                                    4 1s   -0.81074     5 1s    0.81074     6 1s    0.81074
   15.1    -0.00000     0.69972     1 2py  -0.44197     1 2py   0.61014     2 2py  -0.44197     2 2py   0.61014     3 1s   -0.35773
                                    4 1s    0.35773     5 1s   -0.35773     6 1s    0.35773
   16.1    -0.00000     0.71103     1 1s    0.43427     1 2pz  -0.58460     1 2pz   0.96344     2 1s    0.43427     2 2pz   0.58460
                                    2 2pz  -0.96344
   17.1    -0.00000     0.78815     1 2px  -0.76849     1 2px   0.63455     2 2px  -0.76849     2 2px   0.63455
   18.1    -0.00000     0.85787     1 2px  -0.79465     1 2px   1.05916     2 2px   0.79465     2 2px  -1.05916
   19.1    -0.00000     0.87082     1 1s   -0.56342     1 2pz  -0.62152     1 2pz   1.80721     2 1s    0.56342     2 2pz  -0.62152
                                    2 2pz   1.80721     3 1s   -0.35227     3 1s   -0.33775     4 1s   -0.35227     4 1s   -0.33775
                                    5 1s    0.35227     5 1s    0.33775     6 1s    0.35227     6 1s    0.33775
   20.1    -0.00000     0.91637     1 1s   -0.88397     1 1s    1.90553     1 2pz   0.91146     2 1s   -0.88397     2 1s    1.90553
                                    2 2pz  -0.91146     3 1s   -0.39318     3 1s   -0.48187     4 1s   -0.39318     4 1s   -0.48187
                                    5 1s   -0.39318     5 1s   -0.48187     6 1s   -0.39318     6 1s   -0.48187
   21.1    -0.00000     1.11192     1 2py   0.65639     1 2py  -0.97113     2 2py   0.65639     2 2py  -0.97113     3 1s   -0.40446
                                    3 1s    1.02169     4 1s    0.40446     4 1s   -1.02169     5 1s   -0.40446     5 1s    1.02169
                                    6 1s    0.40446     6 1s   -1.02169
   22.1    -0.00000     1.12191     1 2py   0.88583     1 2py  -2.47884     2 2py  -0.88583     2 2py   2.47884     3 1s    1.35507
                                    4 1s   -1.35507     5 1s   -1.35507     6 1s    1.35507
   23.1    -0.00000     1.22571     1 1s    0.97276     1 1s   -1.58398     1 2pz   0.34753     1 2pz  -0.47774     2 1s    0.97276
                                    2 1s   -1.58398     2 2pz  -0.34753     2 2pz   0.47774     3 1s   -0.48240     3 1s    0.83691
                                    4 1s   -0.48240     4 1s    0.83691     5 1s   -0.48240     5 1s    0.83691     6 1s   -0.48240
                                    6 1s    0.83691
   24.1    -0.00000     1.22797     1 1s   -0.32184     1 2pz  -0.66258     1 2pz   1.28527     2 1s    0.32184     2 2pz  -0.66258
                                    2 2pz   1.28527     3 1s    0.52293     3 1s   -0.77634     4 1s    0.52293     4 1s   -0.77634
                                    5 1s   -0.52293     5 1s    0.77634     6 1s   -0.52293     6 1s    0.77634
   25.1    -0.00000     1.23485     1 2py   1.74342     2 2py  -1.74342     3 1s   -0.62142     3 1s   -0.29681     4 1s    0.62142
                                    4 1s    0.29681     5 1s    0.62142     5 1s    0.29681     6 1s   -0.62142     6 1s   -0.29681
   26.1    -0.00000     1.25579     1 1s   -1.62562     1 1s    4.33916     1 2pz  -0.99779     2 1s    1.62562     2 1s   -4.33916
                                    2 2pz  -0.99779     3 1s   -0.55147     4 1s   -0.55147     5 1s    0.55147     6 1s    0.55147
   27.1    -0.00000     1.68395     1 3d1+  0.63482     2 3d1+ -0.63482
   28.1    -0.00000     1.85156     1 3d2-  0.69009     2 3d2-  0.69009
   29.1    -0.00000     2.07330     1 3d2-  0.72544     2 3d2- -0.72544
   30.1    -0.00000     2.19993     1 1s   -0.65382     1 2pz  -0.53735     1 3d2+  0.70540     2 1s   -0.65382     2 2pz   0.53735
                                    2 3d2+  0.70540     3 1s    0.38195     4 1s    0.38195     5 1s    0.38195     6 1s    0.38195
   31.1    -0.00000     2.22077     1 1s   -0.45286     1 1s    0.30350     1 2pz   0.32492     1 2pz  -0.26686     1 3d0   0.65223
                                    2 1s   -0.45286     2 1s    0.30350     2 2pz  -0.32492     2 2pz   0.26686     2 3d0   0.65223
   32.1    -0.00000     2.29354     1 3d1-  0.70978     2 3d1- -0.70978     3 1s   -0.51159     4 1s    0.51159     5 1s   -0.51159
                                    6 1s    0.51159
   33.1    -0.00000     2.44599     1 1s   -0.47977     1 2pz  -0.37433     1 3d2+  0.76280     2 1s    0.47977     2 2pz  -0.37433
                                    2 3d2+ -0.76280     3 1s    0.38731     4 1s    0.38731     5 1s   -0.38731     6 1s   -0.38731
   34.1    -0.00000     2.56081     1 3d1+  0.84395     2 3d1+  0.84395
   35.1    -0.00000     2.95292     1 1s    1.93901     1 2pz  -0.49182     1 2pz  -1.24294     1 3d0   1.04512     2 1s   -1.93901
                                    2 2pz  -0.49182     2 2pz  -1.24294     2 3d0  -1.04512
   36.1    -0.00000     3.04223     1 2py   0.29254     1 3d1-  0.93090     2 2py  -0.29254     2 3d1-  0.93090     3 1s   -0.47490
                                    4 1s    0.47490     5 1s    0.47490     6 1s   -0.47490


 Natural orbital dump (state averaged) at molpro section  2140.2    (Orbital set 2)



 **********************************************************************************************************************************
 DATASETS  * FILE   NREC   LENGTH (MB)   RECORD NAMES
              1      20       31.35       500      610      700      900      950      970     1000      129      960     1100   
                                          VAR    BASINP    GEOM    SYMINP    ZMAT    AOBASIS   BASIS     P2S    ABASIS      S 
                                         1400     1410     1200     1210     1080     1600     1650     1300     1700     1380   
                                           T        V       H0       H01     AOSYM     SMH    MOLCAS    ERIS     OPER     JKOP   

              2       5        5.42       700     1000      520     2100     2140   
                                         GEOM     BASIS   MCVARS     RHF     MCSCF   

 PROGRAMS   *        TOTAL     MULTI    HF-SCF       INT
 CPU TIMES  *         0.61      0.17      0.10      0.24
 REAL TIME  *         0.88 SEC
 DISK USED  *        38.54 MB
 **********************************************************************************************************************************
 Molecular orbitals read from record     2140.2  Type=MCSCF/NATURAL (state averaged)
 Occupation numbers read from record     2140.2  Type=MCSCF/NATURAL (state averaged)
 Orbital energies read from record       2140.2  Type=MCSCF/NATURAL (state averaged)
 Redundancy group numbers read from rec  2140.2  Type=MCSCF/NATURAL (state averaged)

 MULTI/6-31G* energy=    -77.528773133631

           MULTI          HF-SCF
    -77.52877313    -77.99778884
 **********************************************************************************************************************************
 Molpro calculation terminated
