
 Primary working directories    : /scratch.local/johan406.molpro_temp/molpro.PwqyyZOIax
 Secondary working directories  : /scratch.local/johan406.molpro_temp/molpro.PwqyyZOIax
 Wavefunction directory         : /home/goodpast/johan406/wfu/
 Main file repository           : /scratch.local/johan406.molpro_temp/molpro.PwqyyZOIax/

 id        : roweumn

 Nodes     nprocs
 cn0117       1

 Using customized tuning parameters: mindgm=1; mindgv=20; mindgc=4; mindgr=1; noblas=0; minvec=7
 default implementation of scratch files=df  


 Variables initialized (934), CPU time= 0.00 sec
                                                                                 !leave this line blank
 
 gprint, orbitals=30
 memory, 125., m
 symmetry, nosym
 nelect=16
 basis=6-31g*
 
 geometry={
 C -0.0 0.0 0.6672
 C 0.0 0.0 -0.6711
 H 0.0 0.9071 1.2463
 H 0.0 -0.9071 1.2463
 H 0.0 0.9227 -1.2233
 H -0.0 -0.9227 -1.2233
 }
 
 hf
 {multi,
 closed 7
 occ 9
 wf,spin=0;STATE,3
 }
 
 Commands  initialized (763), CPU time= 0.01 sec, 617 directives.
 Default parameters read. Elapsed time= 0.08 sec

 Checking input...
 Passed
1


                                         ***  PROGRAM SYSTEM MOLPRO  ***
                                       Copyright, TTI GmbH Stuttgart, 2015
                                    Version 2019.2 linked Oct 25 2019 22:50:27


 **********************************************************************************************************************************
 LABEL *                                                                                 
  64 bit serial version                                                                  DATE: 26-Jan-23          TIME: 20:21:49  
 **********************************************************************************************************************************

 SHA1:             8dbd9ae1082e4ce945b0f27595c9eb2d4aa09004
 **********************************************************************************************************************************


 Variable memory set to  125000000 words,  buffer space 

 SETTING NELECT         =        16.00000000                                  
 SETTING BASIS          =    6-31G*
 ZSYMEL=NOSYM


Geometry recognized as XYZ



 Recomputing integrals since basis changed


 Using spherical harmonics

 Library entry C      S 6-31G                selected for orbital group  1
 Library entry C      P 6-31G                selected for orbital group  1
 Library entry C      D 6-31G*               selected for orbital group  1
 Library entry H      S 6-31G                selected for orbital group  2


 PROGRAM * SEWARD (Integral evaluation for generally contracted gaussian basis sets)     Author: Roland Lindh, 1990

 Geometry written to block  1 of record 700


 Point group  C1  



 ATOMIC COORDINATES

 NR  ATOM    CHARGE       X              Y              Z

   1  C       6.00    0.000000000    0.000000000    1.260825270
   2  C       6.00    0.000000000    0.000000000   -1.268195202
   3  H       1.00    0.000000000    1.714170568    2.355165669
   4  H       1.00    0.000000000   -1.714170568    2.355165669
   5  H       1.00    0.000000000    1.743650295   -2.311701968
   6  H       1.00    0.000000000   -1.743650295   -2.311701968

 Bond lengths in Bohr (Angstrom)

 1-2  2.529020473  1-3  2.033706381  1-4  2.033706381  2-5  2.032048898  2-6  2.032048898
     ( 1.338300000)     ( 1.076191070)     ( 1.076191070)     ( 1.075313968)     ( 1.075313968)

 Bond angles

  1-2-5  120.89887721   1-2-6  120.89887721   2-1-3  122.55449116   2-1-4  122.55449116

  3-1-4  114.89101768   5-2-6  118.20224559

 NUCLEAR CHARGE:                   16
 NUMBER OF PRIMITIVE AOS:          72
 NUMBER OF SYMMETRY AOS:           70
 NUMBER OF CONTRACTIONS:           36   (   36A   )
 NUMBER OF CORE ORBITALS:           2   (    2A   )
 NUMBER OF VALENCE ORBITALS:       12   (   12A   )


 NUCLEAR REPULSION ENERGY   33.40435017

 EXTRA SYMMETRY OF AOS IN SYMMETRY 1:   1 1 1 2 1 1 2 1 1 1   3 2 1 1 1 1 1 2 1 1   2 1 1 1 3 2 1 1 1 1   1 1 1 1 1 1

 Eigenvalues of metric

         1 0.832E-02 0.172E-01 0.376E-01 0.461E-01 0.709E-01 0.192E+00 0.211E+00 0.225E+00


 Contracted 2-electron integrals neglected if value below      1.0D-11
 AO integral compression algorithm  1   Integral accuracy      1.0D-11

     0.786 MB (compressed) written to integral file ( 37.9%)


 NUMBER OF SORTED TWO-ELECTRON INTEGRALS:     222111.     BUFFER LENGTH:  32768
 NUMBER OF SEGMENTS:   1  SEGMENT LENGTH:     222111      RECORD LENGTH: 524288

 Memory used in sort:       0.78 MW

 SORT1 READ      284735. AND WROTE       98531. INTEGRALS IN      1 RECORDS. CPU TIME:     0.00 SEC, REAL TIME:     0.01 SEC
 SORT2 READ       98531. AND WROTE      222111. INTEGRALS IN      3 RECORDS. CPU TIME:     0.02 SEC, REAL TIME:     0.02 SEC

 FILE SIZES:   FILE 1:    30.9 MBYTE,  FILE 4:     4.2 MBYTE,   TOTAL:     35.1 MBYTE

 OPERATOR DM      FOR CENTER  0  COORDINATES:    0.000000    0.000000    0.000000


 **********************************************************************************************************************************
 DATASETS  * FILE   NREC   LENGTH (MB)   RECORD NAMES
              1      19       30.63       500      610      700      900      950      970     1000      129      960     1100   
                                          VAR    BASINP    GEOM    SYMINP    ZMAT    AOBASIS   BASIS     P2S    ABASIS      S 
                                         1400     1410     1200     1210     1080     1600     1650     1300     1700   
                                           T        V       H0       H01     AOSYM     SMH    MOLCAS    ERIS     OPER   

 PROGRAMS   *        TOTAL       INT
 CPU TIMES  *         0.35      0.25
 REAL TIME  *         0.56 SEC
 DISK USED  *        35.45 MB
 **********************************************************************************************************************************


 PROGRAM * RHF-SCF (CLOSED SHELL)       Authors: W. Meyer, H.-J. Werner


 NUMBER OF ELECTRONS:       8+    8-    SPACE SYMMETRY=1    SPIN SYMMETRY: Singlet 
 CONVERGENCE THRESHOLDS:    1.00E-05 (Density)    1.00E-07 (Energy)
 MAX. NUMBER OF ITERATIONS:       60
 INTERPOLATION TYPE:            DIIS
 INTERPOLATION STEPS:              2 (START)      1 (STEP)
 LEVEL SHIFTS:                  0.00 (CLOSED)  0.00 (OPEN) 



 Orbital guess generated from atomic densities. Full valence occupancy:    8

 Molecular orbital dump at record        2100.2

 Initial occupancy:   8

 ITERATION    DDIFF          GRAD             ENERGY        2-EL.EN.            DIPOLE MOMENTS         DIIS   ORB.
    1      0.000D+00      0.000D+00       -78.00635563    118.718451   -0.00000   -0.00000    0.00993    0    start
    2      0.000D+00      0.859D-02       -78.02831077    116.879599   -0.00000   -0.00000    0.00410    1    diag
    3      0.821D-02      0.292D-02       -78.03043751    117.510149   -0.00000   -0.00000    0.00440    2    diag
    4      0.264D-02      0.712D-03       -78.03064686    117.411439   -0.00000   -0.00000    0.00434    3    diag
    5      0.107D-02      0.681D-04       -78.03064897    117.414333    0.00000    0.00000    0.00410    4    diag
    6      0.146D-03      0.871D-05       -78.03064900    117.413920    0.00000    0.00000    0.00437    5    diag
    7      0.159D-04      0.277D-05       -78.03064900    117.413909   -0.00000    0.00000    0.00427    6    diag
    8      0.251D-05      0.709D-06       -78.03064900    117.413914   -0.00000   -0.00000    0.00432    0    orth

 Final occupancy:   8

 !RHF STATE  1.1 Energy               -78.030649000401
 Nuclear energy                        33.40435017
 One-electron energy                 -170.14195609
 Two-electron energy                   58.70695691
 Virial quotient                       -1.00011285
 !RHF STATE  1.1 Dipole moment         -0.00000000    -0.00000000     0.00432430
 Dipole moment /Debye                  -0.00000000    -0.00000000     0.01099056

 ELECTRON ORBITALS
 =================

  Orbital  Occupation    Energy     Coefficients
    1.1     2.00000   -11.22512     1 1s    0.64809     2 1s    0.75613
    2.1     2.00000   -11.22350     1 1s    0.75646     2 1s   -0.64847
    3.1     2.00000    -1.02688     1 1s    0.30187     2 1s    0.30240
    4.1     2.00000    -0.79222     1 1s    0.24294
    5.1     2.00000    -0.63868     1 2py   0.31431     2 2py   0.32901
    6.1     2.00000    -0.58275     1 2pz  -0.40537     2 2pz   0.40904
    7.1     2.00000    -0.50565     1 2py   0.31258     2 2py  -0.29809
    8.1     2.00000    -0.36923     1 2px   0.37290     1 2px   0.30769     2 2px   0.37365     2 2px   0.30821
    9.1     0.00000     0.17859     1 2px   0.34221     1 2px   0.73415     2 2px  -0.34189     2 2px  -0.73365
   10.1     0.00000     0.26647     1 1s   -1.46472     1 2pz  -0.66495     2 1s   -1.52958     2 2pz   0.62973     3 1s    1.03525
                                    4 1s    1.03525     5 1s    1.04781     6 1s    1.04781
   11.1     0.00000     0.29465     1 2py  -0.25360     1 2py  -0.79019     2 2py  -0.25048     2 2py  -0.83091     3 1s    1.08718
                                    4 1s   -1.08718     5 1s    1.11881     6 1s   -1.11881
   12.1     0.00000     0.30957     1 1s    1.96219     2 1s   -1.91194     3 1s   -1.09362     4 1s   -1.09362     5 1s    1.06015
                                    6 1s    1.06015
   13.1     0.00000     0.39128     1 2py   1.86662     2 2py  -1.89366     3 1s   -1.62619     4 1s    1.62619     5 1s    1.64023
                                    6 1s   -1.64023
   14.1     0.00000     0.49059     1 1s   -2.96780     1 2pz   2.95832     2 1s    3.01052     2 2pz   2.95190     3 1s   -0.61551
                                    4 1s   -0.61551     5 1s    0.56700     6 1s    0.56700
   15.1     0.00000     0.66951     1 2pz  -0.54625     1 2pz   1.13284     2 1s    0.33408     2 2pz   0.56589     2 2pz  -0.94568
   16.1     0.00000     0.76254     1 2py  -0.40987     1 2py   0.78363     2 2py  -0.38726     2 2py   0.76108     3 1s   -0.39574
                                    4 1s    0.39574     5 1s   -0.37706     6 1s    0.37706
   17.1     0.00000     0.77727     1 2px  -0.74009     1 2px   0.63869     2 2px  -0.74113     2 2px   0.64037
   18.1     0.00000     0.86271     1 1s   -0.88606     1 1s    1.36669     1 2pz   0.44452     2 1s   -0.88979     2 1s    1.56591
                                    3 1s   -0.39303     3 1s   -0.25779     4 1s   -0.39303     4 1s   -0.25779     5 1s   -0.39778
                                    6 1s   -0.39778
   19.1     0.00000     0.89050     1 2px   0.81914     1 2px  -1.07416     2 2px  -0.81798     2 2px   1.07340
   20.1     0.00000     0.95441     1 1s   -0.88763     1 2pz   0.61032     1 2pz  -0.50598     2 1s    0.84037     2 2pz   0.59518
                                    2 2pz  -0.43830     3 1s    0.38853     4 1s    0.38853     5 1s   -0.37968     6 1s   -0.37968
   21.1     0.00000     1.11673     1 2py  -0.72071     1 2py   1.18221     2 2py  -0.65789     2 2py   1.01909     3 1s    0.39111
                                    3 1s   -1.10869     4 1s   -0.39111     4 1s    1.10869     5 1s    0.37229     5 1s   -1.01772
                                    6 1s   -0.37229     6 1s    1.01772
   22.1     0.00000     1.16090     1 2py  -0.89147     1 2py   2.87191     2 2py   0.95836     2 2py  -3.01784     3 1s   -1.46192
                                    4 1s    1.46192     5 1s    1.56050     6 1s   -1.56050
   23.1     0.00000     1.21447     1 1s   -0.71919     1 1s    1.43153     2 1s   -1.13492     2 1s    1.65646     2 2pz   0.60716
                                    2 2pz  -1.03763     3 1s   -0.33757     4 1s   -0.33757     5 1s    0.60455     5 1s   -1.20856
                                    6 1s    0.60455     6 1s   -1.20856
   24.1     0.00000     1.22488     1 1s   -0.94589     1 1s    1.26850     1 2pz  -0.72698     1 2pz   1.31142     2 1s    0.27754
                                    2 2pz  -0.39335     2 2pz   0.85108     3 1s    0.62038     3 1s   -1.25808     4 1s    0.62038
                                    4 1s   -1.25808     5 1s    0.47456     6 1s    0.47456
   25.1     0.00000     1.33849     1 1s    1.57008     1 1s   -5.35649     1 2pz  -0.26516     1 2pz   1.90360     2 1s   -1.61442
                                    2 1s    5.41039     2 2pz  -0.25884     2 2pz   1.91807     3 1s    0.31895     4 1s    0.31895
                                    5 1s   -0.34954     6 1s   -0.34954
   26.1     0.00000     1.47436     1 2py  -2.50079     2 2py   2.57857     3 1s    0.68588     3 1s    0.65496     4 1s   -0.68588
                                    4 1s   -0.65496     5 1s   -0.70896     5 1s   -0.68545     6 1s    0.70896     6 1s    0.68545
   27.1     0.00000     1.73914     1 3d1+  0.61980     2 3d1+ -0.61834
   28.1     0.00000     1.82177     1 3d2-  0.67861     2 3d2-  0.68383
   29.1     0.00000     2.12776     1 3d2-  0.73859     2 3d2- -0.73376
   30.1     0.00000     2.20849     1 1s   -0.56161     1 3d2+  0.72478     2 1s   -0.65668     2 3d2+  0.70205     3 1s    0.37994
                                    4 1s    0.37994     5 1s    0.36992     6 1s    0.36992
   31.1     0.00000     2.33293     1 2py  -0.28076     1 3d1- -0.68156     2 2py  -0.27454     2 2py  -0.26740     2 3d1-  0.70258
                                    3 1s    0.50626     4 1s   -0.50626     5 1s    0.53222     6 1s   -0.53222
   32.1     0.00000     2.40750     1 1s   -0.49385     1 2pz   0.27768     1 2pz  -0.46953     1 3d0   0.69230     2 1s   -0.52163
                                    2 2pz  -0.28629     2 2pz   0.42566     2 3d0   0.68538
   33.1     0.00000     2.62779     1 1s   -0.30896     1 1s    1.35893     1 2pz  -0.28172     1 3d2+ -0.77796     2 1s    0.27164
                                    2 1s   -1.33902     2 2pz  -0.26732     2 3d2+  0.81927     3 1s   -0.42911     4 1s   -0.42911
                                    5 1s    0.46163     6 1s    0.46163
   34.1     0.00000     2.70808     1 2px  -0.26449     1 3d1+  0.90214     2 2px   0.26446     2 3d1+  0.90313
   35.1     0.00000     3.06221     1 1s   -0.31984     1 1s   -2.01624     1 2pz   0.79513     1 2pz   1.18023     1 3d0  -1.11002
                                    2 1s    0.31152     2 1s    2.03106     2 2pz   0.79738     2 2pz   1.17659     2 3d0   1.11383
   36.1     0.00000     3.06428     1 2py   0.55397     1 3d1-  0.98368     2 2py  -0.57633     2 3d1-  0.95840     3 1s   -0.49036
                                    4 1s    0.49036     5 1s    0.46694     6 1s   -0.46694


 HOMO      8.1    -0.369228 =     -10.0472eV
 LUMO      9.1     0.178587 =       4.8596eV
 LUMO-HOMO         0.547815 =      14.9068eV


 **********************************************************************************************************************************
 DATASETS  * FILE   NREC   LENGTH (MB)   RECORD NAMES
              1      19       30.63       500      610      700      900      950      970     1000      129      960     1100   
                                          VAR    BASINP    GEOM    SYMINP    ZMAT    AOBASIS   BASIS     P2S    ABASIS      S 
                                         1400     1410     1200     1210     1080     1600     1650     1300     1700   
                                           T        V       H0       H01     AOSYM     SMH    MOLCAS    ERIS     OPER   

              2       4        2.86       700     1000      520     2100   
                                         GEOM     BASIS   MCVARS     RHF  

 PROGRAMS   *        TOTAL    HF-SCF       INT
 CPU TIMES  *         0.45      0.10      0.25
 REAL TIME  *         0.69 SEC
 DISK USED  *        35.45 MB
 **********************************************************************************************************************************


 PROGRAM * MULTI (Direct Multiconfiguration SCF)       Authors: P.J. Knowles, H.-J. Werner (1984)


 Number of closed-shell orbitals:   7 (   7 )
 Number of active  orbitals:        2 (   2 )
 Number of external orbitals:      27 (  27 )

 State symmetry 1

 Number of electrons:     2    Spin symmetry=Singlet   Space symmetry=1
 Number of states:        3
 Number of CSFs:          3   (4 determinants, 4 intermediate states)

 Molecular orbitals read from record     2100.2  Type=RHF/CANONICAL (state 1.1)

 EXTRA SYMMETRY OF MOS IN SYMMETRY 1:   1 1 1 1 1 1 1 2 2 1   1 1 1 1 1 1 2 1 2 1   1 1 1 1 1 1 2 3 3 1   1 1 1 2 1 1

 Wavefunction dump at record             2140.2

 Convergence thresholds  0.10E-01 (gradient)  0.10E-05 (energy)  0.10E-02 (step length)

 Weight factors for state symmetry  1:    0.33333   0.33333   0.33333

 Number of orbital rotations:      257   (    14 Core/Active    189 Core/Virtual   0 Active/Active     54 Active/Virtual)
 Total number of variables:        269

 Micro-Iterations solved by the two-step solver

 ITER. MIC  NCI  NEG     ENERGY(VAR)     ENERGY(PROJ)   ENERGY CHANGE     GRAD(0)  GRAD(ORB)   GRAD(CI)     STEP       TIME

   1    3    3    0     -77.72950251     -77.73574761   -0.00624510    0.13262462 0.00000154 0.00000000  0.63D-01      0.06
   2    2    3    0     -77.73564907     -77.73565283   -0.00000377    0.00304406 0.00000186 0.00000000  0.16D-02      0.10
   3    2    3    0     -77.73565284     -77.73565284   -0.00000000    0.00000216 0.00000000 0.00000000  0.13D-05      0.13

 ** WVFN ****  CONVERGENCE REACHED, FINAL GRADIENT:  0.13D-11



 Results for state 1.1
 =====================

 !MCSCF STATE  1.1 Energy             -78.048324718535
 Nuclear energy                        33.40435017
 Kinetic energy                        78.09013516
 One electron energy                 -170.27404863
 Two electron energy                   58.82137374
 Virial ratio                           1.99946459

 !MCSCF STATE  1.1 Dipole moment        0.00000000     0.00000000     0.00550900
 Dipole moment /Debye                   0.00000000     0.00000000     0.01400157

 Results for state 2.1
 =====================

 !MCSCF STATE  2.1 Energy             -77.672396668145
 Nuclear energy                        33.40435017
 Kinetic energy                        78.27035141
 One electron energy                 -169.70065600
 Two electron energy                   58.62390915
 Virial ratio                           1.99236039

 !MCSCF STATE  2.1 Dipole moment        0.00000000     0.00000000     0.01186236
 Dipole moment /Debye                   0.00000000     0.00000000     0.03014914

 Results for state 3.1
 =====================

 !MCSCF STATE  3.1 Energy             -77.486237121213
 Nuclear energy                        33.40435017
 Kinetic energy                        78.45055804
 One electron energy                 -169.12729056
 Two electron energy                   58.23670327
 Virial ratio                           1.98770792

 !MCSCF STATE  3.1 Dipole moment        0.00000000     0.00000000    -0.00688363
 Dipole moment /Debye                   0.00000000     0.00000000    -0.01749530

 State-averaged charge density matrix saved on record  2140.2 (density set 1)

 !MCSCF expec         <1.1|DMZ|1.1>     0.005509001485 au =     0.014001567995 Debye
 !MCSCF trans         <2.1|DMZ|1.1>    -1.510454082508 au =    -3.838939887021 Debye
 !MCSCF expec         <2.1|DMZ|2.1>     0.011862361516 au =     0.030149140782 Debye
 !MCSCF trans         <3.1|DMZ|1.1>    -0.001932518194 au =    -0.004911649592 Debye
 !MCSCF trans         <3.1|DMZ|2.1>    -2.273670262643 au =    -5.778714866128 Debye
 !MCSCF expec         <3.1|DMZ|3.1>    -0.006883630312 au =    -0.017495297129 Debye


 NATURAL ORBITALS (state averaged)
 =================================

  Orbital  Occupation    Energy     Coefficients
    1.1     2.00000   -11.24100     1 1s    0.45463     2 1s    0.88611
    2.1     2.00000   -11.23937     1 1s    0.88630     2 1s   -0.45502
    3.1     2.00000    -1.04162     1 1s    0.30956     2 1s    0.31076
    4.1     2.00000    -0.80004     1 1s    0.28871     2 1s   -0.28563
    5.1     2.00000    -0.65154     1 2py   0.31956     2 2py   0.33513
    6.1     2.00000    -0.59791     1 2pz  -0.40727     2 2pz   0.41055
    7.1     2.00000    -0.51226     1 2py   0.31957     2 2py  -0.30409
    8.1     1.00000     0.03370     1 2px   0.38015     1 2px   0.68718     2 2px  -0.37990     2 2px  -0.68662
    9.1     1.00000    -0.22537     1 2px   0.35748     1 2px   0.31914     2 2px   0.35829     2 2px   0.31958
   10.1    -0.00000     0.26371     1 1s   -1.45101     1 2pz  -0.67079     2 1s   -1.53505     2 2pz   0.63536     3 1s    1.03004
                                    4 1s    1.03004     5 1s    1.05195     6 1s    1.05195
   11.1    -0.00000     0.28620     1 2py  -0.25177     1 2py  -0.77953     2 2py  -0.82224     3 1s    1.07796     4 1s   -1.07796
                                    5 1s    1.11098     6 1s   -1.11098
   12.1    -0.00000     0.30648     1 1s    1.99327     2 1s   -1.92870     3 1s   -1.09283     4 1s   -1.09283     5 1s    1.04984
                                    6 1s    1.04984
   13.1    -0.00000     0.38711     1 2py   0.25064     1 2py   1.85293     2 2py  -0.25150     2 2py  -1.87852     3 1s   -1.61982
                                    4 1s    1.61982     5 1s    1.63291     6 1s   -1.63291
   14.1    -0.00000     0.48783     1 1s   -2.94488     1 2pz   2.94042     2 1s    2.98834     2 2pz   2.93332     3 1s   -0.62487
                                    4 1s   -0.62487     5 1s    0.57636     6 1s    0.57636
   15.1    -0.00000     0.65809     1 1s    0.26391     1 2pz  -0.53752     1 2pz   1.10191     2 2pz   0.55860     2 2pz  -0.92944
   16.1    -0.00000     0.75203     1 2py  -0.42151     1 2py   0.78917     2 2py  -0.39832     2 2py   0.77023     3 1s   -0.39071
                                    4 1s    0.39071     5 1s   -0.37274     6 1s    0.37274
   17.1    -0.00000     0.77123     1 2px  -0.74555     1 2px   0.63177     2 2px  -0.74890     2 2px   0.63675
   18.1    -0.00000     0.85987     1 1s   -0.87806     1 1s    1.38213     1 2pz   0.49126     2 1s   -0.88450     2 1s    1.59887
                                    2 2pz  -0.28251     3 1s   -0.39199     3 1s   -0.26948     4 1s   -0.39199     4 1s   -0.26948
                                    5 1s   -0.40215     6 1s   -0.40215
   19.1    -0.00000     0.87286     1 2px   0.80466     1 2px  -1.10555     2 2px  -0.80131     2 2px   1.10295
   20.1    -0.00000     0.93548     1 1s   -0.73899     1 2pz   0.61542     1 2pz  -0.59438     2 1s    0.67135     2 2pz   0.59929
                                    2 2pz  -0.52022     3 1s    0.39077     4 1s    0.39077     5 1s   -0.37759     6 1s   -0.37759
   21.1    -0.00000     1.10120     1 2py  -0.70278     1 2py   1.16533     2 2py  -0.65297     2 2py   1.04013     3 1s    0.39073
                                    3 1s   -1.10833     4 1s   -0.39073     4 1s    1.10833     5 1s    0.37424     5 1s   -1.03673
                                    6 1s   -0.37424     6 1s    1.03673
   22.1    -0.00000     1.14828     1 2py  -0.89357     1 2py   2.88461     2 2py   0.95068     2 2py  -3.01591     3 1s   -1.47704
                                    4 1s    1.47704     5 1s    1.56186     6 1s   -1.56186
   23.1    -0.00000     1.21114     1 1s   -0.75691     1 1s    1.54041     2 1s   -1.10118     2 1s    1.56239     2 2pz   0.61078
                                    2 2pz  -1.06481     3 1s   -0.36189     4 1s   -0.36189     5 1s    0.60260     5 1s   -1.19447
                                    6 1s    0.60260     6 1s   -1.19447
   24.1    -0.00000     1.22252     1 1s   -0.87518     1 1s    1.05312     1 2pz  -0.74006     1 2pz   1.38588     2 1s    0.44528
                                    2 2pz  -0.41311     2 2pz   0.93464     3 1s    0.62089     3 1s   -1.24036     4 1s    0.62089
                                    4 1s   -1.24036     5 1s    0.47911     6 1s    0.47911
   25.1    -0.00000     1.31877     1 1s    1.59235     1 1s   -5.38568     1 2pz   1.84947     2 1s   -1.63647     2 1s    5.43861
                                    2 2pz   1.86523     3 1s    0.36060     4 1s    0.36060     5 1s   -0.39076     6 1s   -0.39076
   26.1    -0.00000     1.46575     1 2py  -2.50438     2 2py   2.58223     3 1s    0.68521     3 1s    0.65595     4 1s   -0.68521
                                    4 1s   -0.65595     5 1s   -0.70730     5 1s   -0.68704     6 1s    0.70730     6 1s    0.68704
   27.1    -0.00000     1.71342     1 3d1+  0.61938     2 3d1+ -0.61821
   28.1    -0.00000     1.80789     1 3d2-  0.67805     2 3d2-  0.68439
   29.1    -0.00000     2.10464     1 3d2-  0.73911     2 3d2- -0.73324
   30.1    -0.00000     2.19307     1 1s   -0.55700     1 2pz  -0.25163     1 3d2+  0.72398     2 1s   -0.65307     2 3d2+  0.70188
                                    3 1s    0.38181     4 1s    0.38181     5 1s    0.37185     6 1s    0.37185
   31.1    -0.00000     2.31669     1 2py  -0.28763     1 3d1- -0.67990     2 2py  -0.28143     2 2py  -0.26354     2 3d1-  0.70070
                                    3 1s    0.50955     4 1s   -0.50955     5 1s    0.53577     6 1s   -0.53577
   32.1    -0.00000     2.38736     1 1s   -0.49202     1 2pz   0.28394     1 2pz  -0.47238     1 3d0   0.69192     2 1s   -0.51956
                                    2 2pz  -0.29182     2 2pz   0.42841     2 3d0   0.68532
   33.1    -0.00000     2.60802     1 1s   -0.30987     1 1s    1.36518     1 2pz  -0.28040     1 3d2+ -0.77747     2 1s    0.27243
                                    2 1s   -1.34462     2 2pz  -0.26619     2 3d2+  0.81826     3 1s   -0.43230     4 1s   -0.43230
                                    5 1s    0.46460     6 1s    0.46460
   34.1    -0.00000     2.68553     1 2px  -0.26526     1 3d1+  0.90263     2 2px   0.26522     2 3d1+  0.90342
   35.1    -0.00000     3.04416     1 1s   -0.31266     1 1s   -2.04194     1 2pz   0.78755     1 2pz   1.19370     1 3d0  -1.11185
                                    2 1s    0.30449     2 1s    2.05675     2 2pz   0.78989     2 2pz   1.18997     2 3d0   1.11530
   36.1    -0.00000     3.05146     1 2py   0.55401     1 3d1-  0.98323     2 2py  -0.57652     2 3d1-  0.95807     3 1s   -0.49265
                                    4 1s    0.49265     5 1s    0.46924     6 1s   -0.46924


 Natural orbital dump (state averaged) at molpro section  2140.2    (Orbital set 2)



 **********************************************************************************************************************************
 DATASETS  * FILE   NREC   LENGTH (MB)   RECORD NAMES
              1      20       31.36       500      610      700      900      950      970     1000      129      960     1100   
                                          VAR    BASINP    GEOM    SYMINP    ZMAT    AOBASIS   BASIS     P2S    ABASIS      S 
                                         1400     1410     1200     1210     1080     1600     1650     1300     1700     1380   
                                           T        V       H0       H01     AOSYM     SMH    MOLCAS    ERIS     OPER     JKOP   

              2       5        5.42       700     1000      520     2100     2140   
                                         GEOM     BASIS   MCVARS     RHF     MCSCF   

 PROGRAMS   *        TOTAL     MULTI    HF-SCF       INT
 CPU TIMES  *         0.63      0.17      0.10      0.25
 REAL TIME  *         0.89 SEC
 DISK USED  *        38.55 MB
 **********************************************************************************************************************************
 Molecular orbitals read from record     2140.2  Type=MCSCF/NATURAL (state averaged)
 Occupation numbers read from record     2140.2  Type=MCSCF/NATURAL (state averaged)
 Orbital energies read from record       2140.2  Type=MCSCF/NATURAL (state averaged)
 Redundancy group numbers read from rec  2140.2  Type=MCSCF/NATURAL (state averaged)

 MULTI/6-31G* energy=    -77.486237121213

           MULTI          HF-SCF
    -77.48623712    -78.03064900
 **********************************************************************************************************************************
 Molpro calculation terminated
