
 Primary working directories    : /scratch.local/johan406.molpro_temp/molpro.Ew73W5I6iB
 Secondary working directories  : /scratch.local/johan406.molpro_temp/molpro.Ew73W5I6iB
 Wavefunction directory         : /home/goodpast/johan406/wfu/
 Main file repository           : /scratch.local/johan406.molpro_temp/molpro.Ew73W5I6iB/

 id        : roweumn

 Nodes     nprocs
 cn0117       1

 Using customized tuning parameters: mindgm=1; mindgv=20; mindgc=4; mindgr=1; noblas=0; minvec=7
 default implementation of scratch files=df  


 Variables initialized (934), CPU time= 0.00 sec
                                                                                 !leave this line blank
 
 gprint, orbitals=30
 memory, 125., m
 symmetry, nosym
 nelect=16
 basis=6-31g*
 
 geometry={
 C -0.0 0.0 0.6655
 C 0.0 0.0 -0.6728
 H 0.0 0.9003 1.2561
 H 0.0 -0.9003 1.2561
 H 0.0 0.9295 -1.2135
 H -0.0 -0.9295 -1.2135
 }
 
 hf
 {multi,
 closed 7
 occ 9
 wf,spin=0;STATE,3
 }
 
 Commands  initialized (763), CPU time= 0.01 sec, 617 directives.
 Default parameters read. Elapsed time= 0.08 sec

 Checking input...
 Passed
1


                                         ***  PROGRAM SYSTEM MOLPRO  ***
                                       Copyright, TTI GmbH Stuttgart, 2015
                                    Version 2019.2 linked Oct 25 2019 22:50:27


 **********************************************************************************************************************************
 LABEL *                                                                                 
  64 bit serial version                                                                  DATE: 26-Jan-23          TIME: 20:22:24  
 **********************************************************************************************************************************

 SHA1:             8dbd9ae1082e4ce945b0f27595c9eb2d4aa09004
 **********************************************************************************************************************************


 Variable memory set to  125000000 words,  buffer space 

 SETTING NELECT         =        16.00000000                                  
 SETTING BASIS          =    6-31G*
 ZSYMEL=NOSYM


Geometry recognized as XYZ



 Recomputing integrals since basis changed


 Using spherical harmonics

 Library entry C      S 6-31G                selected for orbital group  1
 Library entry C      P 6-31G                selected for orbital group  1
 Library entry C      D 6-31G*               selected for orbital group  1
 Library entry H      S 6-31G                selected for orbital group  2


 PROGRAM * SEWARD (Integral evaluation for generally contracted gaussian basis sets)     Author: Roland Lindh, 1990

 Geometry written to block  1 of record 700


 Point group  C1  



 ATOMIC COORDINATES

 NR  ATOM    CHARGE       X              Y              Z

   1  C       6.00    0.000000000    0.000000000    1.257612736
   2  C       6.00    0.000000000    0.000000000   -1.271407737
   3  H       1.00    0.000000000    1.701320430    2.373684985
   4  H       1.00    0.000000000   -1.701320430    2.373684985
   5  H       1.00    0.000000000    1.756500433   -2.293182652
   6  H       1.00    0.000000000   -1.756500433   -2.293182652

 Bond lengths in Bohr (Angstrom)

 1-2  2.529020473  1-3  2.034725650  1-4  2.034725650  2-5  2.032072279  2-6  2.032072279
     ( 1.338300000)     ( 1.076730444)     ( 1.076730444)     ( 1.075326341)     ( 1.075326341)

 Bond angles

  1-2-5  120.18701752   1-2-6  120.18701752   2-1-3  123.26501712   2-1-4  123.26501712

  3-1-4  113.46996576   5-2-6  119.62596496

 NUCLEAR CHARGE:                   16
 NUMBER OF PRIMITIVE AOS:          72
 NUMBER OF SYMMETRY AOS:           70
 NUMBER OF CONTRACTIONS:           36   (   36A   )
 NUMBER OF CORE ORBITALS:           2   (    2A   )
 NUMBER OF VALENCE ORBITALS:       12   (   12A   )


 NUCLEAR REPULSION ENERGY   33.40138367

 EXTRA SYMMETRY OF AOS IN SYMMETRY 1:   1 1 1 2 1 1 2 1 1 1   3 2 1 1 1 1 1 2 1 1   2 1 1 1 3 2 1 1 1 1   1 1 1 1 1 1

 Eigenvalues of metric

         1 0.831E-02 0.172E-01 0.374E-01 0.464E-01 0.709E-01 0.192E+00 0.211E+00 0.225E+00


 Contracted 2-electron integrals neglected if value below      1.0D-11
 AO integral compression algorithm  1   Integral accuracy      1.0D-11

     0.786 MB (compressed) written to integral file ( 37.9%)


 NUMBER OF SORTED TWO-ELECTRON INTEGRALS:     222111.     BUFFER LENGTH:  32768
 NUMBER OF SEGMENTS:   1  SEGMENT LENGTH:     222111      RECORD LENGTH: 524288

 Memory used in sort:       0.78 MW

 SORT1 READ      284735. AND WROTE       98531. INTEGRALS IN      1 RECORDS. CPU TIME:     0.00 SEC, REAL TIME:     0.00 SEC
 SORT2 READ       98531. AND WROTE      222111. INTEGRALS IN      3 RECORDS. CPU TIME:     0.02 SEC, REAL TIME:     0.03 SEC

 FILE SIZES:   FILE 1:    30.9 MBYTE,  FILE 4:     4.2 MBYTE,   TOTAL:     35.1 MBYTE

 OPERATOR DM      FOR CENTER  0  COORDINATES:    0.000000    0.000000    0.000000


 **********************************************************************************************************************************
 DATASETS  * FILE   NREC   LENGTH (MB)   RECORD NAMES
              1      19       30.63       500      610      700      900      950      970     1000      129      960     1100   
                                          VAR    BASINP    GEOM    SYMINP    ZMAT    AOBASIS   BASIS     P2S    ABASIS      S 
                                         1400     1410     1200     1210     1080     1600     1650     1300     1700   
                                           T        V       H0       H01     AOSYM     SMH    MOLCAS    ERIS     OPER   

 PROGRAMS   *        TOTAL       INT
 CPU TIMES  *         0.35      0.25
 REAL TIME  *         0.57 SEC
 DISK USED  *        35.45 MB
 **********************************************************************************************************************************


 PROGRAM * RHF-SCF (CLOSED SHELL)       Authors: W. Meyer, H.-J. Werner


 NUMBER OF ELECTRONS:       8+    8-    SPACE SYMMETRY=1    SPIN SYMMETRY: Singlet 
 CONVERGENCE THRESHOLDS:    1.00E-05 (Density)    1.00E-07 (Energy)
 MAX. NUMBER OF ITERATIONS:       60
 INTERPOLATION TYPE:            DIIS
 INTERPOLATION STEPS:              2 (START)      1 (STEP)
 LEVEL SHIFTS:                  0.00 (CLOSED)  0.00 (OPEN) 



 Orbital guess generated from atomic densities. Full valence occupancy:    8

 Molecular orbital dump at record        2100.2

 Initial occupancy:   8

 ITERATION    DDIFF          GRAD             ENERGY        2-EL.EN.            DIPOLE MOMENTS         DIIS   ORB.
    1      0.000D+00      0.000D+00       -78.00598282    118.712876    0.00000    0.00000    0.01813    0    start
    2      0.000D+00      0.859D-02       -78.02793586    116.873726    0.00000   -0.00000    0.00772    1    diag
    3      0.821D-02      0.292D-02       -78.03006432    117.504517    0.00000    0.00000    0.00819    2    diag
    4      0.264D-02      0.713D-03       -78.03027408    117.405783    0.00000   -0.00000    0.00814    3    diag
    5      0.107D-02      0.689D-04       -78.03027622    117.408655    0.00000    0.00000    0.00768    4    diag
    6      0.146D-03      0.103D-04       -78.03027626    117.408290    0.00000   -0.00000    0.00817    5    diag
    7      0.171D-04      0.459D-05       -78.03027627    117.408247    0.00000   -0.00000    0.00804    6    diag
    8      0.360D-05      0.790D-06       -78.03027627    117.408255    0.00000   -0.00000    0.00809    0    orth

 Final occupancy:   8

 !RHF STATE  1.1 Energy               -78.030276268647
 Nuclear energy                        33.40138367
 One-electron energy                 -170.13578769
 Two-electron energy                   58.70412775
 Virial quotient                       -1.00012820
 !RHF STATE  1.1 Dipole moment          0.00000000    -0.00000000     0.00808755
 Dipole moment /Debye                   0.00000000    -0.00000000     0.02055516

 ELECTRON ORBITALS
 =================

  Orbital  Occupation    Energy     Coefficients
    1.1     2.00000   -11.22524     1 1s    0.58469     2 1s    0.80617
    2.1     2.00000   -11.22356     1 1s    0.80647     2 1s   -0.58510
    3.1     2.00000    -1.02690     1 1s    0.30167     2 1s    0.30257
    4.1     2.00000    -0.79222     1 1s    0.24379
    5.1     2.00000    -0.63874     1 2py   0.30793     2 2py   0.33495
    6.1     2.00000    -0.58261     1 2pz  -0.40363     2 2pz   0.41049
    7.1     2.00000    -0.50525     1 2py   0.31845     2 2py  -0.29172
    8.1     2.00000    -0.36926     1 2px   0.37258     1 2px   0.30747     2 2px   0.37397     2 2px   0.30841
    9.1     0.00000     0.17858     1 2px  -0.34236     1 2px  -0.73434     2 2px   0.34177     2 2px   0.73342
   10.1     0.00000     0.26629     1 1s   -1.43478     1 2pz  -0.67930     2 1s   -1.55708     2 2pz   0.61431     3 1s    1.02829
                                    4 1s    1.02829     5 1s    1.05289     6 1s    1.05289
   11.1     0.00000     0.29457     1 2py  -0.25485     1 2py  -0.77298     2 2py  -0.84892     3 1s    1.07376     4 1s   -1.07376
                                    5 1s    1.13264     6 1s   -1.13264
   12.1     0.00000     0.30934     1 1s   -1.98053     2 1s    1.88428     3 1s    1.10845     4 1s    1.10845     5 1s   -1.04436
                                    6 1s   -1.04436
   13.1     0.00000     0.39116     1 2py   1.85375     2 2py  -1.90333     3 1s   -1.61938     4 1s    1.61938     5 1s    1.64439
                                    6 1s   -1.64439
   14.1     0.00000     0.49028     1 1s   -2.94983     1 2pz   2.95874     2 1s    3.02993     2 2pz   2.94633     3 1s   -0.63400
                                    4 1s   -0.63400     5 1s    0.54359     6 1s    0.54359
   15.1     0.00000     0.66993     1 2pz   0.53799     1 2pz  -1.21259     2 1s   -0.40556     2 2pz  -0.57446     2 2pz   0.86706
   16.1     0.00000     0.76283     1 2py  -0.41941     1 2py   0.79340     2 2py  -0.37729     2 2py   0.74995     3 1s   -0.40359
                                    4 1s    0.40359     5 1s   -0.36889     6 1s    0.36889
   17.1     0.00000     0.77723     1 2px  -0.73959     1 2px   0.63791     2 2px  -0.74162     2 2px   0.64116
   18.1     0.00000     0.86316     1 1s   -0.88450     1 1s    1.28366     1 2pz   0.53845     2 1s   -0.89139     2 1s    1.65373
                                    3 1s   -0.39096     3 1s   -0.28119     4 1s   -0.39096     4 1s   -0.28119     5 1s   -0.40003
                                    6 1s   -0.40003
   19.1     0.00000     0.89047     1 2px   0.81968     1 2px  -1.07454     2 2px  -0.81744     2 2px   1.07304
   20.1     0.00000     0.95475     1 1s   -0.90126     1 2pz   0.61696     1 2pz  -0.54235     2 1s    0.81188     2 2pz   0.58876
                                    2 2pz  -0.41602     3 1s    0.39220     4 1s    0.39220     5 1s   -0.37579     6 1s   -0.37579
   21.1     0.00000     1.11638     1 2py  -0.74432     1 2py   1.24347     2 2py  -0.63128     2 2py   0.95116     3 1s    0.39849
                                    3 1s   -1.14299     4 1s   -0.39849     4 1s    1.14299     5 1s    0.36440     5 1s   -0.97959
                                    6 1s   -0.36440     6 1s    0.97959
   22.1     0.00000     1.16069     1 2py  -0.86256     1 2py   2.80695     2 2py   0.98413     2 2py  -3.07331     3 1s   -1.41973
                                    4 1s    1.41973     5 1s    1.59804     6 1s   -1.59804
   23.1     0.00000     1.21086     1 1s   -0.60917     1 1s    1.32892     1 2pz  -0.36380     2 1s   -1.10905     2 1s    1.52837
                                    2 2pz   0.65138     2 2pz  -1.16626     5 1s    0.62698     5 1s   -1.25836     6 1s    0.62698
                                    6 1s   -1.25836
   24.1     0.00000     1.22776     1 1s   -1.04815     1 1s    1.51508     1 2pz  -0.72751     1 2pz   1.25469     2 1s    0.41732
                                    2 2pz  -0.30755     2 2pz   0.67154     3 1s    0.64001     3 1s   -1.29290     4 1s    0.64001
                                    4 1s   -1.29290     5 1s    0.31001     6 1s    0.31001
   25.1     0.00000     1.33850     1 1s    1.54854     1 1s   -5.32618     1 2pz  -0.26990     1 2pz   1.89813     2 1s   -1.63079
                                    2 1s    5.42573     2 2pz  -0.25817     2 2pz   1.92510     3 1s    0.30304     4 1s    0.30304
                                    5 1s   -0.35960     6 1s   -0.35960
   26.1     0.00000     1.47435     1 2py  -2.46410     2 2py   2.60866     3 1s    0.67585     3 1s    0.64073     4 1s   -0.67585
                                    4 1s   -0.64073     5 1s   -0.71879     5 1s   -0.69714     6 1s    0.71879     6 1s    0.69714
   27.1     0.00000     1.73912     1 3d1+  0.62042     2 3d1+ -0.61771
   28.1     0.00000     1.82178     1 3d2-  0.67639     2 3d2-  0.68603
   29.1     0.00000     2.12780     1 3d2-  0.74063     2 3d2- -0.73170
   30.1     0.00000     2.20856     1 1s   -0.52161     1 2pz  -0.29089     1 3d2+  0.73428     2 1s   -0.69890     2 3d2+  0.69230
                                    3 1s    0.38440     4 1s    0.38440     5 1s    0.36580     6 1s    0.36580
   31.1     0.00000     2.33128     1 2py  -0.28240     1 3d1- -0.67170     2 2py  -0.27063     2 2py  -0.32643     2 3d1-  0.71122
                                    3 1s    0.49475     4 1s   -0.49475     5 1s    0.54264     6 1s   -0.54264
   32.1     0.00000     2.40691     1 1s   -0.48140     1 2pz   0.27438     1 2pz  -0.48878     1 3d0   0.69398     2 1s   -0.53250
                                    2 2pz  -0.29016     2 2pz   0.40752     2 3d0   0.68120
   33.1     0.00000     2.62887     1 1s   -0.32366     1 1s    1.36812     1 2pz  -0.29108     1 3d2+ -0.75877     2 1s    0.25510
                                    2 1s   -1.33108     2 2pz  -0.26485     2 3d2+  0.83470     3 1s   -0.41528     4 1s   -0.41528
                                    5 1s    0.47497     6 1s    0.47497
   34.1     0.00000     2.70805     1 2px  -0.26450     1 3d1+  0.90171     2 2px   0.26445     2 3d1+  0.90356
   35.1     0.00000     3.06244     1 1s   -0.32355     1 1s   -2.00896     1 2pz   0.79403     1 2pz   1.18138     1 3d0  -1.10847
                                    2 1s    0.30810     2 1s    2.03649     2 2pz   0.79820     2 2pz   1.17461     2 3d0   1.11556
   36.1     0.00000     3.06265     1 2py   0.53572     1 3d1-  0.99432     2 2py  -0.57655     2 3d1-  0.94693     3 1s   -0.49877
                                    4 1s    0.49877     5 1s    0.45475     6 1s   -0.45475


 HOMO      8.1    -0.369255 =     -10.0479eV
 LUMO      9.1     0.178580 =       4.8594eV
 LUMO-HOMO         0.547835 =      14.9073eV


 **********************************************************************************************************************************
 DATASETS  * FILE   NREC   LENGTH (MB)   RECORD NAMES
              1      19       30.63       500      610      700      900      950      970     1000      129      960     1100   
                                          VAR    BASINP    GEOM    SYMINP    ZMAT    AOBASIS   BASIS     P2S    ABASIS      S 
                                         1400     1410     1200     1210     1080     1600     1650     1300     1700   
                                           T        V       H0       H01     AOSYM     SMH    MOLCAS    ERIS     OPER   

              2       4        2.86       700     1000      520     2100   
                                         GEOM     BASIS   MCVARS     RHF  

 PROGRAMS   *        TOTAL    HF-SCF       INT
 CPU TIMES  *         0.46      0.11      0.25
 REAL TIME  *         0.69 SEC
 DISK USED  *        35.45 MB
 **********************************************************************************************************************************


 PROGRAM * MULTI (Direct Multiconfiguration SCF)       Authors: P.J. Knowles, H.-J. Werner (1984)


 Number of closed-shell orbitals:   7 (   7 )
 Number of active  orbitals:        2 (   2 )
 Number of external orbitals:      27 (  27 )

 State symmetry 1

 Number of electrons:     2    Spin symmetry=Singlet   Space symmetry=1
 Number of states:        3
 Number of CSFs:          3   (4 determinants, 4 intermediate states)

 Molecular orbitals read from record     2100.2  Type=RHF/CANONICAL (state 1.1)

 EXTRA SYMMETRY OF MOS IN SYMMETRY 1:   1 1 1 1 1 1 1 2 2 1   1 1 1 1 1 1 2 1 2 1   1 1 1 1 1 1 2 3 3 1   1 1 1 2 1 1

 Wavefunction dump at record             2140.2

 Convergence thresholds  0.10E-01 (gradient)  0.10E-05 (energy)  0.10E-02 (step length)

 Weight factors for state symmetry  1:    0.33333   0.33333   0.33333

 Number of orbital rotations:      257   (    14 Core/Active    189 Core/Virtual   0 Active/Active     54 Active/Virtual)
 Total number of variables:        269

 Micro-Iterations solved by the two-step solver

 ITER. MIC  NCI  NEG     ENERGY(VAR)     ENERGY(PROJ)   ENERGY CHANGE     GRAD(0)  GRAD(ORB)   GRAD(CI)     STEP       TIME

   1    3    3    0     -77.72911301     -77.73535905   -0.00624604    0.13262951 0.00000154 0.00000000  0.63D-01      0.06
   2    2    3    0     -77.73526048     -77.73526425   -0.00000377    0.00304472 0.00000186 0.00000000  0.16D-02      0.10
   3    2    3    0     -77.73526425     -77.73526425   -0.00000000    0.00000216 0.00000000 0.00000000  0.13D-05      0.13

 ** WVFN ****  CONVERGENCE REACHED, FINAL GRADIENT:  0.13D-11



 Results for state 1.1
 =====================

 !MCSCF STATE  1.1 Energy             -78.047950556741
 Nuclear energy                        33.40138367
 Kinetic energy                        78.08856408
 One electron energy                 -170.26792612
 Two electron energy                   58.81859189
 Virial ratio                           1.99947990

 !MCSCF STATE  1.1 Dipole moment        0.00000000     0.00000000     0.01029699
 Dipole moment /Debye                   0.00000000     0.00000000     0.02617063

 Results for state 2.1
 =====================

 !MCSCF STATE  2.1 Energy             -77.672009301547
 Nuclear energy                        33.40138367
 Kinetic energy                        78.26880334
 One electron energy                 -169.69450288
 Two electron energy                   58.62110991
 Virial ratio                           1.99237507

 !MCSCF STATE  2.1 Dipole moment        0.00000000     0.00000000     0.02207062
 Dipole moment /Debye                   0.00000000     0.00000000     0.05609424

 Results for state 3.1
 =====================

 !MCSCF STATE  3.1 Energy             -77.485832902224
 Nuclear energy                        33.40138367
 Kinetic energy                        78.44900946
 One electron energy                 -169.12117422
 Two electron energy                   58.23395765
 Virial ratio                           1.98772226

 !MCSCF STATE  3.1 Dipole moment        0.00000000     0.00000000    -0.01265114
 Dipole moment /Debye                   0.00000000     0.00000000    -0.03215387

 State-averaged charge density matrix saved on record  2140.2 (density set 1)

 !MCSCF expec         <1.1|DMZ|1.1>     0.010296993384 au =     0.026170632446 Debye
 !MCSCF trans         <2.1|DMZ|1.1>     1.510450404469 au =     3.838930538990 Debye
 !MCSCF expec         <2.1|DMZ|2.1>     0.022070617197 au =     0.056094239256 Debye
 !MCSCF trans         <3.1|DMZ|1.1>    -0.003581926110 au =    -0.009103751761 Debye
 !MCSCF trans         <3.1|DMZ|2.1>     2.273579508188 au =     5.778484206421 Debye
 !MCSCF expec         <3.1|DMZ|3.1>    -0.012651135486 au =    -0.032153872930 Debye


 NATURAL ORBITALS (state averaged)
 =================================

  Orbital  Occupation    Energy     Coefficients
    1.1     2.00000   -11.24139     1 1s    0.30916     2 1s    0.94678
    2.1     2.00000   -11.23914     1 1s    0.94691     2 1s   -0.30957
    3.1     2.00000    -1.04164     1 1s    0.30906     2 1s    0.31122
    4.1     2.00000    -0.80002     1 1s    0.28990     2 1s   -0.28427
    5.1     2.00000    -0.65162     1 2py   0.31279     2 2py   0.34142
    6.1     2.00000    -0.59778     1 2pz  -0.40571     2 2pz   0.41185
    7.1     2.00000    -0.51184     1 2py   0.32583     2 2py  -0.29729
    8.1     1.00000     0.03370     1 2px  -0.38027     1 2px  -0.68740     2 2px   0.37980     2 2px   0.68637
    9.1     1.00000    -0.22539     1 2px   0.35714     1 2px   0.31895     2 2px   0.35864     2 2px   0.31975
   10.1    -0.00000     0.26353     1 1s   -1.41258     1 2pz  -0.68501     2 1s   -1.57040     2 2pz   0.61959     3 1s    1.01891
                                    4 1s    1.01891     5 1s    1.06078     6 1s    1.06078
   11.1    -0.00000     0.28612     1 2py  -0.25286     1 2py  -0.76150     2 2py  -0.84110     3 1s    1.06397     4 1s   -1.06397
                                    5 1s    1.12541     6 1s   -1.12541
   12.1    -0.00000     0.30625     1 1s   -2.01743     2 1s    1.89473     3 1s    1.11156     4 1s    1.11156     5 1s   -1.02987
                                    6 1s   -1.02987
   13.1    -0.00000     0.38697     1 2py   0.25031     1 2py   1.84062     2 2py  -0.25180     2 2py  -1.88753     3 1s   -1.61338
                                    4 1s    1.61338     5 1s    1.63663     6 1s   -1.63663
   14.1    -0.00000     0.48751     1 1s   -2.92654     1 2pz   2.94129     2 1s    3.00797     2 2pz   2.92761     3 1s   -0.64346
                                    4 1s   -0.64346     5 1s    0.55306     6 1s    0.55306
   15.1    -0.00000     0.65844     1 1s   -0.27196     1 2pz   0.52855     1 2pz  -1.17527     2 1s   -0.30362     2 2pz  -0.56766
                                    2 2pz   0.85697
   16.1    -0.00000     0.75236     1 2py  -0.43133     1 2py   0.79754     2 2py  -0.38811     2 2py   0.76071     3 1s   -0.39827
                                    4 1s    0.39827     5 1s   -0.36486     6 1s    0.36486
   17.1    -0.00000     0.77120     1 2px  -0.74408     1 2px   0.62960     2 2px  -0.75036     2 2px   0.63893
   18.1    -0.00000     0.86034     1 1s   -0.87535     1 1s    1.29109     1 2pz   0.58413     2 1s   -0.88725     2 1s    1.69328
                                    3 1s   -0.38746     3 1s   -0.29307     4 1s   -0.38746     4 1s   -0.29307     5 1s   -0.40657
                                    6 1s   -0.40657
   19.1    -0.00000     0.87284     1 2px   0.80610     1 2px  -1.10669     2 2px  -0.79985     2 2px   1.10181
   20.1    -0.00000     0.93586     1 1s   -0.75978     1 2pz   0.62246     1 2pz  -0.63510     2 1s    0.63251     2 2pz   0.59240
                                    2 2pz  -0.49669     3 1s    0.39622     4 1s    0.39622     5 1s   -0.37175     6 1s   -0.37175
   21.1    -0.00000     1.10090     1 2py  -0.72157     1 2py   1.21214     2 2py  -0.63214     2 2py   0.98867     3 1s    0.39730
                                    3 1s   -1.13541     4 1s   -0.39730     4 1s    1.13541     5 1s    0.36741     5 1s   -1.00716
                                    6 1s   -0.36741     6 1s    1.00716
   22.1    -0.00000     1.14803     1 2py  -0.86908     1 2py   2.82664     2 2py   0.97292     2 2py  -3.06648     3 1s   -1.44106
                                    4 1s    1.44106     5 1s    1.59439     6 1s   -1.59439
   23.1    -0.00000     1.20738     1 1s   -0.65227     1 1s    1.45996     1 2pz  -0.38684     2 1s   -1.06982     2 1s    1.41202
                                    2 2pz   0.65870     2 2pz  -1.20671     5 1s    0.62659     5 1s   -1.24583     6 1s    0.62659
                                    6 1s   -1.24583
   24.1    -0.00000     1.22558     1 1s   -0.98654     1 1s    1.32408     1 2pz  -0.74112     1 2pz   1.32468     2 1s    0.57255
                                    2 2pz  -0.32460     2 2pz   0.74651     3 1s    0.64232     3 1s   -1.27991     4 1s    0.64232
                                    4 1s   -1.27991     5 1s    0.31279     6 1s    0.31279
   25.1    -0.00000     1.31875     1 1s    1.57063     1 1s   -5.35596     1 2pz   1.84472     2 1s   -1.65257     2 1s    5.45387
                                    2 2pz   1.87403     3 1s    0.34406     4 1s    0.34406     5 1s   -0.39991     6 1s   -0.39991
   26.1    -0.00000     1.46572     1 2py  -2.46766     2 2py   2.61231     3 1s    0.67562     3 1s    0.64146     4 1s   -0.67562
                                    4 1s   -0.64146     5 1s   -0.71672     5 1s   -0.69894     6 1s    0.71672     6 1s    0.69894
   27.1    -0.00000     1.71340     1 3d1+  0.61989     2 3d1+ -0.61771
   28.1    -0.00000     1.80790     1 3d2-  0.67536     2 3d2-  0.68705
   29.1    -0.00000     2.10469     1 3d2-  0.74157     2 3d2- -0.73075
   30.1    -0.00000     2.19316     1 1s   -0.51661     1 2pz  -0.29453     1 3d2+  0.73322     2 1s   -0.69574     2 3d2+  0.69241
                                    3 1s    0.38626     4 1s    0.38626     5 1s    0.36776     6 1s    0.36776
   31.1    -0.00000     2.31506     1 2py  -0.28926     1 3d1- -0.67013     2 2py  -0.27753     2 2py  -0.32321     2 3d1-  0.70925
                                    3 1s    0.49793     4 1s   -0.49793     5 1s    0.54631     6 1s   -0.54631
   32.1    -0.00000     2.38678     1 1s   -0.47965     1 2pz   0.28092     1 2pz  -0.49169     1 3d0   0.69346     2 1s   -0.53031
                                    2 2pz  -0.29539     2 2pz   0.41023     2 3d0   0.68127
   33.1    -0.00000     2.60910     1 1s   -0.32464     1 1s    1.37457     1 2pz  -0.28965     1 3d2+ -0.75851     2 1s    0.25587
                                    2 1s   -1.33631     2 2pz  -0.26375     2 3d2+  0.83349     3 1s   -0.41856     4 1s   -0.41856
                                    5 1s    0.47785     6 1s    0.47785
   34.1    -0.00000     2.68550     1 2px  -0.26528     1 3d1+  0.90229     2 2px   0.26520     2 3d1+  0.90376
   35.1    -0.00000     3.04439     1 1s   -0.31631     1 1s   -2.03465     1 2pz   0.78642     1 2pz   1.19489     1 3d0  -1.11045
                                    2 1s    0.30114     2 1s    2.06217     2 2pz   0.79074     2 2pz   1.18795     2 3d0   1.11687
   36.1    -0.00000     3.04982     1 2py   0.53569     1 3d1-  0.99383     2 2py  -0.57681     2 3d1-  0.94665     3 1s   -0.50106
                                    4 1s    0.50106     5 1s    0.45706     6 1s   -0.45706


 Natural orbital dump (state averaged) at molpro section  2140.2    (Orbital set 2)



 **********************************************************************************************************************************
 DATASETS  * FILE   NREC   LENGTH (MB)   RECORD NAMES
              1      20       31.36       500      610      700      900      950      970     1000      129      960     1100   
                                          VAR    BASINP    GEOM    SYMINP    ZMAT    AOBASIS   BASIS     P2S    ABASIS      S 
                                         1400     1410     1200     1210     1080     1600     1650     1300     1700     1380   
                                           T        V       H0       H01     AOSYM     SMH    MOLCAS    ERIS     OPER     JKOP   

              2       5        5.42       700     1000      520     2100     2140   
                                         GEOM     BASIS   MCVARS     RHF     MCSCF   

 PROGRAMS   *        TOTAL     MULTI    HF-SCF       INT
 CPU TIMES  *         0.63      0.17      0.11      0.25
 REAL TIME  *         0.89 SEC
 DISK USED  *        38.55 MB
 **********************************************************************************************************************************
 Molecular orbitals read from record     2140.2  Type=MCSCF/NATURAL (state averaged)
 Occupation numbers read from record     2140.2  Type=MCSCF/NATURAL (state averaged)
 Orbital energies read from record       2140.2  Type=MCSCF/NATURAL (state averaged)
 Redundancy group numbers read from rec  2140.2  Type=MCSCF/NATURAL (state averaged)

 MULTI/6-31G* energy=    -77.485832902224

           MULTI          HF-SCF
    -77.48583290    -78.03027627
 **********************************************************************************************************************************
 Molpro calculation terminated
