
 Primary working directories    : /scratch.local/johan406.molpro_temp/molpro.tonmWVPLbS
 Secondary working directories  : /scratch.local/johan406.molpro_temp/molpro.tonmWVPLbS
 Wavefunction directory         : /home/goodpast/johan406/wfu/
 Main file repository           : /scratch.local/johan406.molpro_temp/molpro.tonmWVPLbS/

 id        : roweumn

 Nodes     nprocs
 cn0117       1

 Using customized tuning parameters: mindgm=1; mindgv=20; mindgc=4; mindgr=1; noblas=0; minvec=7
 default implementation of scratch files=df  


 Variables initialized (934), CPU time= 0.01 sec
                                                                                 !leave this line blank
 
 gprint, orbitals=30
 memory, 125., m
 symmetry, nosym
 nelect=16
 basis=6-31g*
 
 geometry={
 C -0.0 0.0 0.6652
 C 0.0 0.0 -0.6731
 H 0.0 0.8992 1.2577
 H 0.0 -0.8992 1.2577
 H 0.0 0.9306 -1.2118
 H -0.0 -0.9306 -1.2118
 }
 
 hf
 {multi,
 closed 7
 occ 9
 wf,spin=0;STATE,3
 }
 
 Commands  initialized (763), CPU time= 0.01 sec, 617 directives.
 Default parameters read. Elapsed time= 0.08 sec

 Checking input...
 Passed
1


                                         ***  PROGRAM SYSTEM MOLPRO  ***
                                       Copyright, TTI GmbH Stuttgart, 2015
                                    Version 2019.2 linked Oct 25 2019 22:50:27


 **********************************************************************************************************************************
 LABEL *                                                                                 
  64 bit serial version                                                                  DATE: 26-Jan-23          TIME: 20:22:30  
 **********************************************************************************************************************************

 SHA1:             8dbd9ae1082e4ce945b0f27595c9eb2d4aa09004
 **********************************************************************************************************************************


 Variable memory set to  125000000 words,  buffer space 

 SETTING NELECT         =        16.00000000                                  
 SETTING BASIS          =    6-31G*
 ZSYMEL=NOSYM


Geometry recognized as XYZ



 Recomputing integrals since basis changed


 Using spherical harmonics

 Library entry C      S 6-31G                selected for orbital group  1
 Library entry C      P 6-31G                selected for orbital group  1
 Library entry C      D 6-31G*               selected for orbital group  1
 Library entry H      S 6-31G                selected for orbital group  2


 PROGRAM * SEWARD (Integral evaluation for generally contracted gaussian basis sets)     Author: Roland Lindh, 1990

 Geometry written to block  1 of record 700


 Point group  C1  



 ATOMIC COORDINATES

 NR  ATOM    CHARGE       X              Y              Z

   1  C       6.00    0.000000000    0.000000000    1.257045818
   2  C       6.00    0.000000000    0.000000000   -1.271974654
   3  H       1.00    0.000000000    1.699241731    2.376708547
   4  H       1.00    0.000000000   -1.699241731    2.376708547
   5  H       1.00    0.000000000    1.758579132   -2.289970118
   6  H       1.00    0.000000000   -1.758579132   -2.289970118

 Bond lengths in Bohr (Angstrom)

 1-2  2.529020473  1-3  2.034961200  1-4  2.034961200  2-5  2.031973259  2-6  2.031973259
     ( 1.338300000)     ( 1.076855092)     ( 1.076855092)     ( 1.075273942)     ( 1.075273942)

 Bond angles

  1-2-5  120.06542765   1-2-6  120.06542765   2-1-3  123.38164785   2-1-4  123.38164785

  3-1-4  113.23670430   5-2-6  119.86914470

 NUCLEAR CHARGE:                   16
 NUMBER OF PRIMITIVE AOS:          72
 NUMBER OF SYMMETRY AOS:           70
 NUMBER OF CONTRACTIONS:           36   (   36A   )
 NUMBER OF CORE ORBITALS:           2   (    2A   )
 NUMBER OF VALENCE ORBITALS:       12   (   12A   )


 NUCLEAR REPULSION ENERGY   33.40115819

 EXTRA SYMMETRY OF AOS IN SYMMETRY 1:   1 1 1 2 1 1 2 1 1 1   3 2 1 1 1 1 1 2 1 1   2 1 1 1 3 2 1 1 1 1   1 1 1 1 1 1

 Eigenvalues of metric

         1 0.831E-02 0.172E-01 0.373E-01 0.465E-01 0.709E-01 0.192E+00 0.211E+00 0.225E+00


 Contracted 2-electron integrals neglected if value below      1.0D-11
 AO integral compression algorithm  1   Integral accuracy      1.0D-11

     0.786 MB (compressed) written to integral file ( 37.9%)


 NUMBER OF SORTED TWO-ELECTRON INTEGRALS:     222111.     BUFFER LENGTH:  32768
 NUMBER OF SEGMENTS:   1  SEGMENT LENGTH:     222111      RECORD LENGTH: 524288

 Memory used in sort:       0.78 MW

 SORT1 READ      284735. AND WROTE       98531. INTEGRALS IN      1 RECORDS. CPU TIME:     0.00 SEC, REAL TIME:     0.01 SEC
 SORT2 READ       98531. AND WROTE      222111. INTEGRALS IN      3 RECORDS. CPU TIME:     0.02 SEC, REAL TIME:     0.02 SEC

 FILE SIZES:   FILE 1:    30.9 MBYTE,  FILE 4:     4.2 MBYTE,   TOTAL:     35.1 MBYTE

 OPERATOR DM      FOR CENTER  0  COORDINATES:    0.000000    0.000000    0.000000


 **********************************************************************************************************************************
 DATASETS  * FILE   NREC   LENGTH (MB)   RECORD NAMES
              1      19       30.63       500      610      700      900      950      970     1000      129      960     1100   
                                          VAR    BASINP    GEOM    SYMINP    ZMAT    AOBASIS   BASIS     P2S    ABASIS      S 
                                         1400     1410     1200     1210     1080     1600     1650     1300     1700   
                                           T        V       H0       H01     AOSYM     SMH    MOLCAS    ERIS     OPER   

 PROGRAMS   *        TOTAL       INT
 CPU TIMES  *         0.35      0.25
 REAL TIME  *         0.56 SEC
 DISK USED  *        35.45 MB
 **********************************************************************************************************************************


 PROGRAM * RHF-SCF (CLOSED SHELL)       Authors: W. Meyer, H.-J. Werner


 NUMBER OF ELECTRONS:       8+    8-    SPACE SYMMETRY=1    SPIN SYMMETRY: Singlet 
 CONVERGENCE THRESHOLDS:    1.00E-05 (Density)    1.00E-07 (Energy)
 MAX. NUMBER OF ITERATIONS:       60
 INTERPOLATION TYPE:            DIIS
 INTERPOLATION STEPS:              2 (START)      1 (STEP)
 LEVEL SHIFTS:                  0.00 (CLOSED)  0.00 (OPEN) 



 Orbital guess generated from atomic densities. Full valence occupancy:    8

 Molecular orbital dump at record        2100.2

 Initial occupancy:   8

 ITERATION    DDIFF          GRAD             ENERGY        2-EL.EN.            DIPOLE MOMENTS         DIIS   ORB.
    1      0.000D+00      0.000D+00       -78.00589830    118.712470    0.00000    0.00000    0.01965    0    start
    2      0.000D+00      0.859D-02       -78.02785132    116.873241   -0.00000    0.00000    0.00829    1    diag
    3      0.821D-02      0.292D-02       -78.02998013    117.504077   -0.00000    0.00000    0.00883    2    diag
    4      0.264D-02      0.713D-03       -78.03018998    117.405341   -0.00000   -0.00000    0.00876    3    diag
    5      0.107D-02      0.691D-04       -78.03019212    117.408209   -0.00000   -0.00000    0.00826    4    diag
    6      0.146D-03      0.105D-04       -78.03019217    117.407850   -0.00000    0.00000    0.00878    5    diag
    7      0.173D-04      0.479D-05       -78.03019217    117.407803   -0.00000    0.00000    0.00865    6    diag
    8      0.374D-05      0.826D-06       -78.03019217    117.407812   -0.00000   -0.00000    0.00870    0    orth

 Final occupancy:   8

 !RHF STATE  1.1 Energy               -78.030192171428
 Nuclear energy                        33.40115819
 One-electron energy                 -170.13525632
 Two-electron energy                   58.70390597
 Virial quotient                       -1.00012951
 !RHF STATE  1.1 Dipole moment         -0.00000000    -0.00000000     0.00869502
 Dipole moment /Debye                  -0.00000000    -0.00000000     0.02209908

 ELECTRON ORBITALS
 =================

  Orbital  Occupation    Energy     Coefficients
    1.1     2.00000   -11.22525     1 1s    0.57864     2 1s    0.81052
    2.1     2.00000   -11.22356     1 1s    0.81082     2 1s   -0.57906
    3.1     2.00000    -1.02691     1 1s    0.30162     2 1s    0.30261
    4.1     2.00000    -0.79222     1 1s    0.24394
    5.1     2.00000    -0.63877     1 2py   0.30681     2 2py   0.33597
    6.1     2.00000    -0.58257     1 2pz  -0.40335     2 2pz   0.41073
    7.1     2.00000    -0.50518     1 2py   0.31944     2 2py  -0.29062
    8.1     2.00000    -0.36926     1 2px   0.37253     1 2px   0.30744     2 2px   0.37403     2 2px   0.30845
    9.1     0.00000     0.17858     1 2px  -0.34238     1 2px  -0.73438     2 2px   0.34175     2 2px   0.73338
   10.1     0.00000     0.26625     1 1s   -1.43004     1 2pz  -0.68169     2 1s   -1.56136     2 2pz   0.61164     3 1s    1.02727
                                    4 1s    1.02727     5 1s    1.05351     6 1s    1.05351
   11.1     0.00000     0.29456     1 2py  -0.25509     1 2py  -0.77028     2 2py  -0.85193     3 1s    1.07166     4 1s   -1.07166
                                    5 1s    1.13500     6 1s   -1.13500
   12.1     0.00000     0.30930     1 1s   -1.98303     2 1s    1.88003     3 1s    1.11064     4 1s    1.11064     5 1s   -1.04204
                                    6 1s   -1.04204
   13.1     0.00000     0.39113     1 2py   1.85149     2 2py  -1.90511     3 1s   -1.61806     4 1s    1.61806     5 1s    1.64533
                                    6 1s   -1.64533
   14.1     0.00000     0.49020     1 1s   -2.94682     1 2pz   2.95850     2 1s    3.03295     2 2pz   2.94517     3 1s   -0.63686
                                    4 1s   -0.63686     5 1s    0.53957     6 1s    0.53957
   15.1     0.00000     0.67001     1 2pz   0.53660     1 2pz  -1.22589     2 1s   -0.41755     2 2pz  -0.57589     2 2pz   0.85398
   16.1     0.00000     0.76291     1 2py  -0.42098     1 2py   0.79485     2 2py  -0.37561     2 2py   0.74839     3 1s   -0.40490
                                    4 1s    0.40490     5 1s   -0.36751     6 1s    0.36751
   17.1     0.00000     0.77723     1 2px  -0.73952     1 2px   0.63780     2 2px  -0.74169     2 2px   0.64127
   18.1     0.00000     0.86325     1 1s   -0.88423     1 1s    1.26956     1 2pz   0.55419     2 1s   -0.89171     2 1s    1.66881
                                    3 1s   -0.39059     3 1s   -0.28506     4 1s   -0.39059     4 1s   -0.28506     5 1s   -0.40041
                                    6 1s   -0.40041
   19.1     0.00000     0.89046     1 2px   0.81976     1 2px  -1.07459     2 2px  -0.81736     2 2px   1.07300
   20.1     0.00000     0.95484     1 1s   -0.90333     1 2pz   0.61811     1 2pz  -0.54869     2 1s    0.80711     2 2pz   0.58771
                                    2 2pz  -0.41254     3 1s    0.39283     4 1s    0.39283     5 1s   -0.37506     6 1s   -0.37506
   21.1     0.00000     1.11632     1 2py  -0.74879     1 2py   1.25535     2 2py  -0.62609     2 2py   0.93768     3 1s    0.39984
                                    3 1s   -1.14955     4 1s   -0.39984     4 1s    1.14955     5 1s    0.36291     5 1s   -0.97209
                                    6 1s   -0.36291     6 1s    0.97209
   22.1     0.00000     1.16066     1 2py  -0.85714     1 2py   2.79523     2 2py   0.98879     2 2py  -3.08339     3 1s   -1.41180
                                    4 1s    1.41180     5 1s    1.60514     6 1s   -1.60514
   23.1     0.00000     1.21026     1 1s   -0.60014     1 1s    1.32374     1 2pz  -0.38437     2 1s   -1.10454     2 1s    1.51032
                                    2 2pz   0.65457     2 2pz  -1.17837     5 1s    0.62836     5 1s   -1.26155     6 1s    0.62836
                                    6 1s   -1.26155
   24.1     0.00000     1.22823     1 1s   -1.05808     1 1s    1.54282     1 2pz  -0.72693     1 2pz   1.24582     2 1s    0.42202
                                    2 2pz  -0.29938     2 2pz   0.65143     3 1s    0.64126     3 1s   -1.29494     4 1s    0.64126
                                    4 1s   -1.29494     5 1s    0.29488     6 1s    0.29488
   25.1     0.00000     1.33850     1 1s    1.54478     1 1s   -5.32069     1 2pz  -0.27076     1 2pz   1.89720     2 1s   -1.63351
                                    2 1s    5.42821     2 2pz  -0.25808     2 2pz   1.92618     3 1s    0.30027     4 1s    0.30027
                                    5 1s   -0.36136     6 1s   -0.36136
   26.1     0.00000     1.47442     1 2py  -2.45784     2 2py   2.61357     3 1s    0.67420     3 1s    0.63829     4 1s   -0.67420
                                    4 1s   -0.63829     5 1s   -0.72046     5 1s   -0.69914     6 1s    0.72046     6 1s    0.69914
   27.1     0.00000     1.73912     1 3d1+  0.62053     2 3d1+ -0.61760
   28.1     0.00000     1.82177     1 3d2-  0.67600     2 3d2-  0.68641
   29.1     0.00000     2.12780     1 3d2-  0.74098     2 3d2- -0.73135
   30.1     0.00000     2.20860     1 1s   -0.51502     1 2pz  -0.29803     1 3d2+  0.73593     2 1s   -0.70599     2 3d2+  0.69057
                                    3 1s    0.38517     4 1s    0.38517     5 1s    0.36511     6 1s    0.36511
   31.1     0.00000     2.33094     1 2py  -0.28257     1 3d1- -0.67007     2 2py  -0.26999     2 2py  -0.33652     2 3d1-  0.71259
                                    3 1s    0.49279     4 1s   -0.49279     5 1s    0.54440     6 1s   -0.54440
   32.1     0.00000     2.40679     1 1s   -0.47927     1 2pz   0.27385     1 2pz  -0.49198     1 3d0   0.69416     2 1s   -0.53428
                                    2 2pz  -0.29077     2 2pz   0.40456     2 3d0   0.68043
   33.1     0.00000     2.62919     1 1s   -0.32605     1 1s    1.36990     1 2pz  -0.29308     1 3d2+ -0.75539     2 1s    0.25227
                                    2 1s   -1.33019     2 2pz  -0.26481     2 3d2+  0.83726     3 1s   -0.41292     4 1s   -0.41292
                                    5 1s    0.47729     6 1s    0.47729
   34.1     0.00000     2.70804     1 2px  -0.26451     1 3d1+  0.90164     2 2px   0.26445     2 3d1+  0.90363
   35.1     0.00000     3.06226     1 2py   0.53227     1 3d1-  0.99601     2 2py  -0.57618     2 3d1-  0.94505     3 1s   -0.50002
                                    4 1s    0.50002     5 1s    0.45269     6 1s   -0.45269
   36.1     0.00000     3.06250     1 1s   -0.32418     1 1s   -2.00761     1 2pz   0.79385     1 2pz   1.18149     1 3d0  -1.10822
                                    2 1s    0.30755     2 1s    2.03724     2 2pz   0.79834     2 2pz   1.17420     2 3d0   1.11585


 HOMO      8.1    -0.369260 =     -10.0481eV
 LUMO      9.1     0.178579 =       4.8594eV
 LUMO-HOMO         0.547839 =      14.9074eV


 **********************************************************************************************************************************
 DATASETS  * FILE   NREC   LENGTH (MB)   RECORD NAMES
              1      19       30.63       500      610      700      900      950      970     1000      129      960     1100   
                                          VAR    BASINP    GEOM    SYMINP    ZMAT    AOBASIS   BASIS     P2S    ABASIS      S 
                                         1400     1410     1200     1210     1080     1600     1650     1300     1700   
                                           T        V       H0       H01     AOSYM     SMH    MOLCAS    ERIS     OPER   

              2       4        2.86       700     1000      520     2100   
                                         GEOM     BASIS   MCVARS     RHF  

 PROGRAMS   *        TOTAL    HF-SCF       INT
 CPU TIMES  *         0.46      0.11      0.25
 REAL TIME  *         0.69 SEC
 DISK USED  *        35.45 MB
 **********************************************************************************************************************************


 PROGRAM * MULTI (Direct Multiconfiguration SCF)       Authors: P.J. Knowles, H.-J. Werner (1984)


 Number of closed-shell orbitals:   7 (   7 )
 Number of active  orbitals:        2 (   2 )
 Number of external orbitals:      27 (  27 )

 State symmetry 1

 Number of electrons:     2    Spin symmetry=Singlet   Space symmetry=1
 Number of states:        3
 Number of CSFs:          3   (4 determinants, 4 intermediate states)

 Molecular orbitals read from record     2100.2  Type=RHF/CANONICAL (state 1.1)

 EXTRA SYMMETRY OF MOS IN SYMMETRY 1:   1 1 1 1 1 1 1 2 2 1   1 1 1 1 1 1 2 1 2 1   1 1 1 1 1 1 2 3 3 1   1 1 1 2 1 1

 Wavefunction dump at record             2140.2

 Convergence thresholds  0.10E-01 (gradient)  0.10E-05 (energy)  0.10E-02 (step length)

 Weight factors for state symmetry  1:    0.33333   0.33333   0.33333

 Number of orbital rotations:      257   (    14 Core/Active    189 Core/Virtual   0 Active/Active     54 Active/Virtual)
 Total number of variables:        269

 Micro-Iterations solved by the two-step solver

 ITER. MIC  NCI  NEG     ENERGY(VAR)     ENERGY(PROJ)   ENERGY CHANGE     GRAD(0)  GRAD(ORB)   GRAD(CI)     STEP       TIME

   1    3    3    0     -77.72902529     -77.73527144   -0.00624615    0.13263009 0.00000154 0.00000000  0.63D-01      0.06
   2    2    3    0     -77.73517287     -77.73517664   -0.00000377    0.00304478 0.00000186 0.00000000  0.16D-02      0.09
   3    2    3    0     -77.73517664     -77.73517664   -0.00000000    0.00000216 0.00000000 0.00000000  0.13D-05      0.12

 ** WVFN ****  CONVERGENCE REACHED, FINAL GRADIENT:  0.13D-11



 Results for state 1.1
 =====================

 !MCSCF STATE  1.1 Energy             -78.047866164604
 Nuclear energy                        33.40115819
 Kinetic energy                        78.08837832
 One electron energy                 -170.26739734
 Two electron energy                   58.81837299
 Virial ratio                           1.99948120

 !MCSCF STATE  1.1 Dipole moment        0.00000000    -0.00000000     0.01108384
 Dipole moment /Debye                   0.00000000    -0.00000000     0.02817047

 Results for state 2.1
 =====================

 !MCSCF STATE  2.1 Energy             -77.671922019824
 Nuclear energy                        33.40115819
 Kinetic energy                        78.26862518
 One electron energy                 -169.69396556
 Two electron energy                   58.62088535
 Virial ratio                           1.99237622

 !MCSCF STATE  2.1 Dipole moment        0.00000000    -0.00000000     0.02377012
 Dipole moment /Debye                   0.00000000    -0.00000000     0.06041365

 Results for state 3.1
 =====================

 !MCSCF STATE  3.1 Energy             -77.485741741915
 Nuclear energy                        33.40115819
 Kinetic energy                        78.44883357
 One electron energy                 -169.12064329
 Two electron energy                   58.23374336
 Virial ratio                           1.98772331

 !MCSCF STATE  3.1 Dipole moment        0.00000000    -0.00000000    -0.01364780
 Dipole moment /Debye                   0.00000000    -0.00000000    -0.03468696

 State-averaged charge density matrix saved on record  2140.2 (density set 1)

 !MCSCF expec         <1.1|DMZ|1.1>     0.011083840851 au =     0.028170468231 Debye
 !MCSCF trans         <2.1|DMZ|1.1>     1.510451115336 au =     3.838932345716 Debye
 !MCSCF expec         <2.1|DMZ|2.1>     0.023770116472 au =     0.060413652623 Debye
 !MCSCF trans         <3.1|DMZ|1.1>    -0.003859504870 au =    -0.009809240386 Debye
 !MCSCF trans         <3.1|DMZ|2.1>     2.273559977192 au =     5.778434566831 Debye
 !MCSCF expec         <3.1|DMZ|3.1>    -0.013647795210 au =    -0.034686963349 Debye


 NATURAL ORBITALS (state averaged)
 =================================

  Orbital  Occupation    Energy     Coefficients
    1.1     2.00000   -11.24145     1 1s    0.29410     2 1s    0.95157
    2.1     2.00000   -11.23910     1 1s    0.95169     2 1s   -0.29451
    3.1     2.00000    -1.04165     1 1s    0.30896     2 1s    0.31131
    4.1     2.00000    -0.80002     1 1s    0.29011     2 1s   -0.28402
    5.1     2.00000    -0.65166     1 2py   0.31161     2 2py   0.34249
    6.1     2.00000    -0.59775     1 2pz  -0.40546     2 2pz   0.41206
    7.1     2.00000    -0.51176     1 2py   0.32689     2 2py  -0.29612
    8.1     1.00000     0.03370     1 2px  -0.38030     1 2px  -0.68743     2 2px   0.37979     2 2px   0.68632
    9.1     1.00000    -0.22539     1 2px   0.35709     1 2px   0.31892     2 2px   0.35870     2 2px   0.31978
   10.1    -0.00000     0.26349     1 1s   -1.40642     1 2pz  -0.68735     2 1s   -1.57595     2 2pz   0.61686     3 1s    1.01718
                                    4 1s    1.01718     5 1s    1.06202     6 1s    1.06202
   11.1    -0.00000     0.28611     1 2py  -0.25307     1 2py  -0.75867     2 2py  -0.84425     3 1s    1.06177     4 1s   -1.06177
                                    5 1s    1.12787     6 1s   -1.12787
   12.1    -0.00000     0.30622     1 1s   -2.02088     2 1s    1.88941     3 1s    1.11439     4 1s    1.11439     5 1s   -1.02685
                                    6 1s   -1.02685
   13.1    -0.00000     0.38694     1 2py   0.25022     1 2py   1.83846     2 2py  -0.25186     2 2py  -1.88919     3 1s   -1.61212
                                    4 1s    1.61212     5 1s    1.63749     6 1s   -1.63749
   14.1    -0.00000     0.48743     1 1s   -2.92347     1 2pz   2.94114     2 1s    3.01103     2 2pz   2.92643     3 1s   -0.64633
                                    4 1s   -0.64633     5 1s    0.54906     6 1s    0.54906
   15.1    -0.00000     0.65852     1 1s   -0.27333     1 2pz   0.52704     1 2pz  -1.18751     2 1s   -0.31456     2 2pz  -0.56918
                                    2 2pz   0.84490
   16.1    -0.00000     0.75245     1 2py  -0.43294     1 2py   0.79877     2 2py  -0.38640     2 2py   0.75943     3 1s   -0.39953
                                    4 1s    0.39953     5 1s   -0.36353     6 1s    0.36353
   17.1    -0.00000     0.77120     1 2px  -0.74384     1 2px   0.62925     2 2px  -0.75059     2 2px   0.63927
   18.1    -0.00000     0.86043     1 1s   -0.87488     1 1s    1.27562     1 2pz   0.59961     2 1s   -0.88776     2 1s    1.70942
                                    3 1s   -0.38666     3 1s   -0.29694     4 1s   -0.38666     4 1s   -0.29694     5 1s   -0.40731
                                    6 1s   -0.40731
   19.1    -0.00000     0.87284     1 2px   0.80633     1 2px  -1.10687     2 2px  -0.79961     2 2px   1.10163
   20.1    -0.00000     0.93595     1 1s   -0.76297     1 2pz   0.62368     1 2pz  -0.64227     2 1s    0.62587     2 2pz   0.59126
                                    2 2pz  -0.49308     3 1s    0.39716     4 1s    0.39716     5 1s   -0.37069     6 1s   -0.37069
   21.1    -0.00000     1.10086     1 2py  -0.72523     1 2py   1.22158     2 2py  -0.62798     2 2py   0.97813     3 1s    0.39851
                                    3 1s   -1.14076     4 1s   -0.39851     4 1s    1.14076     5 1s    0.36612     5 1s   -1.00121
                                    6 1s   -0.36612     6 1s    1.00121
   22.1    -0.00000     1.14800     1 2py  -0.86447     1 2py   2.81621     2 2py   0.97699     2 2py  -3.07579     3 1s   -1.43424
                                    4 1s    1.43424     5 1s    1.60066     6 1s   -1.60066
   23.1    -0.00000     1.20675     1 1s   -0.64339     1 1s    1.45619     1 2pz  -0.40880     2 1s   -1.06477     2 1s    1.39196
                                    2 2pz   0.66227     2 2pz  -1.22010     5 1s    0.62808     5 1s   -1.24919     6 1s    0.62808
                                    6 1s   -1.24919
   24.1    -0.00000     1.22608     1 1s   -0.99763     1 1s    1.35500     1 2pz  -0.74051     1 2pz   1.31501     2 1s    0.57575
                                    2 2pz  -0.31600     2 2pz   0.72511     3 1s    0.64375     3 1s   -1.28244     4 1s    0.64375
                                    4 1s   -1.28244     5 1s    0.29725     6 1s    0.29725
   25.1    -0.00000     1.31875     1 1s    1.56680     1 1s   -5.35048     1 2pz   1.84396     2 1s   -1.65527     2 1s    5.45638
                                    2 2pz   1.87542     3 1s    0.34112     4 1s    0.34112     5 1s   -0.40153     6 1s   -0.40153
   26.1    -0.00000     1.46578     1 2py  -2.46139     2 2py   2.61724     3 1s    0.67404     3 1s    0.63897     4 1s   -0.67404
                                    4 1s   -0.63897     5 1s   -0.71832     5 1s   -0.70099     6 1s    0.71832     6 1s    0.70099
   27.1    -0.00000     1.71340     1 3d1+  0.61997     2 3d1+ -0.61762
   28.1    -0.00000     1.80789     1 3d2-  0.67489     2 3d2-  0.68751
   29.1    -0.00000     2.10469     1 3d2-  0.74199     2 3d2- -0.73032
   30.1    -0.00000     2.19320     1 1s   -0.50996     1 2pz  -0.30173     1 3d2+  0.73483     2 1s   -0.70290     2 3d2+  0.69073
                                    3 1s    0.38702     4 1s    0.38702     5 1s    0.36708     6 1s    0.36708
   31.1    -0.00000     2.31472     1 2py  -0.28943     1 3d1- -0.66852     2 2py  -0.27690     2 2py  -0.33342     2 3d1-  0.71060
                                    3 1s    0.49595     4 1s   -0.49595     5 1s    0.54810     6 1s   -0.54810
   32.1    -0.00000     2.38667     1 1s   -0.47753     1 2pz   0.28044     1 2pz  -0.49490     1 3d0   0.69362     2 1s   -0.53206
                                    2 2pz  -0.29595     2 2pz   0.40727     2 3d0   0.68053
   33.1    -0.00000     2.60941     1 1s   -0.32705     1 1s    1.37638     1 2pz  -0.29163     1 3d2+ -0.75517     2 1s    0.25303
                                    2 1s   -1.33536     2 2pz  -0.26371     2 3d2+  0.83602     3 1s   -0.41622     4 1s   -0.41622
                                    5 1s    0.48016     6 1s    0.48016
   34.1    -0.00000     2.68550     1 2px  -0.26529     1 3d1+  0.90223     2 2px   0.26520     2 3d1+  0.90381
   35.1    -0.00000     3.04445     1 1s   -0.31693     1 1s   -2.03330     1 2pz   0.78623     1 2pz   1.19501     1 3d0  -1.11023
                                    2 1s    0.30061     2 1s    2.06292     2 2pz   0.79089     2 2pz   1.18754     2 3d0   1.11713
   36.1    -0.00000     3.04943     1 2py   0.53222     1 3d1-  0.99551     2 2py  -0.57645     2 3d1-  0.94478     3 1s   -0.50231
                                    4 1s    0.50231     5 1s    0.45499     6 1s   -0.45499


 Natural orbital dump (state averaged) at molpro section  2140.2    (Orbital set 2)



 **********************************************************************************************************************************
 DATASETS  * FILE   NREC   LENGTH (MB)   RECORD NAMES
              1      20       31.36       500      610      700      900      950      970     1000      129      960     1100   
                                          VAR    BASINP    GEOM    SYMINP    ZMAT    AOBASIS   BASIS     P2S    ABASIS      S 
                                         1400     1410     1200     1210     1080     1600     1650     1300     1700     1380   
                                           T        V       H0       H01     AOSYM     SMH    MOLCAS    ERIS     OPER     JKOP   

              2       5        5.42       700     1000      520     2100     2140   
                                         GEOM     BASIS   MCVARS     RHF     MCSCF   

 PROGRAMS   *        TOTAL     MULTI    HF-SCF       INT
 CPU TIMES  *         0.62      0.16      0.11      0.25
 REAL TIME  *         0.88 SEC
 DISK USED  *        38.55 MB
 **********************************************************************************************************************************
 Molecular orbitals read from record     2140.2  Type=MCSCF/NATURAL (state averaged)
 Occupation numbers read from record     2140.2  Type=MCSCF/NATURAL (state averaged)
 Orbital energies read from record       2140.2  Type=MCSCF/NATURAL (state averaged)
 Redundancy group numbers read from rec  2140.2  Type=MCSCF/NATURAL (state averaged)

 MULTI/6-31G* energy=    -77.485741741915

           MULTI          HF-SCF
    -77.48574174    -78.03019217
 **********************************************************************************************************************************
 Molpro calculation terminated
