
 Primary working directories    : /scratch.local/johan406.molpro_temp/molpro.7Pv7TBp81e
 Secondary working directories  : /scratch.local/johan406.molpro_temp/molpro.7Pv7TBp81e
 Wavefunction directory         : /home/goodpast/johan406/wfu/
 Main file repository           : /scratch.local/johan406.molpro_temp/molpro.7Pv7TBp81e/

 id        : roweumn

 Nodes     nprocs
 cn0117       1

 Using customized tuning parameters: mindgm=1; mindgv=20; mindgc=4; mindgr=1; noblas=0; minvec=7
 default implementation of scratch files=df  


 Variables initialized (934), CPU time= 0.01 sec
                                                                                 !leave this line blank
 
 gprint, orbitals=30
 memory, 125., m
 symmetry, nosym
 nelect=16
 basis=6-31g*
 
 geometry={
 C -0.0 0.0 0.6638
 C 0.0 0.0 -0.6745
 H 0.0 0.8936 1.2659
 H 0.0 -0.8936 1.2659
 H 0.0 0.9362 -1.2036
 H -0.0 -0.9362 -1.2036
 }
 
 hf
 {multi,
 closed 7
 occ 9
 wf,spin=0;STATE,3
 }
 
 Commands  initialized (763), CPU time= 0.01 sec, 617 directives.
 Default parameters read. Elapsed time= 0.08 sec

 Checking input...
 Passed
1


                                         ***  PROGRAM SYSTEM MOLPRO  ***
                                       Copyright, TTI GmbH Stuttgart, 2015
                                    Version 2019.2 linked Oct 25 2019 22:50:27


 **********************************************************************************************************************************
 LABEL *                                                                                 
  64 bit serial version                                                                  DATE: 26-Jan-23          TIME: 20:22:59  
 **********************************************************************************************************************************

 SHA1:             8dbd9ae1082e4ce945b0f27595c9eb2d4aa09004
 **********************************************************************************************************************************


 Variable memory set to  125000000 words,  buffer space 

 SETTING NELECT         =        16.00000000                                  
 SETTING BASIS          =    6-31G*
 ZSYMEL=NOSYM


Geometry recognized as XYZ



 Recomputing integrals since basis changed


 Using spherical harmonics

 Library entry C      S 6-31G                selected for orbital group  1
 Library entry C      P 6-31G                selected for orbital group  1
 Library entry C      D 6-31G*               selected for orbital group  1
 Library entry H      S 6-31G                selected for orbital group  2


 PROGRAM * SEWARD (Integral evaluation for generally contracted gaussian basis sets)     Author: Roland Lindh, 1990

 Geometry written to block  1 of record 700


 Point group  C1  



 ATOMIC COORDINATES

 NR  ATOM    CHARGE       X              Y              Z

   1  C       6.00    0.000000000    0.000000000    1.254400201
   2  C       6.00    0.000000000    0.000000000   -1.274620271
   3  H       1.00    0.000000000    1.688659265    2.392204301
   4  H       1.00    0.000000000   -1.688659265    2.392204301
   5  H       1.00    0.000000000    1.769161598   -2.274474364
   6  H       1.00    0.000000000   -1.769161598   -2.274474364

 Bond lengths in Bohr (Angstrom)

 1-2  2.529020473  1-3  2.036214203  1-4  2.036214203  2-5  2.032151807  2-6  2.032151807
     ( 1.338300000)     ( 1.077518153)     ( 1.077518153)     ( 1.075368425)     ( 1.075368425)

 Bond angles

  1-2-5  119.47326732   1-2-6  119.47326732   2-1-3  123.97175107   2-1-4  123.97175107

  3-1-4  112.05649786   5-2-6  121.05346537

 NUCLEAR CHARGE:                   16
 NUMBER OF PRIMITIVE AOS:          72
 NUMBER OF SYMMETRY AOS:           70
 NUMBER OF CONTRACTIONS:           36   (   36A   )
 NUMBER OF CORE ORBITALS:           2   (    2A   )
 NUMBER OF VALENCE ORBITALS:       12   (   12A   )


 NUCLEAR REPULSION ENERGY   33.39709241

 EXTRA SYMMETRY OF AOS IN SYMMETRY 1:   1 1 1 2 1 1 2 1 1 1   3 2 1 1 1 1 1 2 1 1   2 1 1 1 3 2 1 1 1 1   1 1 1 1 1 1

 Eigenvalues of metric

         1 0.831E-02 0.173E-01 0.370E-01 0.468E-01 0.710E-01 0.192E+00 0.211E+00 0.226E+00


 Contracted 2-electron integrals neglected if value below      1.0D-11
 AO integral compression algorithm  1   Integral accuracy      1.0D-11

     0.786 MB (compressed) written to integral file ( 37.9%)


 NUMBER OF SORTED TWO-ELECTRON INTEGRALS:     222111.     BUFFER LENGTH:  32768
 NUMBER OF SEGMENTS:   1  SEGMENT LENGTH:     222111      RECORD LENGTH: 524288

 Memory used in sort:       0.78 MW

 SORT1 READ      284735. AND WROTE       98531. INTEGRALS IN      1 RECORDS. CPU TIME:     0.01 SEC, REAL TIME:     0.01 SEC
 SORT2 READ       98531. AND WROTE      222111. INTEGRALS IN      3 RECORDS. CPU TIME:     0.02 SEC, REAL TIME:     0.02 SEC

 FILE SIZES:   FILE 1:    30.9 MBYTE,  FILE 4:     4.2 MBYTE,   TOTAL:     35.1 MBYTE

 OPERATOR DM      FOR CENTER  0  COORDINATES:    0.000000    0.000000    0.000000


 **********************************************************************************************************************************
 DATASETS  * FILE   NREC   LENGTH (MB)   RECORD NAMES
              1      19       30.63       500      610      700      900      950      970     1000      129      960     1100   
                                          VAR    BASINP    GEOM    SYMINP    ZMAT    AOBASIS   BASIS     P2S    ABASIS      S 
                                         1400     1410     1200     1210     1080     1600     1650     1300     1700   
                                           T        V       H0       H01     AOSYM     SMH    MOLCAS    ERIS     OPER   

 PROGRAMS   *        TOTAL       INT
 CPU TIMES  *         0.34      0.25
 REAL TIME  *         0.56 SEC
 DISK USED  *        35.45 MB
 **********************************************************************************************************************************


 PROGRAM * RHF-SCF (CLOSED SHELL)       Authors: W. Meyer, H.-J. Werner


 NUMBER OF ELECTRONS:       8+    8-    SPACE SYMMETRY=1    SPIN SYMMETRY: Singlet 
 CONVERGENCE THRESHOLDS:    1.00E-05 (Density)    1.00E-07 (Energy)
 MAX. NUMBER OF ITERATIONS:       60
 INTERPOLATION TYPE:            DIIS
 INTERPOLATION STEPS:              2 (START)      1 (STEP)
 LEVEL SHIFTS:                  0.00 (CLOSED)  0.00 (OPEN) 



 Orbital guess generated from atomic densities. Full valence occupancy:    8

 Molecular orbital dump at record        2100.2

 Initial occupancy:   8

 ITERATION    DDIFF          GRAD             ENERGY        2-EL.EN.            DIPOLE MOMENTS         DIIS   ORB.
    1      0.000D+00      0.000D+00       -78.00538619    118.704821   -0.00000   -0.00000    0.02671    0    start
    2      0.000D+00      0.859D-02       -78.02733631    116.865182   -0.00000   -0.00000    0.01125    1    diag
    3      0.821D-02      0.292D-02       -78.02946747    117.496354   -0.00000    0.00000    0.01199    2    diag
    4      0.264D-02      0.713D-03       -78.02967789    117.397582   -0.00000    0.00000    0.01189    3    diag
    5      0.107D-02      0.701D-04       -78.02968008    117.400423   -0.00000   -0.00000    0.01122    4    diag
    6      0.147D-03      0.122D-04       -78.02968013    117.400112   -0.00000   -0.00000    0.01190    5    diag
    7      0.186D-04      0.583D-05       -78.02968014    117.400039    0.00000   -0.00000    0.01176    6    diag
    8      0.456D-05      0.107D-05       -78.02968014    117.400049   -0.00000   -0.00000    0.01180    0    orth

 Final occupancy:   8

 !RHF STATE  1.1 Energy               -78.029680139296
 Nuclear energy                        33.39709241
 One-electron energy                 -170.12679690
 Two-electron energy                   58.70002436
 Virial quotient                       -1.00015054
 !RHF STATE  1.1 Dipole moment         -0.00000000    -0.00000000     0.01179955
 Dipole moment /Debye                  -0.00000000    -0.00000000     0.02998950

 ELECTRON ORBITALS
 =================

  Orbital  Occupation    Energy     Coefficients
    1.1     2.00000   -11.22541     1 1s    0.53471     2 1s    0.84017
    2.1     2.00000   -11.22365     1 1s    0.84044     2 1s   -0.53514
    3.1     2.00000    -1.02693     1 1s    0.30142     2 1s    0.30277
    4.1     2.00000    -0.79222     1 1s    0.24464
    5.1     2.00000    -0.63885     1 2py   0.30140     2 2py   0.34079
    6.1     2.00000    -0.58239     1 2pz  -0.40185     2 2pz   0.41185
    7.1     2.00000    -0.50463     1 2py   0.32416     2 2py  -0.28523
    8.1     2.00000    -0.36930     1 2px   0.37228     1 2px   0.30725     2 2px   0.37430     2 2px   0.30861
    9.1     0.00000     0.17857     1 2px  -0.34252     1 2px  -0.73453     2 2px   0.34166     2 2px   0.73318
   10.1     0.00000     0.26600     1 1s   -1.40488     1 2pz  -0.69324     2 1s   -1.58319     2 2pz   0.59863     3 1s    1.02113
                                    4 1s    1.02113     5 1s    1.05708     6 1s    1.05708
   11.1     0.00000     0.29445     1 2py  -0.25617     1 2py  -0.75654     2 2py  -0.86677     3 1s    1.06084     4 1s   -1.06084
                                    5 1s    1.14637     6 1s   -1.14637
   12.1     0.00000     0.30898     1 1s   -1.99524     2 1s    1.85510     3 1s    1.12234     4 1s    1.12234     5 1s   -1.02900
                                    6 1s   -1.02900
   13.1     0.00000     0.39096     1 2py   1.83973     2 2py  -1.91249     3 1s   -1.61138     4 1s    1.61138     5 1s    1.64841
                                    6 1s   -1.64841
   14.1     0.00000     0.48977     1 1s   -2.93246     1 2pz   2.95764     2 1s    3.04936     2 2pz   2.93914     3 1s   -0.65076
                                    4 1s   -0.65076     5 1s    0.51901     6 1s    0.51901
   15.1     0.00000     0.67057     1 2pz   0.52980     1 2pz  -1.29089     2 1s   -0.47520     2 2pz  -0.58309     2 2pz   0.79045
   16.1     0.00000     0.76331     1 2py  -0.42878     1 2py   0.80236     2 2py  -0.36722     2 2py   0.73904     3 1s   -0.41133
                                    4 1s    0.41133     5 1s   -0.36065     6 1s    0.36065
   17.1     0.00000     0.77719     1 2px  -0.73912     1 2px   0.63719     2 2px  -0.74207     2 2px   0.64189
   18.1     0.00000     0.86387     1 1s   -0.88283     1 1s    1.20065     1 2pz   0.63445     2 1s   -0.89318     2 1s    1.74415
                                    3 1s   -0.38871     3 1s   -0.30515     4 1s   -0.38871     4 1s   -0.30515     5 1s   -0.40251
                                    6 1s   -0.40251
   19.1     0.00000     0.89043     1 2px   0.82017     1 2px  -1.07489     2 2px  -0.81693     2 2px   1.07272
   20.1     0.00000     0.95531     1 1s   -0.91099     1 2pz   0.62377     1 2pz  -0.58318     2 1s    0.77874     2 2pz   0.58236
                                    2 2pz  -0.39765     3 1s    0.39602     4 1s    0.39602     5 1s   -0.37155     6 1s   -0.37155
   21.1     0.00000     1.11584     1 2py  -0.76821     1 2py   1.30636     2 2py  -0.60246     2 2py   0.87729     3 1s    0.40595
                                    3 1s   -1.17795     4 1s   -0.40595     4 1s    1.17795     5 1s    0.35608     5 1s   -0.93827
                                    6 1s   -0.35608     6 1s    0.93827
   22.1     0.00000     1.16037     1 2py  -0.83176     1 2py   2.73785     2 2py   1.00978     2 2py  -3.12763     3 1s   -1.37457
                                    4 1s    1.37457     5 1s    1.63592     6 1s   -1.63592
   23.1     0.00000     1.20693     1 1s   -0.56813     1 1s    1.31044     1 2pz  -0.46399     2 1s   -1.08471     2 1s    1.43348
                                    2 2pz   0.66472     2 2pz  -1.22326     5 1s    0.63214     5 1s   -1.27115     6 1s    0.63214
                                    6 1s   -1.27115
   24.1     0.00000     1.23055     1 1s   -1.09904     1 1s    1.66695     1 2pz  -0.72368     1 2pz   1.20187     2 1s    0.41275
                                    2 2pz  -0.26814     2 2pz   0.56489     3 1s    0.64506     3 1s   -1.30075     4 1s    0.64506
                                    4 1s   -1.30075
   25.1     0.00000     1.33851     1 1s    1.52530     1 1s   -5.29094     1 2pz  -0.27583     1 2pz   1.89305     2 1s   -1.64588
                                    2 1s    5.43712     2 2pz  -0.25851     2 2pz   1.93213     3 1s    0.28531     4 1s    0.28531
                                    5 1s   -0.36844     6 1s   -0.36844
   26.1     0.00000     1.47441     1 2py  -2.42559     2 2py   2.63667     3 1s    0.66581     3 1s    0.62573     4 1s   -0.66581
                                    4 1s   -0.62573     5 1s   -0.72858     5 1s   -0.70818     6 1s    0.72858     6 1s    0.70818
   27.1     0.00000     1.73909     1 3d1+  0.62104     2 3d1+ -0.61708
   28.1     0.00000     1.82178     1 3d2-  0.67414     2 3d2-  0.68825
   29.1     0.00000     2.12786     1 3d2-  0.74267     2 3d2- -0.72962
   30.1     0.00000     2.20870     1 1s   -0.48222     1 2pz  -0.33471     1 3d2+  0.74392     2 1s   -0.74183     2 3d2+  0.68221
                                    3 1s    0.38898     4 1s    0.38898     5 1s    0.36174     6 1s    0.36174
   31.1     0.00000     2.32868     1 2py  -0.28319     1 3d1- -0.66158     2 2py  -0.26629     2 2py  -0.38599     2 3d1-  0.71943
                                    3 1s    0.48303     4 1s   -0.48303     5 1s    0.55267     6 1s   -0.55267
   32.1     0.00000     2.40601     1 1s   -0.46882     1 2pz   0.27151     1 2pz  -0.50791     1 3d0   0.69482     2 1s   -0.54267
                                    2 2pz  -0.29392     2 2pz   0.39010     2 3d0   0.67645
   33.1     0.00000     2.63066     1 1s   -0.33740     1 1s    1.37758     1 2pz  -0.30257     1 3d2+ -0.73866     2 1s   -1.32439
                                    2 2pz  -0.26471     2 3d2+  0.84898     3 1s   -0.40146     4 1s   -0.40146     5 1s    0.48813
                                    6 1s    0.48813
   34.1     0.00000     2.70800     1 2px  -0.26452     1 3d1+  0.90128     2 2px   0.26445     2 3d1+  0.90399
   35.1     0.00000     3.06004     1 2py   0.51272     1 3d1-  1.00452     2 2py  -0.57118     2 3d1-  0.93541     3 1s   -0.50594
                                    4 1s    0.50594     5 1s    0.44161     6 1s   -0.44161
   36.1     0.00000     3.06282     1 1s   -0.32730     1 1s   -2.00112     1 2pz   0.79286     1 2pz   1.18221     1 3d0  -1.10699
                                    2 1s    0.30484     2 1s    2.04117     2 2pz   0.79895     2 2pz   1.17233     2 3d0   1.11730


 HOMO      8.1    -0.369297 =     -10.0491eV
 LUMO      9.1     0.178569 =       4.8591eV
 LUMO-HOMO         0.547866 =      14.9082eV


 **********************************************************************************************************************************
 DATASETS  * FILE   NREC   LENGTH (MB)   RECORD NAMES
              1      19       30.63       500      610      700      900      950      970     1000      129      960     1100   
                                          VAR    BASINP    GEOM    SYMINP    ZMAT    AOBASIS   BASIS     P2S    ABASIS      S 
                                         1400     1410     1200     1210     1080     1600     1650     1300     1700   
                                           T        V       H0       H01     AOSYM     SMH    MOLCAS    ERIS     OPER   

              2       4        2.86       700     1000      520     2100   
                                         GEOM     BASIS   MCVARS     RHF  

 PROGRAMS   *        TOTAL    HF-SCF       INT
 CPU TIMES  *         0.44      0.10      0.25
 REAL TIME  *         0.69 SEC
 DISK USED  *        35.45 MB
 **********************************************************************************************************************************


 PROGRAM * MULTI (Direct Multiconfiguration SCF)       Authors: P.J. Knowles, H.-J. Werner (1984)


 Number of closed-shell orbitals:   7 (   7 )
 Number of active  orbitals:        2 (   2 )
 Number of external orbitals:      27 (  27 )

 State symmetry 1

 Number of electrons:     2    Spin symmetry=Singlet   Space symmetry=1
 Number of states:        3
 Number of CSFs:          3   (4 determinants, 4 intermediate states)

 Molecular orbitals read from record     2100.2  Type=RHF/CANONICAL (state 1.1)

 EXTRA SYMMETRY OF MOS IN SYMMETRY 1:   1 1 1 1 1 1 1 2 2 1   1 1 1 1 1 1 2 1 2 1   1 1 1 1 1 1 2 3 3 1   1 1 1 2 1 1

 Wavefunction dump at record             2140.2

 Convergence thresholds  0.10E-01 (gradient)  0.10E-05 (energy)  0.10E-02 (step length)

 Weight factors for state symmetry  1:    0.33333   0.33333   0.33333

 Number of orbital rotations:      257   (    14 Core/Active    189 Core/Virtual   0 Active/Active     54 Active/Virtual)
 Total number of variables:        269

 Micro-Iterations solved by the two-step solver

 ITER. MIC  NCI  NEG     ENERGY(VAR)     ENERGY(PROJ)   ENERGY CHANGE     GRAD(0)  GRAD(ORB)   GRAD(CI)     STEP       TIME

   1    3    3    0     -77.72849013     -77.73473756   -0.00624743    0.13263663 0.00000154 0.00000000  0.63D-01      0.06
   2    2    3    0     -77.73463896     -77.73464273   -0.00000377    0.00304567 0.00000186 0.00000000  0.16D-02      0.09
   3    2    3    0     -77.73464273     -77.73464273   -0.00000000    0.00000216 0.00000000 0.00000000  0.13D-05      0.13

 ** WVFN ****  CONVERGENCE REACHED, FINAL GRADIENT:  0.13D-11



 Results for state 1.1
 =====================

 !MCSCF STATE  1.1 Energy             -78.047352166256
 Nuclear energy                        33.39709241
 Kinetic energy                        78.08622521
 One electron energy                 -170.25900155
 Two electron energy                   58.81455698
 Virial ratio                           1.99950218

 !MCSCF STATE  1.1 Dipole moment        0.00000000     0.00000000     0.01505628
 Dipole moment /Debye                   0.00000000     0.00000000     0.03826675

 Results for state 2.1
 =====================

 !MCSCF STATE  2.1 Energy             -77.671389755767
 Nuclear energy                        33.39709241
 Kinetic energy                        78.26650380
 One electron energy                 -169.68552784
 Two electron energy                   58.61704568
 Virial ratio                           1.99239631

 !MCSCF STATE  2.1 Dipole moment        0.00000000     0.00000000     0.03222924
 Dipole moment /Debye                   0.00000000     0.00000000     0.08191318

 Results for state 3.1
 =====================

 !MCSCF STATE  3.1 Energy             -77.485186269665
 Nuclear energy                        33.39709241
 Kinetic energy                        78.44671186
 One electron energy                 -169.11225515
 Two electron energy                   58.22997647
 Virial ratio                           1.98774295

 !MCSCF STATE  3.1 Dipole moment        0.00000000     0.00000000    -0.01842106
 Dipole moment /Debye                   0.00000000     0.00000000    -0.04681859

 State-averaged charge density matrix saved on record  2140.2 (density set 1)

 !MCSCF expec         <1.1|DMZ|1.1>     0.015056284429 au =     0.038266751378 Debye
 !MCSCF trans         <2.1|DMZ|1.1>     1.510446053849 au =     3.838919481541 Debye
 !MCSCF expec         <2.1|DMZ|2.1>     0.032229236724 au =     0.081913183474 Debye
 !MCSCF trans         <3.1|DMZ|1.1>    -0.005224921785 au =    -0.013279556709 Debye
 !MCSCF trans         <3.1|DMZ|2.1>     2.273435406774 au =     5.778117961149 Debye
 !MCSCF expec         <3.1|DMZ|3.1>    -0.018421056956 au =    -0.046818589938 Debye


 NATURAL ORBITALS (state averaged)
 =================================

  Orbital  Occupation    Energy     Coefficients
    1.1     2.00000   -11.24185     2 1s    0.96895
    2.1     2.00000   -11.23892     1 1s    0.96904
    3.1     2.00000    -1.04169     1 1s    0.30853     2 1s    0.31171
    4.1     2.00000    -0.79999     1 1s    0.29109     2 1s   -0.28281
    5.1     2.00000    -0.65178     1 2py   0.30587     2 2py   0.34757
    6.1     2.00000    -0.59757     1 2pz  -0.40411     2 2pz   0.41305
    7.1     2.00000    -0.51118     1 2py   0.33192     2 2py  -0.29037
    8.1     1.00000     0.03369     1 2px  -0.38040     1 2px  -0.68760     2 2px   0.37972     2 2px   0.68611
    9.1     1.00000    -0.22542     1 2px   0.35681     1 2px   0.31876     2 2px   0.35900     2 2px   0.31992
   10.1    -0.00000     0.26323     1 1s   -1.37413     1 2pz  -0.69863     2 1s   -1.60404     2 2pz   0.60347     3 1s    1.00748
                                    4 1s    1.00748     5 1s    1.06858     6 1s    1.06858
   11.1    -0.00000     0.28600     1 2py  -0.25403     1 2py  -0.74425     2 2py  -0.85980     3 1s    1.05048     4 1s   -1.05048
                                    5 1s    1.13975     6 1s   -1.13975
   12.1    -0.00000     0.30591     1 1s   -2.03775     2 1s    1.85913     3 1s    1.12924     4 1s    1.12924     5 1s   -1.01031
                                    6 1s   -1.01031
   13.1    -0.00000     0.38675     1 2py   1.82715     2 2py  -0.25214     2 2py  -1.89600     3 1s   -1.60572     4 1s    1.60572
                                    5 1s    1.64017     6 1s   -1.64017
   14.1    -0.00000     0.48699     1 1s   -2.90877     1 2pz   2.94072     2 1s    3.02759     2 2pz   2.92036     3 1s   -0.66037
                                    4 1s   -0.66037     5 1s    0.52864     6 1s    0.52864
   15.1    -0.00000     0.65899     1 1s   -0.28075     1 2pz   0.51963     1 2pz  -1.24724     2 1s   -0.36717     2 2pz  -0.57671
                                    2 2pz   0.78631
   16.1    -0.00000     0.75290     1 2py  -0.44099     1 2py   0.80521     2 2py  -0.37783     2 2py   0.75144     3 1s   -0.40572
                                    4 1s    0.40572     5 1s   -0.35691     6 1s    0.35691
   17.1    -0.00000     0.77116     1 2px  -0.74264     1 2px   0.62748     2 2px  -0.75176     2 2px   0.64104
   18.1    -0.00000     0.86108     1 1s   -0.87252     1 1s    1.19988     1 2pz   0.67812     2 1s   -0.89016     2 1s    1.78960
                                    3 1s   -0.38261     3 1s   -0.31696     4 1s   -0.38261     4 1s   -0.31696     5 1s   -0.41119
                                    6 1s   -0.41119
   19.1    -0.00000     0.87280     1 2px   0.80751     1 2px  -1.10780     2 2px  -0.79841     2 2px   1.10071
   20.1    -0.00000     0.93648     1 1s   -0.77589     1 2pz   0.62968     1 2pz  -0.68135     2 1s    0.58778     2 2pz   0.58547
                                    2 2pz  -0.47793     3 1s    0.40181     4 1s    0.40181     5 1s   -0.36548     6 1s   -0.36548
   21.1    -0.00000     1.10044     1 2py  -0.74099     1 2py   1.26143     2 2py  -0.60932     2 2py   0.93167     3 1s    0.40403
                                    3 1s   -1.16369     4 1s   -0.40403     4 1s    1.16369     5 1s    0.36022     5 1s   -0.97470
                                    6 1s   -0.36022     6 1s    0.97470
   22.1    -0.00000     1.14766     1 2py  -0.84292     1 2py   2.76507     2 2py   0.99536     2 2py  -3.11667     3 1s   -1.40237
                                    4 1s    1.40237     5 1s    1.62772     6 1s   -1.62772
   23.1    -0.00000     1.20327     1 1s   -0.61148     1 1s    1.44652     1 2pz  -0.49275     2 1s   -1.04332     2 1s    1.30924
                                    2 2pz   0.67372     2 2pz  -1.26909     5 1s    0.63211     5 1s   -1.25928     6 1s    0.63211
                                    6 1s   -1.25928
   24.1    -0.00000     1.22860     1 1s   -1.04366     1 1s    1.49356     1 2pz  -0.73694     1 2pz   1.26705     2 1s    0.55779
                                    2 2pz  -0.28317     2 2pz   0.63304     3 1s    0.64815     3 1s   -1.29026     4 1s    0.64815
                                    4 1s   -1.29026
   25.1    -0.00000     1.31873     1 1s    1.54679     1 1s   -5.32084     1 2pz   1.84115     2 1s   -1.66746     2 1s    5.46555
                                    2 2pz   1.88334     3 1s    0.32501     4 1s    0.32501     5 1s   -0.40761     6 1s   -0.40761
   26.1    -0.00000     1.46575     1 2py  -2.42912     2 2py   2.64033     3 1s    0.66601     3 1s    0.62617     4 1s   -0.66601
                                    4 1s   -0.62617     5 1s   -0.72611     5 1s   -0.71019     6 1s    0.72611     6 1s    0.71019
   27.1    -0.00000     1.71338     1 3d1+  0.62038     2 3d1+ -0.61721
   28.1    -0.00000     1.80790     1 3d2-  0.67264     2 3d2-  0.68972
   29.1    -0.00000     2.10476     1 3d2-  0.74403     2 3d2- -0.72823
   30.1    -0.00000     2.19332     1 1s   -0.47686     1 2pz  -0.33869     1 3d2+  0.74262     2 1s   -0.73911     2 3d2+  0.68260
                                    3 1s    0.39082     4 1s    0.39082     5 1s    0.36374     6 1s    0.36374
   31.1    -0.00000     2.31247     1 2py  -0.29004     1 3d1- -0.66011     2 2py  -0.27320     2 2py  -0.38343     2 3d1-  0.71735
                                    3 1s    0.48610     4 1s   -0.48610     5 1s    0.55647     6 1s   -0.55647
   32.1    -0.00000     2.38590     1 1s   -0.46712     1 2pz   0.27832     1 2pz  -0.51089     1 3d0   0.69417     2 1s   -0.54035
                                    2 2pz  -0.29884     2 2pz   0.39280     2 3d0   0.67666
   33.1    -0.00000     2.61087     1 1s   -0.33847     1 1s    1.38417     1 2pz  -0.30100     1 3d2+ -0.73864     2 1s   -1.32922
                                    2 2pz  -0.26360     2 3d2+  0.84759     3 1s   -0.40483     4 1s   -0.40483     5 1s    0.49092
                                    6 1s    0.49092
   34.1    -0.00000     2.68546     1 2px  -0.26530     1 3d1+  0.90195     2 2px   0.26519     2 3d1+  0.90409
   35.1    -0.00000     3.04477     1 1s   -0.32000     1 1s   -2.02680     1 2pz   0.78522     1 2pz   1.19575     1 3d0  -1.10913
                                    2 1s    0.29795     2 1s    2.06684     2 2pz   0.79153     2 2pz   1.18564     2 3d0   1.11846
   36.1    -0.00000     3.04721     1 2py   0.51262     1 3d1-  1.00398     2 2py  -0.57151     2 3d1-  0.93518     3 1s   -0.50823
                                    4 1s    0.50823     5 1s    0.44392     6 1s   -0.44392


 Natural orbital dump (state averaged) at molpro section  2140.2    (Orbital set 2)



 **********************************************************************************************************************************
 DATASETS  * FILE   NREC   LENGTH (MB)   RECORD NAMES
              1      20       31.36       500      610      700      900      950      970     1000      129      960     1100   
                                          VAR    BASINP    GEOM    SYMINP    ZMAT    AOBASIS   BASIS     P2S    ABASIS      S 
                                         1400     1410     1200     1210     1080     1600     1650     1300     1700     1380   
                                           T        V       H0       H01     AOSYM     SMH    MOLCAS    ERIS     OPER     JKOP   

              2       5        5.42       700     1000      520     2100     2140   
                                         GEOM     BASIS   MCVARS     RHF     MCSCF   

 PROGRAMS   *        TOTAL     MULTI    HF-SCF       INT
 CPU TIMES  *         0.60      0.16      0.10      0.25
 REAL TIME  *         0.88 SEC
 DISK USED  *        38.55 MB
 **********************************************************************************************************************************
 Molecular orbitals read from record     2140.2  Type=MCSCF/NATURAL (state averaged)
 Occupation numbers read from record     2140.2  Type=MCSCF/NATURAL (state averaged)
 Orbital energies read from record       2140.2  Type=MCSCF/NATURAL (state averaged)
 Redundancy group numbers read from rec  2140.2  Type=MCSCF/NATURAL (state averaged)

 MULTI/6-31G* energy=    -77.485186269665

           MULTI          HF-SCF
    -77.48518627    -78.02968014
 **********************************************************************************************************************************
 Molpro calculation terminated
