
 Primary working directories    : /scratch.local/johan406.molpro_temp/molpro.COUI0WLgZO
 Secondary working directories  : /scratch.local/johan406.molpro_temp/molpro.COUI0WLgZO
 Wavefunction directory         : /home/goodpast/johan406/wfu/
 Main file repository           : /scratch.local/johan406.molpro_temp/molpro.COUI0WLgZO/

 id        : roweumn

 Nodes     nprocs
 cn0117       1

 Using customized tuning parameters: mindgm=1; mindgv=20; mindgc=4; mindgr=1; noblas=0; minvec=7
 default implementation of scratch files=df  


 Variables initialized (934), CPU time= 0.01 sec
                                                                                 !leave this line blank
 
 gprint, orbitals=30
 memory, 125., m
 symmetry, nosym
 nelect=16
 basis=6-31g*
 
 geometry={
 C -0.0 0.0 0.661
 C 0.0 0.0 -0.6773
 H 0.0 0.8824 1.2823
 H 0.0 -0.8824 1.2823
 H 0.0 0.9474 -1.1872
 H -0.0 -0.9474 -1.1872
 }
 
 hf
 {multi,
 closed 7
 occ 9
 wf,spin=0;STATE,3
 }
 
 Commands  initialized (763), CPU time= 0.01 sec, 617 directives.
 Default parameters read. Elapsed time= 0.09 sec

 Checking input...
 Passed
1


                                         ***  PROGRAM SYSTEM MOLPRO  ***
                                       Copyright, TTI GmbH Stuttgart, 2015
                                    Version 2019.2 linked Oct 25 2019 22:50:27


 **********************************************************************************************************************************
 LABEL *                                                                                 
  64 bit serial version                                                                  DATE: 26-Jan-23          TIME: 20:23:57  
 **********************************************************************************************************************************

 SHA1:             8dbd9ae1082e4ce945b0f27595c9eb2d4aa09004
 **********************************************************************************************************************************


 Variable memory set to  125000000 words,  buffer space 

 SETTING NELECT         =        16.00000000                                  
 SETTING BASIS          =    6-31G*
 ZSYMEL=NOSYM


Geometry recognized as XYZ



 Recomputing integrals since basis changed


 Using spherical harmonics

 Library entry C      S 6-31G                selected for orbital group  1
 Library entry C      P 6-31G                selected for orbital group  1
 Library entry C      D 6-31G*               selected for orbital group  1
 Library entry H      S 6-31G                selected for orbital group  2


 PROGRAM * SEWARD (Integral evaluation for generally contracted gaussian basis sets)     Author: Roland Lindh, 1990

 Geometry written to block  1 of record 700


 Point group  C1  



 ATOMIC COORDINATES

 NR  ATOM    CHARGE       X              Y              Z

   1  C       6.00    0.000000000    0.000000000    1.249108968
   2  C       6.00    0.000000000    0.000000000   -1.279911504
   3  H       1.00    0.000000000    1.667494332    2.423195810
   4  H       1.00    0.000000000   -1.667494332    2.423195810
   5  H       1.00    0.000000000    1.790326530   -2.243482855
   6  H       1.00    0.000000000   -1.790326530   -2.243482855

 Bond lengths in Bohr (Angstrom)

 1-2  2.529020473  1-3  2.039366877  1-4  2.039366877  2-5  2.033159815  2-6  2.033159815
     ( 1.338300000)     ( 1.079186476)     ( 1.079186476)     ( 1.075901840)     ( 1.075901840)

 Bond angles

  1-2-5  118.28957469   1-2-6  118.28957469   2-1-3  125.14947000   2-1-4  125.14947000

  3-1-4  109.70106000   5-2-6  123.42085061

 NUCLEAR CHARGE:                   16
 NUMBER OF PRIMITIVE AOS:          72
 NUMBER OF SYMMETRY AOS:           70
 NUMBER OF CONTRACTIONS:           36   (   36A   )
 NUMBER OF CORE ORBITALS:           2   (    2A   )
 NUMBER OF VALENCE ORBITALS:       12   (   12A   )


 NUCLEAR REPULSION ENERGY   33.38529194

 EXTRA SYMMETRY OF AOS IN SYMMETRY 1:   1 1 1 2 1 1 2 1 1 1   3 2 1 1 1 1 1 2 1 1   2 1 1 1 3 2 1 1 1 1   1 1 1 1 1 1

 Eigenvalues of metric

         1 0.829E-02 0.173E-01 0.363E-01 0.478E-01 0.710E-01 0.192E+00 0.212E+00 0.226E+00


 Contracted 2-electron integrals neglected if value below      1.0D-11
 AO integral compression algorithm  1   Integral accuracy      1.0D-11

     0.786 MB (compressed) written to integral file ( 37.9%)


 NUMBER OF SORTED TWO-ELECTRON INTEGRALS:     222111.     BUFFER LENGTH:  32768
 NUMBER OF SEGMENTS:   1  SEGMENT LENGTH:     222111      RECORD LENGTH: 524288

 Memory used in sort:       0.78 MW

 SORT1 READ      284735. AND WROTE       98531. INTEGRALS IN      1 RECORDS. CPU TIME:     0.00 SEC, REAL TIME:     0.00 SEC
 SORT2 READ       98531. AND WROTE      222111. INTEGRALS IN      3 RECORDS. CPU TIME:     0.02 SEC, REAL TIME:     0.03 SEC

 FILE SIZES:   FILE 1:    30.9 MBYTE,  FILE 4:     4.2 MBYTE,   TOTAL:     35.1 MBYTE

 OPERATOR DM      FOR CENTER  0  COORDINATES:    0.000000    0.000000    0.000000


 **********************************************************************************************************************************
 DATASETS  * FILE   NREC   LENGTH (MB)   RECORD NAMES
              1      19       30.63       500      610      700      900      950      970     1000      129      960     1100   
                                          VAR    BASINP    GEOM    SYMINP    ZMAT    AOBASIS   BASIS     P2S    ABASIS      S 
                                         1400     1410     1200     1210     1080     1600     1650     1300     1700   
                                           T        V       H0       H01     AOSYM     SMH    MOLCAS    ERIS     OPER   

 PROGRAMS   *        TOTAL       INT
 CPU TIMES  *         0.36      0.25
 REAL TIME  *         0.57 SEC
 DISK USED  *        35.45 MB
 **********************************************************************************************************************************


 PROGRAM * RHF-SCF (CLOSED SHELL)       Authors: W. Meyer, H.-J. Werner


 NUMBER OF ELECTRONS:       8+    8-    SPACE SYMMETRY=1    SPIN SYMMETRY: Singlet 
 CONVERGENCE THRESHOLDS:    1.00E-05 (Density)    1.00E-07 (Energy)
 MAX. NUMBER OF ITERATIONS:       60
 INTERPOLATION TYPE:            DIIS
 INTERPOLATION STEPS:              2 (START)      1 (STEP)
 LEVEL SHIFTS:                  0.00 (CLOSED)  0.00 (OPEN) 



 Orbital guess generated from atomic densities. Full valence occupancy:    8

 Molecular orbital dump at record        2100.2

 Initial occupancy:   8

 ITERATION    DDIFF          GRAD             ENERGY        2-EL.EN.            DIPOLE MOMENTS         DIIS   ORB.
    1      0.000D+00      0.000D+00       -78.00389533    118.682619    0.00000   -0.00000    0.04098    0    start
    2      0.000D+00      0.859D-02       -78.02583719    116.841777    0.00000    0.00000    0.01721    1    diag
    3      0.822D-02      0.292D-02       -78.02797524    117.473926    0.00000   -0.00000    0.01838    2    diag
    4      0.265D-02      0.715D-03       -78.02818730    117.375051    0.00000   -0.00000    0.01819    3    diag
    5      0.108D-02      0.731D-04       -78.02818962    117.377817    0.00000   -0.00000    0.01718    4    diag
    6      0.149D-03      0.159D-04       -78.02818971    117.377615    0.00000   -0.00000    0.01812    5    diag
    7      0.218D-04      0.729D-05       -78.02818972    117.377492    0.00000    0.00000    0.01800    6    diag
    8      0.611D-05      0.159D-05       -78.02818972    117.377505    0.00000   -0.00000    0.01804    0    orth

 Final occupancy:   8

 !RHF STATE  1.1 Energy               -78.028189719261
 Nuclear energy                        33.38529194
 One-electron energy                 -170.10223413
 Two-electron energy                   58.68875247
 Virial quotient                       -1.00021148
 !RHF STATE  1.1 Dipole moment          0.00000000    -0.00000000     0.01804213
 Dipole moment /Debye                   0.00000000    -0.00000000     0.04585552

 ELECTRON ORBITALS
 =================

  Orbital  Occupation    Energy     Coefficients
    1.1     2.00000   -11.22585     1 1s    0.45607     2 1s    0.88535
    2.1     2.00000   -11.22389     1 1s    0.88558     2 1s   -0.45652
    3.1     2.00000    -1.02701     1 1s    0.30102     2 1s    0.30307
    4.1     2.00000    -0.79220     1 1s    0.24594
    5.1     2.00000    -0.63908     1 2py   0.29060     2 2py   0.34992
    6.1     2.00000    -0.58186     1 2pz  -0.39869     2 2pz   0.41390
    7.1     2.00000    -0.50307     1 2py   0.33305     2 2py  -0.27440
    8.1     2.00000    -0.36941     1 2px   0.37179     1 2px   0.30686     2 2px   0.37486     2 2px   0.30892
    9.1     0.00000     0.17854     1 2px  -0.34279     1 2px  -0.73481     2 2px   0.34150     2 2px   0.73277
   10.1     0.00000     0.26529     1 1s   -1.35280     1 2pz  -0.71500     2 1s   -1.62546     2 2pz   0.57250     3 1s    1.00714
                                    4 1s    1.00714     5 1s    1.06351     6 1s    1.06351
   11.1     0.00000     0.29414     1 2py  -0.25835     1 2py  -0.73033     2 2py  -0.89607     3 1s    1.04003     4 1s   -1.04003
                                    5 1s    1.16874     6 1s   -1.16874
   12.1     0.00000     0.30805     1 1s   -2.01454     2 1s    1.79891     3 1s    1.14552     4 1s    1.14552     5 1s   -1.00188
                                    6 1s   -1.00188
   13.1     0.00000     0.39046     1 2py   1.81428     2 2py  -1.92530     3 1s   -1.59636     4 1s    1.59636     5 1s    1.65299
                                    6 1s   -1.65299
   14.1     0.00000     0.48855     1 1s   -2.90491     1 2pz   2.95392     2 1s    3.08350     2 2pz   2.92397     3 1s   -0.67550
                                    4 1s   -0.67550     5 1s    0.47552     6 1s    0.47552
   15.1     0.00000     0.67214     1 1s   -0.25743     1 2pz   0.51640     1 2pz  -1.41534     2 1s   -0.58413     2 2pz  -0.59755
                                    2 2pz   0.66980
   16.1     0.00000     0.76447     1 2py  -0.44413     1 2py   0.81699     2 2py  -0.35017     2 2py   0.71902     3 1s   -0.42395
                                    4 1s    0.42395     5 1s   -0.34679     6 1s    0.34679
   17.1     0.00000     0.77706     1 2px  -0.73834     1 2px   0.63599     2 2px  -0.74279     2 2px   0.64312
   18.1     0.00000     0.86567     1 1s   -0.87982     1 1s    1.06302     1 2pz   0.79995     2 1s   -0.89645     2 1s    1.89994
                                    3 1s   -0.38426     3 1s   -0.34724     4 1s   -0.38426     4 1s   -0.34724     5 1s   -0.40748
                                    6 1s   -0.40748
   19.1     0.00000     0.89031     1 2px   0.82099     1 2px  -1.07547     2 2px  -0.81607     2 2px   1.07221
   20.1     0.00000     0.95669     1 1s   -0.91874     1 2pz   0.63552     1 2pz  -0.66302     2 1s    0.70936     2 2pz   0.57155
                                    2 2pz  -0.37629     3 1s    0.40270     4 1s    0.40270     5 1s   -0.36382     6 1s   -0.36382
   21.1     0.00000     1.11444     1 2py  -0.80419     1 2py   1.40154     2 2py  -0.55454     2 2py   0.75547     3 1s    0.41753
                                    3 1s   -1.23092     4 1s   -0.41753     4 1s    1.23092     5 1s    0.34249     5 1s   -0.86999
                                    6 1s   -0.34249     6 1s    0.86999
   22.1     0.00000     1.15953     1 2py  -0.78002     1 2py   2.61923     2 2py   1.04902     2 2py  -3.20868     3 1s   -1.29884
                                    4 1s    1.29884     5 1s    1.69328     6 1s   -1.69328
   23.1     0.00000     1.19980     1 1s   -0.54350     1 1s    1.32790     1 2pz  -0.56077     2 1s   -1.05422     2 1s    1.31621
                                    2 2pz   0.67040     2 2pz  -1.27380     5 1s    0.63299     5 1s   -1.27572     6 1s    0.63299
                                    6 1s   -1.27572
   24.1     0.00000     1.23478     1 1s   -1.15885     1 1s    1.87704     1 2pz  -0.71739     1 2pz   1.11706     2 1s    0.30274
                                    2 2pz   0.43203     3 1s    0.64712     3 1s   -1.30254     4 1s    0.64712     4 1s   -1.30254
   25.1     0.00000     1.33856     1 1s    1.48282     1 1s   -5.22103     1 2pz  -0.28842     1 2pz   1.88508     2 1s   -1.66750
                                    2 1s    5.44505     2 2pz  -0.26155     2 2pz   1.94377     3 1s    0.25182     4 1s    0.25182
                                    5 1s   -0.37958     6 1s   -0.37958
   26.1     0.00000     1.47434     1 2py  -2.35730     2 2py   2.67839     3 1s    0.64891     3 1s    0.59916     4 1s   -0.64891
                                    4 1s   -0.59916     5 1s   -0.74470     5 1s   -0.72445     6 1s    0.74470     6 1s    0.72445
   27.1     0.00000     1.73900     1 3d1+  0.62206     2 3d1+ -0.61605
   28.1     0.00000     1.82179     1 3d2-  0.67045     2 3d2-  0.69186
   29.1     0.00000     2.12800     1 3d2-  0.74601     2 3d2- -0.72620
   30.1     0.00000     2.20895     1 1s   -0.41725     1 2pz  -0.41149     1 3d2+  0.75995     2 1s   -0.81558     2 3d2+  0.66506
                                    3 1s    0.39679     4 1s    0.39679     5 1s    0.35517     6 1s    0.35517
   31.1     0.00000     2.32206     1 2py  -0.28286     1 3d1- -0.64366     2 2py  -0.25778     2 2py  -0.48359     2 3d1-  0.73256
                                    3 1s    0.46337     4 1s   -0.46337     5 1s    0.56786     6 1s   -0.56786
   32.1     0.00000     2.40384     1 1s   -0.44832     1 2pz   0.26796     1 2pz  -0.53916     1 3d0   0.69466     1 3d2+  0.27142
                                    2 1s   -0.55773     2 1s    0.26542     2 2pz  -0.29989     2 2pz   0.36299     2 3d0   0.66769
   33.1     0.00000     2.63480     1 1s   -0.35759     1 1s    1.39303     1 2pz  -0.32471     1 3d2+ -0.70442     2 1s   -1.31480
                                    2 2pz  -0.26900     2 3d2+  0.86951     3 1s   -0.37929     4 1s   -0.37929     5 1s    0.50868
                                    6 1s    0.50868
   34.1     0.00000     2.70787     1 2px  -0.26455     1 3d1+  0.90058     2 2px   0.26444     2 3d1+  0.90469
   35.1     0.00000     3.05382     1 2py   0.46463     1 3d1-  1.02097     2 2py  -0.54893     2 3d1-  0.91569     3 1s   -0.51567
                                    4 1s    0.51567     5 1s    0.41705     6 1s   -0.41705
   36.1     0.00000     3.06374     1 1s   -0.33355     1 1s   -1.98723     1 2pz   0.79072     1 2pz   1.18309     1 3d0  -1.10470
                                    2 1s    0.29972     2 1s    2.04769     2 2pz   0.79998     2 2pz   1.16808     2 3d0   1.12026


 HOMO      8.1    -0.369407 =     -10.0521eV
 LUMO      9.1     0.178538 =       4.8583eV
 LUMO-HOMO         0.547945 =      14.9103eV


 **********************************************************************************************************************************
 DATASETS  * FILE   NREC   LENGTH (MB)   RECORD NAMES
              1      19       30.63       500      610      700      900      950      970     1000      129      960     1100   
                                          VAR    BASINP    GEOM    SYMINP    ZMAT    AOBASIS   BASIS     P2S    ABASIS      S 
                                         1400     1410     1200     1210     1080     1600     1650     1300     1700   
                                           T        V       H0       H01     AOSYM     SMH    MOLCAS    ERIS     OPER   

              2       4        2.86       700     1000      520     2100   
                                         GEOM     BASIS   MCVARS     RHF  

 PROGRAMS   *        TOTAL    HF-SCF       INT
 CPU TIMES  *         0.46      0.10      0.25
 REAL TIME  *         0.69 SEC
 DISK USED  *        35.45 MB
 **********************************************************************************************************************************


 PROGRAM * MULTI (Direct Multiconfiguration SCF)       Authors: P.J. Knowles, H.-J. Werner (1984)


 Number of closed-shell orbitals:   7 (   7 )
 Number of active  orbitals:        2 (   2 )
 Number of external orbitals:      27 (  27 )

 State symmetry 1

 Number of electrons:     2    Spin symmetry=Singlet   Space symmetry=1
 Number of states:        3
 Number of CSFs:          3   (4 determinants, 4 intermediate states)

 Molecular orbitals read from record     2100.2  Type=RHF/CANONICAL (state 1.1)

 EXTRA SYMMETRY OF MOS IN SYMMETRY 1:   1 1 1 1 1 1 1 2 2 1   1 1 1 1 1 1 2 1 2 1   1 1 1 1 1 1 2 3 3 1   1 1 1 2 1 1

 Wavefunction dump at record             2140.2

 Convergence thresholds  0.10E-01 (gradient)  0.10E-05 (energy)  0.10E-02 (step length)

 Weight factors for state symmetry  1:    0.33333   0.33333   0.33333

 Number of orbital rotations:      257   (    14 Core/Active    189 Core/Virtual   0 Active/Active     54 Active/Virtual)
 Total number of variables:        269

 Micro-Iterations solved by the two-step solver

 ITER. MIC  NCI  NEG     ENERGY(VAR)     ENERGY(PROJ)   ENERGY CHANGE     GRAD(0)  GRAD(ORB)   GRAD(CI)     STEP       TIME

   1    3    3    0     -77.72693259     -77.73318370   -0.00625111    0.13265537 0.00000154 0.00000000  0.63D-01      0.06
   2    2    3    0     -77.73308499     -77.73308877   -0.00000378    0.00304828 0.00000186 0.00000000  0.16D-02      0.10
   3    2    3    0     -77.73308877     -77.73308877   -0.00000000    0.00000217 0.00000000 0.00000000  0.13D-05      0.13

 ** WVFN ****  CONVERGENCE REACHED, FINAL GRADIENT:  0.13D-11



 Results for state 1.1
 =====================

 !MCSCF STATE  1.1 Energy             -78.045856063899
 Nuclear energy                        33.38529194
 Kinetic energy                        78.07997963
 One electron energy                 -170.23462358
 Two electron energy                   58.80347558
 Virial ratio                           1.99956297

 !MCSCF STATE  1.1 Dipole moment        0.00000000     0.00000000     0.02305595
 Dipole moment /Debye                   0.00000000     0.00000000     0.05859855

 Results for state 2.1
 =====================

 !MCSCF STATE  2.1 Energy             -77.669840439481
 Nuclear energy                        33.38529194
 Kinetic energy                        78.26035025
 One electron energy                 -169.66102941
 Two electron energy                   58.60589704
 Virial ratio                           1.99245455

 !MCSCF STATE  2.1 Dipole moment        0.00000000     0.00000000     0.04908263
 Dipole moment /Debye                   0.00000000     0.00000000     0.12474743

 Results for state 3.1
 =====================

 !MCSCF STATE  3.1 Energy             -77.483569813289
 Nuclear energy                        33.38529194
 Kinetic energy                        78.44055851
 One electron energy                 -169.08789951
 Two electron energy                   58.21903776
 Virial ratio                           1.98779982

 !MCSCF STATE  3.1 Dipole moment        0.00000000     0.00000000    -0.02767542
 Dipole moment /Debye                   0.00000000     0.00000000    -0.07033928

 State-averaged charge density matrix saved on record  2140.2 (density set 1)

 !MCSCF expec         <1.1|DMZ|1.1>     0.023055952944 au =     0.058598548883 Debye
 !MCSCF trans         <2.1|DMZ|1.1>     1.510431415434 au =     3.838882276838 Debye
 !MCSCF expec         <2.1|DMZ|2.1>     0.049082631616 au =     0.124747434862 Debye
 !MCSCF trans         <3.1|DMZ|1.1>    -0.007920703244 au =    -0.020131100952 Debye
 !MCSCF trans         <3.1|DMZ|2.1>     2.273076992993 au =     5.777207023850 Debye
 !MCSCF expec         <3.1|DMZ|3.1>    -0.027675415832 au =    -0.070339283370 Debye


 NATURAL ORBITALS (state averaged)
 =================================

  Orbital  Occupation    Energy     Coefficients
    1.1     2.00000   -11.24280     2 1s    0.98327
    2.1     2.00000   -11.23861     1 1s    0.98333
    3.1     2.00000    -1.04178     1 1s    0.30764     2 1s    0.31246
    4.1     2.00000    -0.79990     1 1s    0.29294     2 1s   -0.28029
    5.1     2.00000    -0.65211     1 2py   0.29441     2 2py   0.35717
    6.1     2.00000    -0.59705     1 2pz  -0.40126     2 2pz   0.41488
    7.1     2.00000    -0.50951     1 2py   0.34139     2 2py  -0.27886
    8.1     1.00000    -0.22551     1 2px   0.35627     1 2px   0.31844     2 2px   0.35959     2 2px   0.32018
    9.1     1.00000     0.03366     1 2px  -0.38064     1 2px  -0.68792     2 2px   0.37960     2 2px   0.68565
   10.1    -0.00000     0.26249     1 1s   -1.30770     1 2pz  -0.71945     2 1s   -1.65813     2 2pz   0.57640     3 1s    0.98620
                                    4 1s    0.98620     5 1s    1.08064     6 1s    1.08064
   11.1    -0.00000     0.28569     1 2py  -0.25595     1 2py  -0.71669     2 2py  -0.89057     3 1s    1.02876     4 1s   -1.02876
                                    5 1s    1.16318     6 1s   -1.16318
   12.1    -0.00000     0.30503     1 1s   -2.06587     2 1s    1.79213     3 1s    1.15839     4 1s    1.15839     5 1s   -0.97615
                                    6 1s   -0.97615
   13.1    -0.00000     0.38620     1 2py   1.80254     2 2py  -0.25272     2 2py  -1.90761     3 1s   -1.59126     4 1s    1.59126
                                    5 1s    1.64390     6 1s   -1.64390
   14.1    -0.00000     0.48576     1 1s   -2.88048     1 2pz   2.93803     2 1s    3.06188     2 2pz   2.90525     3 1s   -0.68548
                                    4 1s   -0.68548     5 1s    0.48552     6 1s    0.48552
   15.1    -0.00000     0.66032     1 1s   -0.29711     1 2pz   0.50495     1 2pz  -1.36142     2 1s   -0.46648     2 2pz  -0.59167
                                    2 2pz   0.67506
   16.1    -0.00000     0.75421     1 2py  -0.45685     1 2py   0.81797     2 2py  -0.36044     2 2py   0.73414     3 1s   -0.41785
                                    4 1s    0.41785     5 1s   -0.34354     6 1s    0.34354
   17.1    -0.00000     0.77104     1 2px  -0.74026     1 2px   0.62400     2 2px  -0.75407     2 2px   0.64453
   18.1    -0.00000     0.86295     1 1s   -0.86759     1 1s    1.04857     1 2pz   0.83756     2 1s   -0.89519     2 1s    1.95299
                                    3 1s   -0.37349     3 1s   -0.35819     4 1s   -0.37349     4 1s   -0.35819     5 1s   -0.41959
                                    6 1s   -0.41959
   19.1    -0.00000     0.87271     1 2px   0.80980     1 2px  -1.10963     2 2px  -0.79603     2 2px   1.09891
   20.1    -0.00000     0.93803     1 1s   -0.79247     1 2pz   0.64211     1 2pz  -0.77278     2 1s    0.49611     2 2pz   0.57365
                                    2 2pz  -0.45786     3 1s    0.41143     4 1s    0.41143     5 1s   -0.35408     6 1s   -0.35408
   21.1    -0.00000     1.09924     1 2py  -0.77075     1 2py   1.33713     2 2py  -0.57122     2 2py   0.83692     3 1s    0.41468
                                    3 1s   -1.20734     4 1s   -0.41468     4 1s    1.20734     5 1s    0.34849     5 1s   -0.92081
                                    6 1s   -0.34849     6 1s    0.92081
   22.1    -0.00000     1.14668     1 2py  -0.79885     1 2py   2.65922     2 2py   1.03027     2 2py  -3.19288     3 1s   -1.33726
                                    4 1s    1.33726     5 1s    1.67890     6 1s   -1.67890
   23.1    -0.00000     1.19582     1 1s   -0.58546     1 1s    1.46285     1 2pz  -0.59197     2 1s   -1.01230     2 1s    1.19054
                                    2 2pz   0.68062     2 2pz  -1.32241     5 1s    0.63281     5 1s   -1.26439     6 1s    0.63281
                                    6 1s   -1.26439
   24.1    -0.00000     1.23324     1 1s   -1.11241     1 1s    1.73087     1 2pz  -0.72964     1 2pz   1.17364     2 1s    0.42576
                                    2 2pz   0.49051     3 1s    0.65068     3 1s   -1.29505     4 1s    0.65068     4 1s   -1.29505
   25.1    -0.00000     1.31871     1 1s    1.50214     1 1s   -5.24957     1 2pz  -0.26482     1 2pz   1.83745     2 1s   -1.68877
                                    2 1s    5.47438     2 2pz   1.89983     3 1s    0.28766     4 1s    0.28766     5 1s   -0.41626
                                    6 1s   -0.41626
   26.1    -0.00000     1.46563     1 2py  -2.36077     2 2py   2.68201     3 1s    0.64983     3 1s    0.59913     4 1s   -0.64983
                                    4 1s   -0.59913     5 1s   -0.74161     5 1s   -0.72673     6 1s    0.74161     6 1s    0.72673
   27.1    -0.00000     1.71331     1 3d1+  0.62120     2 3d1+ -0.61638
   28.1    -0.00000     1.80792     1 3d2-  0.66816     2 3d2-  0.69408
   29.1    -0.00000     2.10494     1 3d2-  0.74806     2 3d2- -0.72408
   30.1    -0.00000     2.19365     1 1s   -0.41138     1 2pz  -0.41604     1 3d2+  0.75827     2 1s   -0.81363     2 3d2+  0.66590
                                    3 1s    0.39863     4 1s    0.39863     5 1s    0.35721     6 1s    0.35721
   31.1    -0.00000     2.30590     1 2py  -0.28968     1 3d1- -0.64233     2 2py  -0.26472     2 2py  -0.48215     2 3d1-  0.73034
                                    3 1s    0.46627     4 1s   -0.46627     5 1s    0.57189     6 1s   -0.57189
   32.1    -0.00000     2.38377     1 1s   -0.44667     1 2pz   0.27521     1 2pz  -0.54229     1 3d0   0.69379     1 3d2+  0.27176
                                    2 1s   -0.55519     2 1s    0.26475     2 2pz  -0.30431     2 2pz   0.36566     2 3d0   0.66812
   33.1    -0.00000     2.61497     1 1s   -0.35886     1 1s    1.39975     1 2pz  -0.32288     1 3d2+ -0.70475     2 1s   -1.31886
                                    2 2pz  -0.26782     2 3d2+  0.86786     3 1s   -0.38276     4 1s   -0.38276     5 1s    0.51135
                                    6 1s    0.51135
   34.1    -0.00000     2.68534     1 2px  -0.26535     1 3d1+  0.90139     2 2px   0.26517     2 3d1+  0.90465
   35.1    -0.00000     3.04096     1 2py   0.46441     1 3d1-  1.02038     2 2py  -0.54938     2 3d1-  0.91554     3 1s   -0.51796
                                    4 1s    0.51796     5 1s    0.41936     6 1s   -0.41936
   36.1    -0.00000     3.04571     1 1s   -0.32616     1 1s   -2.01288     1 2pz   0.78302     1 2pz   1.19669     1 3d0  -1.10710
                                    2 1s    0.29295     2 1s    2.07331     2 2pz   0.79263     2 2pz   1.18133     2 3d0   1.12116


 Natural orbital dump (state averaged) at molpro section  2140.2    (Orbital set 2)



 **********************************************************************************************************************************
 DATASETS  * FILE   NREC   LENGTH (MB)   RECORD NAMES
              1      20       31.36       500      610      700      900      950      970     1000      129      960     1100   
                                          VAR    BASINP    GEOM    SYMINP    ZMAT    AOBASIS   BASIS     P2S    ABASIS      S 
                                         1400     1410     1200     1210     1080     1600     1650     1300     1700     1380   
                                           T        V       H0       H01     AOSYM     SMH    MOLCAS    ERIS     OPER     JKOP   

              2       5        5.42       700     1000      520     2100     2140   
                                         GEOM     BASIS   MCVARS     RHF     MCSCF   

 PROGRAMS   *        TOTAL     MULTI    HF-SCF       INT
 CPU TIMES  *         0.62      0.16      0.10      0.25
 REAL TIME  *         0.89 SEC
 DISK USED  *        38.55 MB
 **********************************************************************************************************************************
 Molecular orbitals read from record     2140.2  Type=MCSCF/NATURAL (state averaged)
 Occupation numbers read from record     2140.2  Type=MCSCF/NATURAL (state averaged)
 Orbital energies read from record       2140.2  Type=MCSCF/NATURAL (state averaged)
 Redundancy group numbers read from rec  2140.2  Type=MCSCF/NATURAL (state averaged)

 MULTI/6-31G* energy=    -77.483569813289

           MULTI          HF-SCF
    -77.48356981    -78.02818972
 **********************************************************************************************************************************
 Molpro calculation terminated
