
 Primary working directories    : /scratch.local/johan406.molpro_temp/molpro.HPwjk6UD3v
 Secondary working directories  : /scratch.local/johan406.molpro_temp/molpro.HPwjk6UD3v
 Wavefunction directory         : /home/goodpast/johan406/wfu/
 Main file repository           : /scratch.local/johan406.molpro_temp/molpro.HPwjk6UD3v/

 id        : roweumn

 Nodes     nprocs
 cn0117       1

 Using customized tuning parameters: mindgm=1; mindgv=20; mindgc=4; mindgr=1; noblas=0; minvec=7
 default implementation of scratch files=df  


 Variables initialized (934), CPU time= 0.00 sec
                                                                                 !leave this line blank
 
 gprint, orbitals=30
 memory, 125., m
 symmetry, nosym
 nelect=16
 basis=6-31g*
 
 geometry={
 C -0.0 0.0 0.6593
 C 0.0 0.0 -0.6789
 H 0.0 0.8757 1.2922
 H 0.0 -0.8757 1.2922
 H 0.0 0.9541 -1.1774
 H -0.0 -0.9541 -1.1774
 }
 
 hf
 {multi,
 closed 7
 occ 9
 wf,spin=0;STATE,3
 }
 
 Commands  initialized (763), CPU time= 0.01 sec, 617 directives.
 Default parameters read. Elapsed time= 0.08 sec

 Checking input...
 Passed
1


                                         ***  PROGRAM SYSTEM MOLPRO  ***
                                       Copyright, TTI GmbH Stuttgart, 2015
                                    Version 2019.2 linked Oct 25 2019 22:50:27


 **********************************************************************************************************************************
 LABEL *                                                                                 
  64 bit serial version                                                                  DATE: 26-Jan-23          TIME: 20:24:31  
 **********************************************************************************************************************************

 SHA1:             8dbd9ae1082e4ce945b0f27595c9eb2d4aa09004
 **********************************************************************************************************************************


 Variable memory set to  125000000 words,  buffer space 

 SETTING NELECT         =        16.00000000                                  
 SETTING BASIS          =    6-31G*
 ZSYMEL=NOSYM


Geometry recognized as XYZ



 Recomputing integrals since basis changed


 Using spherical harmonics

 Library entry C      S 6-31G                selected for orbital group  1
 Library entry C      P 6-31G                selected for orbital group  1
 Library entry C      D 6-31G*               selected for orbital group  1
 Library entry H      S 6-31G                selected for orbital group  2


 PROGRAM * SEWARD (Integral evaluation for generally contracted gaussian basis sets)     Author: Roland Lindh, 1990

 Geometry written to block  1 of record 700


 Point group  C1  



 ATOMIC COORDINATES

 NR  ATOM    CHARGE       X              Y              Z

   1  C       6.00    0.000000000    0.000000000    1.245896434
   2  C       6.00    0.000000000    0.000000000   -1.282935066
   3  H       1.00    0.000000000    1.654833167    2.441904098
   4  H       1.00    0.000000000   -1.654833167    2.441904098
   5  H       1.00    0.000000000    1.802987695   -2.224963539
   6  H       1.00    0.000000000   -1.802987695   -2.224963539

 Bond lengths in Bohr (Angstrom)

 1-2  2.528831500  1-3  2.041790181  1-4  2.041790181  2-5  2.034252264  2-6  2.034252264
     ( 1.338200000)     ( 1.080468833)     ( 1.080468833)     ( 1.076479939)     ( 1.076479939)

 Bond angles

  1-2-5  117.58625393   1-2-6  117.58625393   2-1-3  125.85699810   2-1-4  125.85699810

  3-1-4  108.28600380   5-2-6  124.82749215

 NUCLEAR CHARGE:                   16
 NUMBER OF PRIMITIVE AOS:          72
 NUMBER OF SYMMETRY AOS:           70
 NUMBER OF CONTRACTIONS:           36   (   36A   )
 NUMBER OF CORE ORBITALS:           2   (    2A   )
 NUMBER OF VALENCE ORBITALS:       12   (   12A   )


 NUCLEAR REPULSION ENERGY   33.37636613

 EXTRA SYMMETRY OF AOS IN SYMMETRY 1:   1 1 1 2 1 1 2 1 1 1   3 2 1 1 1 1 1 2 1 1   2 1 1 1 3 2 1 1 1 1   1 1 1 1 1 1

 Eigenvalues of metric

         1 0.827E-02 0.174E-01 0.357E-01 0.484E-01 0.711E-01 0.192E+00 0.213E+00 0.226E+00


 Contracted 2-electron integrals neglected if value below      1.0D-11
 AO integral compression algorithm  1   Integral accuracy      1.0D-11

     0.786 MB (compressed) written to integral file ( 37.9%)


 NUMBER OF SORTED TWO-ELECTRON INTEGRALS:     222111.     BUFFER LENGTH:  32768
 NUMBER OF SEGMENTS:   1  SEGMENT LENGTH:     222111      RECORD LENGTH: 524288

 Memory used in sort:       0.78 MW

 SORT1 READ      284735. AND WROTE       98531. INTEGRALS IN      1 RECORDS. CPU TIME:     0.01 SEC, REAL TIME:     0.01 SEC
 SORT2 READ       98531. AND WROTE      222111. INTEGRALS IN      3 RECORDS. CPU TIME:     0.02 SEC, REAL TIME:     0.02 SEC

 FILE SIZES:   FILE 1:    30.9 MBYTE,  FILE 4:     4.2 MBYTE,   TOTAL:     35.1 MBYTE

 OPERATOR DM      FOR CENTER  0  COORDINATES:    0.000000    0.000000    0.000000


 **********************************************************************************************************************************
 DATASETS  * FILE   NREC   LENGTH (MB)   RECORD NAMES
              1      19       30.63       500      610      700      900      950      970     1000      129      960     1100   
                                          VAR    BASINP    GEOM    SYMINP    ZMAT    AOBASIS   BASIS     P2S    ABASIS      S 
                                         1400     1410     1200     1210     1080     1600     1650     1300     1700   
                                           T        V       H0       H01     AOSYM     SMH    MOLCAS    ERIS     OPER   

 PROGRAMS   *        TOTAL       INT
 CPU TIMES  *         0.35      0.26
 REAL TIME  *         0.56 SEC
 DISK USED  *        35.45 MB
 **********************************************************************************************************************************


 PROGRAM * RHF-SCF (CLOSED SHELL)       Authors: W. Meyer, H.-J. Werner


 NUMBER OF ELECTRONS:       8+    8-    SPACE SYMMETRY=1    SPIN SYMMETRY: Singlet 
 CONVERGENCE THRESHOLDS:    1.00E-05 (Density)    1.00E-07 (Energy)
 MAX. NUMBER OF ITERATIONS:       60
 INTERPOLATION TYPE:            DIIS
 INTERPOLATION STEPS:              2 (START)      1 (STEP)
 LEVEL SHIFTS:                  0.00 (CLOSED)  0.00 (OPEN) 



 Orbital guess generated from atomic densities. Full valence occupancy:    8

 Molecular orbital dump at record        2100.2

 Initial occupancy:   8

 ITERATION    DDIFF          GRAD             ENERGY        2-EL.EN.            DIPOLE MOMENTS         DIIS   ORB.
    1      0.000D+00      0.000D+00       -78.00270443    118.666301    0.00000   -0.00000    0.04968    0    start
    2      0.000D+00      0.858D-02       -78.02464290    116.823908    0.00000    0.00000    0.02078    1    diag
    3      0.823D-02      0.293D-02       -78.02678725    117.457035    0.00000   -0.00000    0.02224    2    diag
    4      0.266D-02      0.716D-03       -78.02700069    117.358072   -0.00000   -0.00000    0.02198    3    diag
    5      0.108D-02      0.753D-04       -78.02700310    117.360785    0.00000    0.00000    0.02077    4    diag
    6      0.151D-03      0.181D-04       -78.02700322    117.360651    0.00000    0.00000    0.02185    5    diag
    7      0.240D-04      0.795D-05       -78.02700323    117.360504    0.00000    0.00000    0.02174    6    diag
    8      0.703D-05      0.189D-05       -78.02700324    117.360519   -0.00000   -0.00000    0.02179    0    orth

 Final occupancy:   8

 !RHF STATE  1.1 Energy               -78.027003235108
 Nuclear energy                        33.37636613
 One-electron energy                 -170.08362870
 Two-electron energy                   58.68025934
 Virial quotient                       -1.00026009
 !RHF STATE  1.1 Dipole moment         -0.00000000    -0.00000000     0.02179240
 Dipole moment /Debye                  -0.00000000    -0.00000000     0.05538712

 ELECTRON ORBITALS
 =================

  Orbital  Occupation    Energy     Coefficients
    1.1     2.00000   -11.22619     1 1s    0.41691     2 1s    0.90447
    2.1     2.00000   -11.22409     1 1s    0.90468     2 1s   -0.41737
    3.1     2.00000    -1.02709     1 1s    0.30078     2 1s    0.30324
    4.1     2.00000    -0.79216     1 1s    0.24668
    5.1     2.00000    -0.63924     1 2py   0.28419     2 2py   0.35503
    6.1     2.00000    -0.58147     1 2pz  -0.39670     2 2pz   0.41501
    7.1     2.00000    -0.50179     1 2py   0.33799     2 2py  -0.26794
    8.1     2.00000    -0.36952     1 2px   0.37152     1 2px   0.30661     2 2px   0.37520     2 2px   0.30908
    9.1     0.00000     0.17854     1 2px  -0.34296     1 2px  -0.73503     2 2px   0.34141     2 2px   0.73258
   10.1     0.00000     0.26471     1 1s   -1.32041     1 2pz  -0.72710     2 1s   -1.64978     2 2pz   0.55695     3 1s    0.99759
                                    4 1s    0.99759     5 1s    1.06692     6 1s    1.06692
   11.1     0.00000     0.29387     1 2py  -0.25970     1 2py  -0.71552     2 2py  -0.91297     3 1s    1.02811     4 1s   -1.02811
                                    5 1s    1.18154     6 1s   -1.18154
   12.1     0.00000     0.30730     1 1s   -2.02258     1 2pz  -0.27538     2 1s    1.76102     3 1s    1.15916     4 1s    1.15916
                                    5 1s   -0.98492     6 1s   -0.98492
   13.1     0.00000     0.39008     1 2py   1.79773     2 2py  -1.93173     3 1s   -1.58613     4 1s    1.58613     5 1s    1.65470
                                    6 1s   -1.65470
   14.1     0.00000     0.48765     1 1s   -2.89069     1 2pz   2.95143     2 1s    3.10620     2 2pz   2.91382     3 1s   -0.68846
                                    4 1s   -0.68846     5 1s    0.44827     6 1s    0.44827
   15.1     0.00000     0.67332     1 1s   -0.26919     1 2pz   0.50847     1 2pz  -1.48525     2 1s   -0.64437     2 2pz  -0.60620
                                    2 2pz   0.60252     3 1s    0.26121     4 1s    0.26121
   16.1     0.00000     0.76540     1 2py  -0.45317     1 2py   0.82535     2 2py  -0.33980     2 2py   0.70605     3 1s   -0.43134
                                    4 1s    0.43134     5 1s   -0.33844     6 1s    0.33844
   17.1     0.00000     0.77693     1 2px  -0.73786     1 2px   0.63531     2 2px  -0.74317     2 2px   0.64382
   18.1     0.00000     0.86713     1 1s   -0.87777     1 1s    0.97975     1 2pz   0.90238     2 1s   -0.89865     2 1s    1.99717
                                    3 1s   -0.38093     3 1s   -0.37363     4 1s   -0.38093     4 1s   -0.37363     5 1s   -0.41111
                                    6 1s   -0.41111
   19.1     0.00000     0.89024     1 2px   0.82146     1 2px  -1.07586     2 2px  -0.81559     2 2px   1.07196
   20.1     0.00000     0.95787     1 1s    0.91903     1 2pz  -0.64282     1 2pz   0.71835     2 1s   -0.65879     2 2pz  -0.56485
                                    2 2pz   0.36878     3 1s   -0.40712     4 1s   -0.40712     5 1s    0.35863     6 1s    0.35863
   21.1     0.00000     1.11326     1 2py   0.82373     1 2py  -1.45366     2 2py   0.52569     2 2py  -0.68265     3 1s   -0.42403
                                    3 1s    1.25992     4 1s    0.42403     4 1s   -1.25992     5 1s   -0.33447     5 1s    0.82916
                                    6 1s    0.33447     6 1s   -0.82916
   22.1     0.00000     1.15884     1 2py  -0.74871     1 2py   2.54599     2 2py   1.07065     2 2py  -3.25189     3 1s   -1.25286
                                    4 1s    1.25286     5 1s    1.72451     6 1s   -1.72451
   23.1     0.00000     1.19530     1 1s   -0.53853     1 1s    1.34618     1 2pz  -0.59956     2 1s   -1.04049     2 1s    1.26164
                                    2 2pz   0.66996     2 2pz  -1.29179     5 1s    0.63197     5 1s   -1.27519     6 1s    0.63197
                                    6 1s   -1.27519
   24.1     0.00000     1.23692     1 1s   -1.19017     1 1s    1.99810     1 2pz  -0.71344     1 2pz   1.06427     2 2pz   0.36091
                                    3 1s    0.64677     3 1s   -1.30080     4 1s    0.64677     4 1s   -1.30080
   25.1     0.00000     1.33867     1 1s    1.45493     1 1s   -5.17239     1 2pz  -0.29767     1 2pz   1.88073     2 1s   -1.67821
                                    2 1s    5.44329     2 2pz  -0.26487     2 2pz   1.95068     5 1s   -0.38410     6 1s   -0.38410
   26.1     0.00000     1.47419     1 2py  -2.31418     2 2py   2.70052     3 1s    0.63870     3 1s    0.58230     4 1s   -0.63870
                                    4 1s   -0.58230     5 1s   -0.75424     5 1s   -0.73293     6 1s    0.75424     6 1s    0.73293
   27.1     0.00000     1.73896     1 3d1+  0.62265     2 3d1+ -0.61543
   28.1     0.00000     1.82178     1 3d2-  0.66825     2 3d2-  0.69397
   29.1     0.00000     2.12817     1 3d2-  0.74798     2 3d2- -0.72418
   30.1     0.00000     2.20904     1 1s   -0.37844     1 2pz  -0.46023     1 3d2+  0.76965     2 1s   -0.86131     2 3d2+  0.65443
                                    3 1s    0.40159     4 1s    0.40159     5 1s    0.35134     6 1s    0.35134
   31.1     0.00000     2.31672     1 2py  -0.28166     1 3d1- -0.63238     2 2py  -0.25209     2 2py  -0.53995     2 3d1-  0.74002
                                    3 1s    0.45161     4 1s   -0.45161     5 1s    0.57589     6 1s   -0.57589
   32.1     0.00000     2.40230     1 1s   -0.43667     1 2pz   0.26676     1 2pz  -0.55708     1 3d0   0.69379     1 3d2+  0.28626
                                    2 1s   -0.56574     2 1s    0.28468     2 2pz  -0.30318     2 2pz   0.34817     2 3d0   0.66226
   33.1     0.00000     2.63789     1 1s   -0.36805     1 1s    1.40207     1 2pz  -0.33950     1 3d2+ -0.68378     2 1s   -1.31032
                                    2 2pz  -0.27403     2 3d2+  0.87998     3 1s   -0.36661     4 1s   -0.36661     5 1s    0.52012
                                    6 1s    0.52012
   34.1     0.00000     2.70787     1 2px  -0.26459     1 3d1+  0.90023     2 2px   0.26445     2 3d1+  0.90516
   35.1     0.00000     3.04918     1 2py   0.43057     1 3d1-  1.03043     2 2py  -0.52769     2 3d1-  0.90379     3 1s   -0.52010
                                    4 1s    0.52010     5 1s    0.40087     6 1s   -0.40087
   36.1     0.00000     3.06458     1 1s   -0.33757     1 1s   -1.97867     1 2pz   0.78959     1 2pz   1.18335     1 3d0  -1.10353
                                    2 1s    0.29721     2 1s    2.05095     2 2pz   0.80074     2 2pz   1.16530     2 3d0   1.12208


 HOMO      8.1    -0.369521 =     -10.0552eV
 LUMO      9.1     0.178536 =       4.8582eV
 LUMO-HOMO         0.548057 =      14.9134eV


 **********************************************************************************************************************************
 DATASETS  * FILE   NREC   LENGTH (MB)   RECORD NAMES
              1      19       30.63       500      610      700      900      950      970     1000      129      960     1100   
                                          VAR    BASINP    GEOM    SYMINP    ZMAT    AOBASIS   BASIS     P2S    ABASIS      S 
                                         1400     1410     1200     1210     1080     1600     1650     1300     1700   
                                           T        V       H0       H01     AOSYM     SMH    MOLCAS    ERIS     OPER   

              2       4        2.86       700     1000      520     2100   
                                         GEOM     BASIS   MCVARS     RHF  

 PROGRAMS   *        TOTAL    HF-SCF       INT
 CPU TIMES  *         0.45      0.10      0.26
 REAL TIME  *         0.68 SEC
 DISK USED  *        35.45 MB
 **********************************************************************************************************************************


 PROGRAM * MULTI (Direct Multiconfiguration SCF)       Authors: P.J. Knowles, H.-J. Werner (1984)


 Number of closed-shell orbitals:   7 (   7 )
 Number of active  orbitals:        2 (   2 )
 Number of external orbitals:      27 (  27 )

 State symmetry 1

 Number of electrons:     2    Spin symmetry=Singlet   Space symmetry=1
 Number of states:        3
 Number of CSFs:          3   (4 determinants, 4 intermediate states)

 Molecular orbitals read from record     2100.2  Type=RHF/CANONICAL (state 1.1)

 EXTRA SYMMETRY OF MOS IN SYMMETRY 1:   1 1 1 1 1 1 1 2 2 1   1 1 1 1 1 1 2 1 2 1   1 1 1 1 1 1 2 3 3 1   1 1 1 2 1 1

 Wavefunction dump at record             2140.2

 Convergence thresholds  0.10E-01 (gradient)  0.10E-05 (energy)  0.10E-02 (step length)

 Weight factors for state symmetry  1:    0.33333   0.33333   0.33333

 Number of orbital rotations:      257   (    14 Core/Active    189 Core/Virtual   0 Active/Active     54 Active/Virtual)
 Total number of variables:        269

 Micro-Iterations solved by the two-step solver

 ITER. MIC  NCI  NEG     ENERGY(VAR)     ENERGY(PROJ)   ENERGY CHANGE     GRAD(0)  GRAD(ORB)   GRAD(CI)     STEP       TIME

   1    3    3    0     -77.72565319     -77.73190921   -0.00625601    0.13269214 0.00000155 0.00000000  0.63D-01      0.06
   2    2    3    0     -77.73181035     -77.73181414   -0.00000379    0.00305161 0.00000187 0.00000000  0.16D-02      0.09
   3    2    3    0     -77.73181415     -77.73181415   -0.00000000    0.00000217 0.00000000 0.00000000  0.13D-05      0.12

 ** WVFN ****  CONVERGENCE REACHED, FINAL GRADIENT:  0.13D-11



 Results for state 1.1
 =====================

 !MCSCF STATE  1.1 Energy             -78.044659113470
 Nuclear energy                        33.37636613
 Kinetic energy                        78.07504291
 One electron energy                 -170.21627821
 Two electron energy                   58.79525297
 Virial ratio                           1.99961084

 !MCSCF STATE  1.1 Dipole moment        0.00000000     0.00000000     0.02788821
 Dipole moment /Debye                   0.00000000     0.00000000     0.07088012

 Results for state 2.1
 =====================

 !MCSCF STATE  2.1 Energy             -77.668574854141
 Nuclear energy                        33.37636613
 Kinetic energy                        78.25544729
 One electron energy                 -169.64238413
 Two electron energy                   58.59744315
 Virial ratio                           1.99250055

 !MCSCF STATE  2.1 Dipole moment        0.00000000     0.00000000     0.05909042
 Dipole moment /Debye                   0.00000000     0.00000000     0.15018303

 Results for state 3.1
 =====================

 !MCSCF STATE  3.1 Energy             -77.482208471454
 Nuclear energy                        33.37636613
 Kinetic energy                        78.43561781
 One electron energy                 -169.06916063
 Two electron energy                   58.21058603
 Virial ratio                           1.98784469

 !MCSCF STATE  3.1 Dipole moment        0.00000000     0.00000000    -0.03293945
 Dipole moment /Debye                   0.00000000     0.00000000    -0.08371826

 State-averaged charge density matrix saved on record  2140.2 (density set 1)

 !MCSCF expec         <1.1|DMZ|1.1>     0.027888211398 au =     0.070880120326 Debye
 !MCSCF trans         <2.1|DMZ|1.1>     1.510408150118 au =     3.838823146177 Debye
 !MCSCF expec         <2.1|DMZ|2.1>     0.059090421852 au =     0.150183034370 Debye
 !MCSCF trans         <3.1|DMZ|1.1>    -0.009499144041 au =    -0.024142834511 Debye
 !MCSCF trans         <3.1|DMZ|2.1>     2.272604363737 au =     5.776005798786 Debye
 !MCSCF expec         <3.1|DMZ|3.1>    -0.032939454746 au =    -0.083718259393 Debye


 NATURAL ORBITALS (state averaged)
 =================================

  Orbital  Occupation    Energy     Coefficients
    1.1     2.00000   -11.24344     2 1s    0.98699
    2.1     2.00000   -11.23849     1 1s    0.98703
    3.1     2.00000    -1.04188     1 1s    0.30711     2 1s    0.31289
    4.1     2.00000    -0.79981     1 1s    0.29401     2 1s   -0.27872
    5.1     2.00000    -0.65234     1 2py   0.28764     2 2py   0.36252
    6.1     2.00000    -0.59667     1 2pz  -0.39946     2 2pz   0.41586
    7.1     2.00000    -0.50816     1 2py   0.34664     2 2py  -0.27201
    8.1     1.00000    -0.22560     1 2px   0.35598     1 2px   0.31822     2 2px   0.35995     2 2px   0.32030
    9.1     1.00000     0.03366     1 2px  -0.38079     1 2px  -0.68814     2 2px   0.37955     2 2px   0.68542
   10.1    -0.00000     0.26190     1 1s   -1.26674     1 2pz  -0.73072     2 1s   -1.68901     2 2pz   0.56018     3 1s    0.97220
                                    4 1s    0.97220     5 1s    1.08719     6 1s    1.08719
   11.1    -0.00000     0.28541     1 2py  -0.25714     1 2py  -0.70108     2 2py  -0.90834     3 1s    1.01631     4 1s   -1.01631
                                    5 1s    1.17662     6 1s   -1.17662
   12.1    -0.00000     0.30431     1 1s   -2.07884     1 2pz  -0.26937     2 1s    1.74775     3 1s    1.17539     4 1s    1.17539
                                    5 1s   -0.95497     6 1s   -0.95497
   13.1    -0.00000     0.38577     1 2py   1.78645     2 2py  -0.25311     2 2py  -1.91330     3 1s   -1.58134     4 1s    1.58134
                                    5 1s    1.64505     6 1s   -1.64505
   14.1    -0.00000     0.48485     1 1s   -2.86580     1 2pz   2.93625     2 1s    3.08459     2 2pz   2.89523     3 1s   -0.69872
                                    4 1s   -0.69872     5 1s    0.45855     6 1s    0.45855
   15.1    -0.00000     0.66131     1 1s   -0.30799     1 2pz   0.49623     1 2pz  -1.42547     2 1s   -0.52135     2 2pz  -0.60048
                                    2 2pz   0.61304
   16.1    -0.00000     0.75526     1 2py  -0.46621     1 2py   0.82541     2 2py  -0.34989     2 2py   0.72278     3 1s   -0.42495
                                    4 1s    0.42495     5 1s   -0.33547     6 1s    0.33547
   17.1    -0.00000     0.77092     1 2px  -0.73884     1 2px   0.62198     2 2px  -0.75537     2 2px   0.64656
   18.1    -0.00000     0.86446     1 1s   -0.86439     1 1s    0.95727     1 2pz   0.93432     2 1s   -0.89834     2 1s    2.05307
                                    3 1s   -0.36714     3 1s   -0.38351     4 1s   -0.36714     4 1s   -0.38351     5 1s   -0.42522
                                    6 1s   -0.42522
   19.1    -0.00000     0.87264     1 2px   0.81114     1 2px  -1.11074     2 2px  -0.79465     2 2px   1.09791
   20.1    -0.00000     0.93935     1 1s    0.79690     1 2pz  -0.64982     1 2pz   0.83675     2 1s   -0.43011     2 2pz  -0.56620
                                    2 2pz   0.45232     3 1s   -0.41757     4 1s   -0.41757     5 1s    0.34649     6 1s    0.34649
   21.1    -0.00000     1.09822     1 2py   0.78733     1 2py  -1.37968     2 2py   0.54799     2 2py  -0.77926     3 1s   -0.42079
                                    3 1s    1.23192     4 1s    0.42079     4 1s   -1.23192     5 1s   -0.34155     5 1s    0.88814
                                    6 1s    0.34155     6 1s   -0.88814
   22.1    -0.00000     1.14588     1 2py  -0.77195     1 2py   2.59351     2 2py   1.04994     2 2py  -3.23441     3 1s   -1.29737
                                    4 1s    1.29737     5 1s    1.70733     6 1s   -1.70733
   23.1    -0.00000     1.19114     1 1s   -0.57928     1 1s    1.47803     1 2pz  -0.63030     2 1s   -0.99924     2 1s    1.13856
                                    2 2pz   0.68055     2 2pz  -1.34046     5 1s    0.63156     5 1s   -1.26418     6 1s    0.63156
                                    6 1s   -1.26418
   24.1    -0.00000     1.23562     1 1s   -1.14949     1 1s    1.87054     1 2pz  -0.72487     1 2pz   1.11473     2 1s    0.30984
                                    2 2pz   0.41307     3 1s    0.65028     3 1s   -1.29500     4 1s    0.65028     4 1s   -1.29500
   25.1    -0.00000     1.31877     1 1s    1.47197     1 1s   -5.19846     1 2pz  -0.27633     1 2pz   1.83668     2 1s   -1.69927
                                    2 1s    5.47314     2 2pz   1.91008     3 1s    0.26156     4 1s    0.26156     5 1s   -0.41898
                                    6 1s   -0.41898
   26.1    -0.00000     1.46543     1 2py  -2.31762     2 2py   2.70410     3 1s    0.64004     3 1s    0.58198     4 1s   -0.64004
                                    4 1s   -0.58198     5 1s   -0.75080     5 1s   -0.73534     6 1s    0.75080     6 1s    0.73534
   27.1    -0.00000     1.71328     1 3d1+  0.62167     2 3d1+ -0.61587
   28.1    -0.00000     1.80791     1 3d2-  0.66551     2 3d2-  0.69662
   29.1    -0.00000     2.10513     1 3d2-  0.75042     2 3d2- -0.72164
   30.1    -0.00000     2.19380     1 1s   -0.37231     1 2pz  -0.46515     1 3d2+  0.76777     2 1s   -0.85982     2 3d2+  0.65555
                                    3 1s    0.40344     4 1s    0.40344     5 1s    0.35341     6 1s    0.35341
   31.1    -0.00000     2.30060     1 2py  -0.28846     1 3d1- -0.63112     2 2py  -0.25904     2 2py  -0.53919     2 3d1-  0.73771
                                    3 1s    0.45440     4 1s   -0.45440     5 1s    0.58007     6 1s   -0.58007
   32.1    -0.00000     2.38225     1 1s   -0.43501     1 2pz   0.27425     1 2pz  -0.56029     1 3d0   0.69278     1 3d2+  0.28671
                                    2 1s   -0.56306     2 1s    0.28436     2 2pz  -0.30731     2 2pz   0.35083     2 3d0   0.66281
   33.1    -0.00000     2.61803     1 1s   -0.36946     1 1s    1.40881     1 2pz  -0.33751     1 3d2+ -0.68431     2 1s   -1.31388
                                    2 2pz  -0.27277     2 3d2+  0.87821     3 1s   -0.37013     4 1s   -0.37013     5 1s    0.52272
                                    6 1s    0.52272
   34.1    -0.00000     2.68535     1 2px  -0.26539     1 3d1+  0.90113     2 2px   0.26518     2 3d1+  0.90504
   35.1    -0.00000     3.03630     1 2py   0.43028     1 3d1-  1.02982     2 2py  -0.52820     2 3d1-  0.90369     3 1s   -0.52239
                                    4 1s    0.52239     5 1s    0.40318     6 1s   -0.40318
   36.1    -0.00000     3.04656     1 1s   -0.33013     1 1s   -2.00430     1 2pz   0.78186     1 2pz   1.19699     1 3d0  -1.10608
                                    2 1s    0.29051     2 1s    2.07655     2 2pz   0.79343     2 2pz   1.17852     2 3d0   1.12284


 Natural orbital dump (state averaged) at molpro section  2140.2    (Orbital set 2)



 **********************************************************************************************************************************
 DATASETS  * FILE   NREC   LENGTH (MB)   RECORD NAMES
              1      20       31.36       500      610      700      900      950      970     1000      129      960     1100   
                                          VAR    BASINP    GEOM    SYMINP    ZMAT    AOBASIS   BASIS     P2S    ABASIS      S 
                                         1400     1410     1200     1210     1080     1600     1650     1300     1700     1380   
                                           T        V       H0       H01     AOSYM     SMH    MOLCAS    ERIS     OPER     JKOP   

              2       5        5.42       700     1000      520     2100     2140   
                                         GEOM     BASIS   MCVARS     RHF     MCSCF   

 PROGRAMS   *        TOTAL     MULTI    HF-SCF       INT
 CPU TIMES  *         0.61      0.16      0.10      0.26
 REAL TIME  *         0.87 SEC
 DISK USED  *        38.55 MB
 **********************************************************************************************************************************
 Molecular orbitals read from record     2140.2  Type=MCSCF/NATURAL (state averaged)
 Occupation numbers read from record     2140.2  Type=MCSCF/NATURAL (state averaged)
 Orbital energies read from record       2140.2  Type=MCSCF/NATURAL (state averaged)
 Redundancy group numbers read from rec  2140.2  Type=MCSCF/NATURAL (state averaged)

 MULTI/6-31G* energy=    -77.482208471454

           MULTI          HF-SCF
    -77.48220847    -78.02700324
 **********************************************************************************************************************************
 Molpro calculation terminated
