
 Primary working directories    : /scratch.local/johan406.molpro_temp/molpro.LXFznVQN9B
 Secondary working directories  : /scratch.local/johan406.molpro_temp/molpro.LXFznVQN9B
 Wavefunction directory         : /home/goodpast/johan406/wfu/
 Main file repository           : /scratch.local/johan406.molpro_temp/molpro.LXFznVQN9B/

 id        : roweumn

 Nodes     nprocs
 cn0117       1

 Using customized tuning parameters: mindgm=1; mindgv=20; mindgc=4; mindgr=1; noblas=0; minvec=7
 default implementation of scratch files=df  


 Variables initialized (934), CPU time= 0.00 sec
                                                                                 !leave this line blank
 
 gprint, orbitals=30
 memory, 125., m
 symmetry, nosym
 nelect=16
 basis=6-31g*
 
 geometry={
 C -0.0 0.0 0.6568
 C 0.0 0.0 -0.6815
 H 0.0 0.8656 1.3069
 H 0.0 -0.8656 1.3069
 H 0.0 0.9642 -1.1626
 H -0.0 -0.9642 -1.1626
 }
 
 hf
 {multi,
 closed 7
 occ 9
 wf,spin=0;STATE,3
 }
 
 Commands  initialized (763), CPU time= 0.01 sec, 617 directives.
 Default parameters read. Elapsed time= 0.08 sec

 Checking input...
 Passed
1


                                         ***  PROGRAM SYSTEM MOLPRO  ***
                                       Copyright, TTI GmbH Stuttgart, 2015
                                    Version 2019.2 linked Oct 25 2019 22:50:27


 **********************************************************************************************************************************
 LABEL *                                                                                 
  64 bit serial version                                                                  DATE: 26-Jan-23          TIME: 20:25:23  
 **********************************************************************************************************************************

 SHA1:             8dbd9ae1082e4ce945b0f27595c9eb2d4aa09004
 **********************************************************************************************************************************


 Variable memory set to  125000000 words,  buffer space 

 SETTING NELECT         =        16.00000000                                  
 SETTING BASIS          =    6-31G*
 ZSYMEL=NOSYM


Geometry recognized as XYZ



 Recomputing integrals since basis changed


 Using spherical harmonics

 Library entry C      S 6-31G                selected for orbital group  1
 Library entry C      P 6-31G                selected for orbital group  1
 Library entry C      D 6-31G*               selected for orbital group  1
 Library entry H      S 6-31G                selected for orbital group  2


 PROGRAM * SEWARD (Integral evaluation for generally contracted gaussian basis sets)     Author: Roland Lindh, 1990

 Geometry written to block  1 of record 700


 Point group  C1  



 ATOMIC COORDINATES

 NR  ATOM    CHARGE       X              Y              Z

   1  C       6.00    0.000000000    0.000000000    1.241172119
   2  C       6.00    0.000000000    0.000000000   -1.287848354
   3  H       1.00    0.000000000    1.635746933    2.469683072
   4  H       1.00    0.000000000   -1.635746933    2.469683072
   5  H       1.00    0.000000000    1.822073929   -2.196995592
   6  H       1.00    0.000000000   -1.822073929   -2.196995592

 Bond lengths in Bohr (Angstrom)

 1-2  2.529020473  1-3  2.045704571  1-4  2.045704571  2-5  2.036296173  2-6  2.036296173
     ( 1.338300000)     ( 1.082540239)     ( 1.082540239)     ( 1.077561530)     ( 1.077561530)

 Bond angles

  1-2-5  116.51749296   1-2-6  116.51749296   2-1-3  126.90800520   2-1-4  126.90800520

  3-1-4  106.18398959   5-2-6  126.96501409

 NUCLEAR CHARGE:                   16
 NUMBER OF PRIMITIVE AOS:          72
 NUMBER OF SYMMETRY AOS:           70
 NUMBER OF CONTRACTIONS:           36   (   36A   )
 NUMBER OF CORE ORBITALS:           2   (    2A   )
 NUMBER OF VALENCE ORBITALS:       12   (   12A   )


 NUCLEAR REPULSION ENERGY   33.35851177

 EXTRA SYMMETRY OF AOS IN SYMMETRY 1:   1 1 1 2 1 1 2 1 1 1   3 2 1 1 1 1 1 2 1 1   2 1 1 1 3 2 1 1 1 1   1 1 1 1 1 1

 Eigenvalues of metric

         1 0.825E-02 0.175E-01 0.349E-01 0.495E-01 0.712E-01 0.192E+00 0.214E+00 0.227E+00


 Contracted 2-electron integrals neglected if value below      1.0D-11
 AO integral compression algorithm  1   Integral accuracy      1.0D-11

     0.786 MB (compressed) written to integral file ( 37.9%)


 NUMBER OF SORTED TWO-ELECTRON INTEGRALS:     222111.     BUFFER LENGTH:  32768
 NUMBER OF SEGMENTS:   1  SEGMENT LENGTH:     222111      RECORD LENGTH: 524288

 Memory used in sort:       0.78 MW

 SORT1 READ      284735. AND WROTE       98531. INTEGRALS IN      1 RECORDS. CPU TIME:     0.00 SEC, REAL TIME:     0.01 SEC
 SORT2 READ       98531. AND WROTE      222111. INTEGRALS IN      3 RECORDS. CPU TIME:     0.02 SEC, REAL TIME:     0.02 SEC

 FILE SIZES:   FILE 1:    30.9 MBYTE,  FILE 4:     4.2 MBYTE,   TOTAL:     35.1 MBYTE

 OPERATOR DM      FOR CENTER  0  COORDINATES:    0.000000    0.000000    0.000000


 **********************************************************************************************************************************
 DATASETS  * FILE   NREC   LENGTH (MB)   RECORD NAMES
              1      19       30.63       500      610      700      900      950      970     1000      129      960     1100   
                                          VAR    BASINP    GEOM    SYMINP    ZMAT    AOBASIS   BASIS     P2S    ABASIS      S 
                                         1400     1410     1200     1210     1080     1600     1650     1300     1700   
                                           T        V       H0       H01     AOSYM     SMH    MOLCAS    ERIS     OPER   

 PROGRAMS   *        TOTAL       INT
 CPU TIMES  *         0.36      0.26
 REAL TIME  *         0.57 SEC
 DISK USED  *        35.45 MB
 **********************************************************************************************************************************


 PROGRAM * RHF-SCF (CLOSED SHELL)       Authors: W. Meyer, H.-J. Werner


 NUMBER OF ELECTRONS:       8+    8-    SPACE SYMMETRY=1    SPIN SYMMETRY: Singlet 
 CONVERGENCE THRESHOLDS:    1.00E-05 (Density)    1.00E-07 (Energy)
 MAX. NUMBER OF ITERATIONS:       60
 INTERPOLATION TYPE:            DIIS
 INTERPOLATION STEPS:              2 (START)      1 (STEP)
 LEVEL SHIFTS:                  0.00 (CLOSED)  0.00 (OPEN) 



 Orbital guess generated from atomic densities. Full valence occupancy:    8

 Molecular orbital dump at record        2100.2

 Initial occupancy:   8

 ITERATION    DDIFF          GRAD             ENERGY        2-EL.EN.            DIPOLE MOMENTS         DIIS   ORB.
    1      0.000D+00      0.000D+00       -78.00048690    118.632229   -0.00000    0.00000    0.06288    0    start
    2      0.000D+00      0.858D-02       -78.02241114    116.788564   -0.00000    0.00000    0.02625    1    diag
    3      0.823D-02      0.293D-02       -78.02456499    117.422971   -0.00000    0.00000    0.02814    2    diag
    4      0.267D-02      0.718D-03       -78.02478084    117.323853    0.00000    0.00000    0.02777    3    diag
    5      0.109D-02      0.793D-04       -78.02478343    117.326463   -0.00000    0.00000    0.02627    4    diag
    6      0.154D-03      0.215D-04       -78.02478360    117.326443   -0.00000    0.00000    0.02754    5    diag
    7      0.276D-04      0.885D-05       -78.02478362    117.326263   -0.00000    0.00000    0.02747    6    diag
    8      0.847D-05      0.232D-05       -78.02478363    117.326281   -0.00000    0.00000    0.02752    0    orth

 Final occupancy:   8

 !RHF STATE  1.1 Energy               -78.024783626593
 Nuclear energy                        33.35851177
 One-electron energy                 -170.04643572
 Two-electron energy                   58.66314032
 Virial quotient                       -1.00034925
 !RHF STATE  1.1 Dipole moment         -0.00000000     0.00000000     0.02752484
 Dipole moment /Debye                  -0.00000000     0.00000000     0.06995658

 ELECTRON ORBITALS
 =================

  Orbital  Occupation    Energy     Coefficients
    1.1     2.00000   -11.22682     1 1s    0.36434     2 1s    0.92692
    2.1     2.00000   -11.22448     1 1s    0.92710     2 1s   -0.36482
    3.1     2.00000    -1.02719     1 1s    0.30040     2 1s    0.30345
    4.1     2.00000    -0.79215     1 1s    0.24768
    5.1     2.00000    -0.63956     1 2py   0.27477     2 2py   0.36217
    6.1     2.00000    -0.58066     1 2pz  -0.39359     2 2pz   0.41653
    7.1     2.00000    -0.49957     1 2py   0.34491     2 2py  -0.25844
    8.1     2.00000    -0.36966     1 2px   0.37110     1 2px   0.30628     2 2px   0.37569     2 2px   0.30934
    9.1     0.00000     0.17847     1 2px  -0.34324     1 2px  -0.73517     2 2px   0.34132     2 2px   0.73212
   10.1     0.00000     0.26365     1 1s   -1.26988     1 2pz  -0.74324     2 1s   -1.68525     2 2pz   0.53368     3 1s    0.98113
                                    4 1s    0.98113     5 1s    1.07184     6 1s    1.07184
   11.1     0.00000     0.29345     1 2py  -0.26168     1 2py  -0.69498     2 2py  -0.93801     3 1s    1.01149     4 1s   -1.01149
                                    5 1s    1.20057     6 1s   -1.20057
   12.1     0.00000     0.30596     1 1s   -2.03151     1 2pz  -0.31701     2 1s    1.69828     3 1s    1.18002     4 1s    1.18002
                                    5 1s   -0.95803     6 1s   -0.95803
   13.1     0.00000     0.38935     1 2py  -1.77137     2 2py   1.93972     3 1s    1.56986     4 1s   -1.56986     5 1s   -1.65613
                                    6 1s    1.65613
   14.1     0.00000     0.48593     1 1s   -2.86743     1 2pz   2.94563     2 1s    3.13888     2 2pz   2.89484     3 1s   -0.70558
                                    4 1s   -0.70558     5 1s    0.40569     6 1s    0.40569
   15.1     0.00000     0.67546     1 1s   -0.28776     1 1s    0.27293     1 2pz   0.49667     1 2pz  -1.58152     2 1s   -0.72656
                                    2 2pz  -0.61922     2 2pz   0.50987     3 1s    0.30602     4 1s    0.30602
   16.1     0.00000     0.76708     1 2py  -0.46654     1 2py   0.83849     2 2py  -0.32388     2 2py   0.68511     3 1s   -0.44216
                                    4 1s    0.44216     5 1s   -0.32574     6 1s    0.32574
   17.1     0.00000     0.77677     1 2px  -0.73721     1 2px   0.63431     2 2px  -0.74379     2 2px   0.64487
   18.1     0.00000     0.86982     1 1s   -0.87459     1 1s    0.85405     1 2pz   1.05852     2 1s   -0.90249     2 1s    2.14714
                                    2 2pz   0.26256     3 1s   -0.37463     3 1s   -0.41477     4 1s   -0.37463     4 1s   -0.41477
                                    5 1s   -0.41739     6 1s   -0.41739
   19.1     0.00000     0.89006     1 2px   0.82212     1 2px  -1.07634     2 2px  -0.81484     2 2px   1.07151
   20.1     0.00000     0.95993     1 1s    0.91194     1 2pz  -0.65469     1 2pz   0.81442     2 1s   -0.56758     2 2pz  -0.55478
                                    2 2pz   0.36650     3 1s   -0.41395     4 1s   -0.41395     5 1s    0.34962     6 1s    0.34962
   21.1     0.00000     1.11132     1 2py   0.85053     1 2py  -1.52578     2 2py   0.48242     2 2py  -0.57365     3 1s   -0.43319
                                    3 1s    1.30013     4 1s    0.43319     4 1s   -1.30013     5 1s   -0.32280     5 1s    0.76814
                                    6 1s    0.32280     6 1s   -0.76814
   22.1     0.00000     1.15760     1 2py  -0.70127     1 2py   2.43433     2 2py   1.10072     2 2py  -3.31106     3 1s   -1.18402
                                    4 1s    1.18402     5 1s    1.76810     6 1s   -1.76810
   23.1     0.00000     1.18828     1 1s   -0.53636     1 1s    1.37645     1 2pz  -0.64540     2 1s   -1.02296     2 1s    1.19078
                                    2 2pz   0.66686     2 2pz  -1.31043     5 1s    0.62977     5 1s   -1.27246     6 1s    0.62977
                                    6 1s   -1.27246
   24.1     0.00000     1.23969     1 1s   -1.23430     1 1s    2.17762     1 2pz  -0.70661     1 2pz   0.98101     2 2pz   0.25716
                                    3 1s    0.64519     3 1s   -1.29527     4 1s    0.64519     4 1s   -1.29527
   25.1     0.00000     1.33874     1 1s    1.41051     1 1s   -5.08874     1 2pz  -0.31262     1 2pz   1.87125     2 1s   -1.69184
                                    2 1s    5.42967     2 2pz  -0.27081     2 2pz   1.95791     5 1s   -0.38970     6 1s   -0.38970
   26.1     0.00000     1.47405     1 2py  -2.24580     2 2py   2.72940     3 1s    0.62327     3 1s    0.55590     4 1s   -0.62327
                                    4 1s   -0.55590     5 1s   -0.76865     5 1s   -0.74409     6 1s    0.76865     6 1s    0.74409
   27.1     0.00000     1.73880     1 3d1+  0.62355     2 3d1+ -0.61453
   28.1     0.00000     1.82182     1 3d2-  0.66502     2 3d2-  0.69710
   29.1     0.00000     2.12834     1 3d2-  0.75085     2 3d2- -0.72116
   30.1     0.00000     2.20944     1 1s   -0.32042     1 2pz  -0.53649     1 3d2+  0.78422     2 1s   -0.93224     2 3d2+  0.63784
                                    3 1s    0.40892     4 1s    0.40892     5 1s    0.34559     6 1s    0.34559
   31.1     0.00000     2.30677     1 2py  -0.27845     1 3d1- -0.61453     2 2py  -0.62040     2 3d1-  0.75102     3 1s    0.43422
                                    4 1s   -0.43422     5 1s    0.58634     6 1s   -0.58634
   32.1     0.00000     2.39944     1 1s   -0.42024     1 2pz   0.26615     1 2pz  -0.58262     1 3d0   0.69141     1 3d2+  0.30369
                                    2 1s   -0.57610     2 1s    0.31080     2 2pz  -0.30748     2 2pz   0.32796     2 3d0   0.65390
   33.1     0.00000     2.64350     1 1s   -0.38115     1 1s    1.41619     1 2pz  -0.36404     1 3d2+ -0.65305     2 1s   -1.30661
                                    2 2pz  -0.28560     2 3d2+  0.89356     3 1s   -0.34879     4 1s   -0.34879     5 1s    0.53636
                                    6 1s    0.53636
   34.1     0.00000     2.70759     1 2px  -0.26461     1 3d1+  0.89955     2 2px   0.26443     2 3d1+  0.90571
   35.1     0.00000     3.04072     1 2py   0.37370     1 3d1-  1.04408     2 2py  -0.48539     2 3d1-  0.88533     3 1s   -0.52529
                                    4 1s    0.52529     5 1s    0.37450     6 1s   -0.37450
   36.1     0.00000     3.06580     1 1s   -0.34277     1 1s   -1.96452     1 2pz   0.78711     1 2pz   1.18292     1 3d0  -1.10174
                                    2 1s    0.29298     2 1s    2.05393     2 2pz   0.80105     2 2pz   1.16042     2 3d0   1.12467


 HOMO      8.1    -0.369655 =     -10.0588eV
 LUMO      9.1     0.178469 =       4.8564eV
 LUMO-HOMO         0.548125 =      14.9152eV


 **********************************************************************************************************************************
 DATASETS  * FILE   NREC   LENGTH (MB)   RECORD NAMES
              1      19       30.63       500      610      700      900      950      970     1000      129      960     1100   
                                          VAR    BASINP    GEOM    SYMINP    ZMAT    AOBASIS   BASIS     P2S    ABASIS      S 
                                         1400     1410     1200     1210     1080     1600     1650     1300     1700   
                                           T        V       H0       H01     AOSYM     SMH    MOLCAS    ERIS     OPER   

              2       4        2.86       700     1000      520     2100   
                                         GEOM     BASIS   MCVARS     RHF  

 PROGRAMS   *        TOTAL    HF-SCF       INT
 CPU TIMES  *         0.45      0.09      0.26
 REAL TIME  *         0.69 SEC
 DISK USED  *        35.45 MB
 **********************************************************************************************************************************


 PROGRAM * MULTI (Direct Multiconfiguration SCF)       Authors: P.J. Knowles, H.-J. Werner (1984)


 Number of closed-shell orbitals:   7 (   7 )
 Number of active  orbitals:        2 (   2 )
 Number of external orbitals:      27 (  27 )

 State symmetry 1

 Number of electrons:     2    Spin symmetry=Singlet   Space symmetry=1
 Number of states:        3
 Number of CSFs:          3   (4 determinants, 4 intermediate states)

 Molecular orbitals read from record     2100.2  Type=RHF/CANONICAL (state 1.1)

 EXTRA SYMMETRY OF MOS IN SYMMETRY 1:   1 1 1 1 1 1 1 2 2 1   1 1 1 1 1 1 2 1 2 1   1 1 1 1 1 1 2 3 3 1   1 1 1 2 1 1

 Wavefunction dump at record             2140.2

 Convergence thresholds  0.10E-01 (gradient)  0.10E-05 (energy)  0.10E-02 (step length)

 Weight factors for state symmetry  1:    0.33333   0.33333   0.33333

 Number of orbital rotations:      257   (    14 Core/Active    189 Core/Virtual   0 Active/Active     54 Active/Virtual)
 Total number of variables:        269

 Micro-Iterations solved by the two-step solver

 ITER. MIC  NCI  NEG     ENERGY(VAR)     ENERGY(PROJ)   ENERGY CHANGE     GRAD(0)  GRAD(ORB)   GRAD(CI)     STEP       TIME

   1    3    3    0     -77.72337405     -77.72963344   -0.00625940    0.13269674 0.00000155 0.00000000  0.63D-01      0.06
   2    2    3    0     -77.72953451     -77.72953830   -0.00000380    0.00305418 0.00000187 0.00000000  0.16D-02      0.09
   3    2    3    0     -77.72953831     -77.72953831   -0.00000000    0.00000218 0.00000000 0.00000000  0.13D-05      0.12

 ** WVFN ****  CONVERGENCE REACHED, FINAL GRADIENT:  0.13D-11



 Results for state 1.1
 =====================

 !MCSCF STATE  1.1 Energy             -78.042437210801
 Nuclear energy                        33.35851177
 Kinetic energy                        78.06582579
 One electron energy                 -170.17924432
 Two electron energy                   58.77829533
 Virial ratio                           1.99970040

 !MCSCF STATE  1.1 Dipole moment        0.00000000     0.00000000     0.03525971
 Dipole moment /Debye                   0.00000000     0.00000000     0.08961536

 Results for state 2.1
 =====================

 !MCSCF STATE  2.1 Energy             -77.666299742448
 Nuclear energy                        33.35851177
 Kinetic energy                        78.24640498
 One electron energy                 -169.60538362
 Two electron energy                   58.58057210
 Virial ratio                           1.99258617

 !MCSCF STATE  2.1 Dipole moment        0.00000000     0.00000000     0.07412801
 Dipole moment /Debye                   0.00000000     0.00000000     0.18840227

 Results for state 3.1
 =====================

 !MCSCF STATE  3.1 Energy             -77.479877961883
 Nuclear energy                        33.35851177
 Kinetic energy                        78.42662014
 One electron energy                 -169.03257167
 Two electron energy                   58.19418193
 Virial ratio                           1.98792831

 !MCSCF STATE  3.1 Dipole moment        0.00000000     0.00000000    -0.04048037
 Dipole moment /Debye                   0.00000000     0.00000000    -0.10288409

 State-averaged charge density matrix saved on record  2140.2 (density set 1)

 !MCSCF expec         <1.1|DMZ|1.1>     0.035259705968 au =     0.089615363495 Debye
 !MCSCF trans         <2.1|DMZ|1.1>     1.510398473830 au =     3.838798553118 Debye
 !MCSCF expec         <2.1|DMZ|2.1>     0.074128011903 au =     0.188402272491 Debye
 !MCSCF trans         <3.1|DMZ|1.1>    -0.011835634154 au =    -0.030081211052 Debye
 !MCSCF trans         <3.1|DMZ|2.1>     2.272280806130 au =     5.775183451245 Debye
 !MCSCF expec         <3.1|DMZ|3.1>    -0.040480367880 au =    -0.102884093397 Debye


 NATURAL ORBITALS (state averaged)
 =================================

  Orbital  Occupation    Energy     Coefficients
    1.1     2.00000   -11.24449     2 1s    0.99018
    2.1     2.00000   -11.23837     1 1s    0.99021
    3.1     2.00000    -1.04199     1 1s    0.30630     2 1s    0.31349
    4.1     2.00000    -0.79969     1 1s    0.29546     2 1s   -0.27622
    5.1     2.00000    -0.65279     1 2py   0.27768     2 2py   0.36997
    6.1     2.00000    -0.59588     1 2pz  -0.39664     2 2pz   0.41719
    7.1     2.00000    -0.50580     1 2py   0.35397     2 2py  -0.26194
    8.1     1.00000     0.03360     1 2px  -0.38103     1 2px  -0.68832     2 2px   0.37949     2 2px   0.68493
    9.1     1.00000    -0.22571     1 2px   0.35551     1 2px   0.31796     2 2px   0.36047     2 2px   0.32053
   10.1    -0.00000     0.26079     1 1s   -1.20343     1 2pz  -0.74522     2 1s   -1.73349     2 2pz   0.53579     3 1s    0.94898
                                    4 1s    0.94898     5 1s    1.09641     6 1s    1.09641
   11.1    -0.00000     0.28499     1 2py  -0.25889     1 2py  -0.67934     2 2py  -0.93477     3 1s    0.99888     4 1s   -0.99888
                                    5 1s    1.19666     6 1s   -1.19666
   12.1    -0.00000     0.30303     1 1s   -2.09457     1 2pz  -0.31434     2 1s    1.67532     3 1s    1.20091     4 1s    1.20091
                                    5 1s   -0.92181     6 1s   -0.92181
   13.1    -0.00000     0.38496     1 2py  -1.76076     2 2py   0.25365     2 2py   1.92014     3 1s    1.56555     4 1s   -1.56555
                                    5 1s   -1.64558     6 1s    1.64558
   14.1    -0.00000     0.48311     1 1s   -2.84177     1 2pz   2.93158     2 1s    3.11711     2 2pz   2.87652     3 1s   -0.71636
                                    4 1s   -0.71636     5 1s    0.41647     6 1s    0.41647
   15.1    -0.00000     0.66314     1 1s   -0.32498     1 1s    0.31168     1 2pz   0.48330     1 2pz  -1.51357     2 1s   -0.59613
                                    2 2pz  -0.61361     2 2pz   0.52772     3 1s    0.27602     4 1s    0.27602
   16.1    -0.00000     0.75717     1 2py  -0.48008     1 2py   0.83742     2 2py  -0.33370     2 2py   0.70413     3 1s   -0.43534
                                    4 1s    0.43534     5 1s   -0.32319     6 1s    0.32319
   17.1    -0.00000     0.77078     1 2px  -0.73679     1 2px   0.61898     2 2px  -0.75735     2 2px   0.64956
   18.1    -0.00000     0.86719     1 1s   -0.85947     1 1s    0.82003     1 2pz   1.07850     2 1s   -0.90339     2 1s    2.20440
                                    3 1s   -0.35599     3 1s   -0.42208     4 1s   -0.35599     4 1s   -0.42208     5 1s   -0.43442
                                    6 1s   -0.43442
   19.1    -0.00000     0.87249     1 2px   0.81308     1 2px  -1.11229     2 2px  -0.79258     2 2px   1.09632
   20.1    -0.00000     0.94169     1 1s    0.79451     1 2pz  -0.66227     1 2pz   0.94822     2 1s   -0.31262     2 2pz  -0.55474
                                    2 2pz   0.45463     3 1s   -0.42699     4 1s   -0.42699     5 1s    0.33355     6 1s    0.33355
   21.1    -0.00000     1.09656     1 2py   0.81064     1 2py  -1.44002     2 2py   0.51278     2 2py  -0.69167     3 1s   -0.42958
                                    3 1s    1.26690     4 1s    0.42958     4 1s   -1.26690     5 1s   -0.33141     5 1s    0.83870
                                    6 1s    0.33141     6 1s   -0.83870
   22.1    -0.00000     1.14445     1 2py  -0.73088     1 2py   2.49287     2 2py   1.07783     2 2py  -3.29253     3 1s   -1.23724
                                    4 1s    1.23724     5 1s    1.74778     6 1s   -1.74778
   23.1    -0.00000     1.18385     1 1s   -0.57513     1 1s    1.50235     1 2pz  -0.67447     2 1s   -0.98331     2 1s    1.07349
                                    2 2pz   0.67786     2 2pz  -1.35832     5 1s    0.62895     5 1s   -1.26195     6 1s    0.62895
                                    6 1s   -1.26195
   24.1    -0.00000     1.23874     1 1s   -1.20305     1 1s    2.08159     1 2pz  -0.71646     1 2pz   1.02087     2 2pz   0.29838
                                    3 1s    0.64817     3 1s   -1.29186     4 1s    0.64817     4 1s   -1.29186
   25.1    -0.00000     1.31878     1 1s    1.42267     1 1s   -5.10797     1 2pz  -0.29538     1 2pz   1.83313     2 1s   -1.71237
                                    2 1s    5.45923     2 2pz  -0.25017     2 2pz   1.92206     5 1s   -0.42174     6 1s   -0.42174
   26.1    -0.00000     1.46521     1 2py  -2.24922     2 2py   2.73289     3 1s    0.62524     3 1s    0.55517     4 1s   -0.62524
                                    4 1s   -0.55517     5 1s   -0.76472     5 1s   -0.74664     6 1s    0.76472     6 1s    0.74664
   27.1    -0.00000     1.71315     1 3d1+  0.62240     2 3d1+ -0.61515
   28.1    -0.00000     1.80797     1 3d2-  0.66159     2 3d2-  0.70039
   29.1    -0.00000     2.10535     1 3d2-  0.75388     2 3d2- -0.71798
   30.1    -0.00000     2.19432     1 1s   -0.31399     1 2pz  -0.54197     1 3d2+  0.78206     2 1s   -0.93144     2 3d2+  0.63934
                                    3 1s    0.41081     4 1s    0.41081     5 1s    0.34769     6 1s    0.34769
   31.1    -0.00000     2.29072     1 2py  -0.28520     1 3d1- -0.61336     2 2py  -0.62068     2 3d1-  0.74860     3 1s    0.43686
                                    4 1s   -0.43686     5 1s    0.59076     6 1s   -0.59076
   32.1    -0.00000     2.37944     1 1s   -0.41852     1 2pz   0.27396     1 2pz  -0.58596     1 3d0   0.69019     1 3d2+  0.30439
                                    2 1s   -0.57323     2 1s    0.31096     2 2pz  -0.31120     2 2pz   0.33063     2 3d0   0.65462
   33.1    -0.00000     2.62362     1 1s   -0.38279     1 1s    1.42287     1 2pz  -0.36181     1 3d2+ -0.65383     2 1s   -1.30937
                                    2 2pz  -0.28418     2 3d2+  0.89162     3 1s   -0.35237     4 1s   -0.35237     5 1s    0.53887
                                    6 1s    0.53887
   34.1    -0.00000     2.68508     1 2px  -0.26542     1 3d1+  0.90057     2 2px   0.26515     2 3d1+  0.90547
   35.1    -0.00000     3.02781     1 2py   0.37328     1 3d1-  1.04343     2 2py  -0.48599     2 3d1-  0.88531     3 1s   -0.52759
                                    4 1s    0.52759     5 1s    0.37680     6 1s   -0.37680
   36.1    -0.00000     3.04781     1 1s   -0.33526     1 1s   -1.99009     1 2pz   0.77933     1 2pz   1.19660     1 3d0  -1.10451
                                    2 1s    0.28640     2 1s    2.07946     2 2pz   0.79380     2 2pz   1.17357     2 3d0   1.12521


 Natural orbital dump (state averaged) at molpro section  2140.2    (Orbital set 2)



 **********************************************************************************************************************************
 DATASETS  * FILE   NREC   LENGTH (MB)   RECORD NAMES
              1      20       31.36       500      610      700      900      950      970     1000      129      960     1100   
                                          VAR    BASINP    GEOM    SYMINP    ZMAT    AOBASIS   BASIS     P2S    ABASIS      S 
                                         1400     1410     1200     1210     1080     1600     1650     1300     1700     1380   
                                           T        V       H0       H01     AOSYM     SMH    MOLCAS    ERIS     OPER     JKOP   

              2       5        5.42       700     1000      520     2100     2140   
                                         GEOM     BASIS   MCVARS     RHF     MCSCF   

 PROGRAMS   *        TOTAL     MULTI    HF-SCF       INT
 CPU TIMES  *         0.62      0.16      0.09      0.26
 REAL TIME  *         0.89 SEC
 DISK USED  *        38.55 MB
 **********************************************************************************************************************************
 Molecular orbitals read from record     2140.2  Type=MCSCF/NATURAL (state averaged)
 Occupation numbers read from record     2140.2  Type=MCSCF/NATURAL (state averaged)
 Orbital energies read from record       2140.2  Type=MCSCF/NATURAL (state averaged)
 Redundancy group numbers read from rec  2140.2  Type=MCSCF/NATURAL (state averaged)

 MULTI/6-31G* energy=    -77.479877961883

           MULTI          HF-SCF
    -77.47987796    -78.02478363
 **********************************************************************************************************************************
 Molpro calculation terminated
