
 Primary working directories    : /scratch.local/johan406.molpro_temp/molpro.TCkJNJFo3l
 Secondary working directories  : /scratch.local/johan406.molpro_temp/molpro.TCkJNJFo3l
 Wavefunction directory         : /home/goodpast/johan406/wfu/
 Main file repository           : /scratch.local/johan406.molpro_temp/molpro.TCkJNJFo3l/

 id        : roweumn

 Nodes     nprocs
 cn0117       1

 Using customized tuning parameters: mindgm=1; mindgv=20; mindgc=4; mindgr=1; noblas=0; minvec=7
 default implementation of scratch files=df  


 Variables initialized (934), CPU time= 0.00 sec
                                                                                 !leave this line blank
 
 gprint, orbitals=30
 memory, 125., m
 symmetry, nosym
 nelect=16
 basis=6-31g*
 
 geometry={
 C 0.0438 0.0 0.6691
 C -0.0438 0.0 -0.6691
 H -0.1431 0.9149 1.2348
 H -0.1431 -0.9149 1.2348
 H 0.1431 0.9149 -1.2348
 H 0.1431 -0.9149 -1.2348
 }
 
 hf
 {multi,
 closed 7
 occ 9
 wf,spin=0;STATE,3
 }
 
 Commands  initialized (763), CPU time= 0.01 sec, 617 directives.
 Default parameters read. Elapsed time= 0.08 sec

 Checking input...
 Passed
1


                                         ***  PROGRAM SYSTEM MOLPRO  ***
                                       Copyright, TTI GmbH Stuttgart, 2015
                                    Version 2019.2 linked Oct 25 2019 22:50:27


 **********************************************************************************************************************************
 LABEL *                                                                                 
  64 bit serial version                                                                  DATE: 26-Jan-23          TIME: 19:29:18  
 **********************************************************************************************************************************

 SHA1:             8dbd9ae1082e4ce945b0f27595c9eb2d4aa09004
 **********************************************************************************************************************************


 Variable memory set to  125000000 words,  buffer space 

 SETTING NELECT         =        16.00000000                                  
 SETTING BASIS          =    6-31G*
 ZSYMEL=NOSYM


Geometry recognized as XYZ



 Recomputing integrals since basis changed


 Using spherical harmonics

 Library entry C      S 6-31G                selected for orbital group  1
 Library entry C      P 6-31G                selected for orbital group  1
 Library entry C      D 6-31G*               selected for orbital group  1
 Library entry H      S 6-31G                selected for orbital group  2


 PROGRAM * SEWARD (Integral evaluation for generally contracted gaussian basis sets)     Author: Roland Lindh, 1990

 Geometry written to block  1 of record 700


 Point group  C1  



 ATOMIC COORDINATES

 NR  ATOM    CHARGE       X              Y              Z

   1  C       6.00    0.082770004    0.000000000    1.264415750
   2  C       6.00   -0.082770004    0.000000000   -1.264415750
   3  H       1.00   -0.270419808    1.728910431    2.333433819
   4  H       1.00   -0.270419808   -1.728910431    2.333433819
   5  H       1.00    0.270419808    1.728910431   -2.333433819
   6  H       1.00    0.270419808   -1.728910431   -2.333433819

 Bond lengths in Bohr (Angstrom)

 1-2  2.534243921  1-3  2.063170850  1-4  2.063170850  2-5  2.063170850  2-6  2.063170850
     ( 1.341064130)     ( 1.091782996)     ( 1.091782996)     ( 1.091782996)     ( 1.091782996)

 Bond angles

  1-2-5  120.38808885   1-2-6  120.38808885   2-1-3  120.38808885   2-1-4  120.38808885

  3-1-4  113.85632480   5-2-6  113.85632480

 NUCLEAR CHARGE:                   16
 NUMBER OF PRIMITIVE AOS:          72
 NUMBER OF SYMMETRY AOS:           70
 NUMBER OF CONTRACTIONS:           36   (   36A   )
 NUMBER OF CORE ORBITALS:           2   (    2A   )
 NUMBER OF VALENCE ORBITALS:       12   (   12A   )


 NUCLEAR REPULSION ENERGY   33.19080197


 Eigenvalues of metric

         1 0.826E-02 0.240E-01 0.367E-01 0.483E-01 0.740E-01 0.194E+00 0.216E+00 0.218E+00


 Contracted 2-electron integrals neglected if value below      1.0D-11
 AO integral compression algorithm  1   Integral accuracy      1.0D-11

     1.311 MB (compressed) written to integral file ( 49.9%)


 NUMBER OF SORTED TWO-ELECTRON INTEGRALS:     222111.     BUFFER LENGTH:  32768
 NUMBER OF SEGMENTS:   1  SEGMENT LENGTH:     222111      RECORD LENGTH: 524288

 Memory used in sort:       0.78 MW

 SORT1 READ      284735. AND WROTE      177325. INTEGRALS IN      1 RECORDS. CPU TIME:     0.00 SEC, REAL TIME:     0.01 SEC
 SORT2 READ      177325. AND WROTE      222111. INTEGRALS IN      5 RECORDS. CPU TIME:     0.02 SEC, REAL TIME:     0.02 SEC

 FILE SIZES:   FILE 1:    31.4 MBYTE,  FILE 4:     4.2 MBYTE,   TOTAL:     35.6 MBYTE

 OPERATOR DM      FOR CENTER  0  COORDINATES:    0.000000    0.000000    0.000000


 **********************************************************************************************************************************
 DATASETS  * FILE   NREC   LENGTH (MB)   RECORD NAMES
              1      19       30.97       500      610      700      900      950      970     1000      129      960     1100   
                                          VAR    BASINP    GEOM    SYMINP    ZMAT    AOBASIS   BASIS     P2S    ABASIS      S 
                                         1400     1410     1200     1210     1080     1600     1650     1300     1700   
                                           T        V       H0       H01     AOSYM     SMH    MOLCAS    ERIS     OPER   

 PROGRAMS   *        TOTAL       INT
 CPU TIMES  *         0.34      0.24
 REAL TIME  *         0.57 SEC
 DISK USED  *        35.97 MB
 **********************************************************************************************************************************


 PROGRAM * RHF-SCF (CLOSED SHELL)       Authors: W. Meyer, H.-J. Werner


 NUMBER OF ELECTRONS:       8+    8-    SPACE SYMMETRY=1    SPIN SYMMETRY: Singlet 
 CONVERGENCE THRESHOLDS:    1.00E-05 (Density)    1.00E-07 (Energy)
 MAX. NUMBER OF ITERATIONS:       60
 INTERPOLATION TYPE:            DIIS
 INTERPOLATION STEPS:              2 (START)      1 (STEP)
 LEVEL SHIFTS:                  0.00 (CLOSED)  0.00 (OPEN) 



 Orbital guess generated from atomic densities. Full valence occupancy:    8

 Molecular orbital dump at record        2100.2

 Initial occupancy:   8

 ITERATION    DDIFF          GRAD             ENERGY        2-EL.EN.            DIPOLE MOMENTS         DIIS   ORB.
    1      0.000D+00      0.000D+00       -77.99596109    118.284897    0.00000   -0.00000   -0.00000    0    start
    2      0.000D+00      0.847D-02       -78.01760006    116.474954    0.00000   -0.00000   -0.00000    1    diag
    3      0.805D-02      0.292D-02       -78.01976903    117.106418    0.00000   -0.00000   -0.00000    2    diag
    4      0.271D-02      0.739D-03       -78.02000749    117.002672    0.00000   -0.00000    0.00000    3    diag
    5      0.116D-02      0.980D-04       -78.02001370    117.006146    0.00000    0.00000   -0.00000    4    diag
    6      0.241D-03      0.275D-04       -78.02001438    117.005501   -0.00000   -0.00000   -0.00000    5    diag
    7      0.658D-04      0.938D-05       -78.02001447    117.005610    0.00000   -0.00000   -0.00000    6    diag
    8      0.265D-04      0.106D-05       -78.02001447    117.005604   -0.00000    0.00000   -0.00000    7    diag
    9      0.196D-05      0.130D-06       -78.02001447    117.005608    0.00000   -0.00000   -0.00000    0    orth

 Final occupancy:   8

 !RHF STATE  1.1 Energy               -78.020014471224
 Nuclear energy                        33.19080197
 One-electron energy                 -169.71362065
 Two-electron energy                   58.50280420
 Virial quotient                       -1.00100549
 !RHF STATE  1.1 Dipole moment          0.00000000    -0.00000000    -0.00000000
 Dipole moment /Debye                   0.00000000    -0.00000000    -0.00000000

 ELECTRON ORBITALS
 =================

  Orbital  Occupation    Energy     Coefficients
    1.1     2.00000   -11.23080     1 1s    0.70421     2 1s    0.70421
    2.1     2.00000   -11.22924     1 1s    0.70456     2 1s   -0.70456
    3.1     2.00000    -1.02730     1 1s    0.30148     2 1s    0.30148
    4.1     2.00000    -0.78821     2 1s   -0.24879
    5.1     2.00000    -0.63091     1 2py   0.32019     2 2py   0.32019
    6.1     2.00000    -0.57849     1 2pz   0.40516     2 2pz  -0.40516
    7.1     2.00000    -0.49601     1 2py   0.30313     2 2py  -0.30313
    8.1     2.00000    -0.37305     1 2px   0.36873     1 2px   0.30575     2 2px   0.36873     2 2px   0.30575
    9.1     0.00000     0.16345     1 1s    0.28960     1 2px   0.33285     1 2px   0.66660     2 1s    0.28960     2 2px  -0.33285
                                    2 2px  -0.66660
   10.1     0.00000     0.26636     1 1s   -1.43724     1 2px   0.38325     1 2pz  -0.63158     2 1s   -1.43724     2 2px  -0.38325
                                    2 2pz   0.63158     3 1s    1.02734     4 1s    1.02734     5 1s    1.02734     6 1s    1.02734
   11.1     0.00000     0.29093     1 2py  -0.25495     1 2py  -0.78587     2 2py  -0.25495     2 2py  -0.78587     3 1s    1.07142
                                    4 1s   -1.07142     5 1s    1.07142     6 1s   -1.07142
   12.1     0.00000     0.30378     1 1s   -1.90930     2 1s    1.90930     3 1s    1.05971     4 1s    1.05971     5 1s   -1.05971
                                    6 1s   -1.05971
   13.1     0.00000     0.38180     1 2py  -1.76148     2 2py   1.76148     3 1s    1.51043     4 1s   -1.51043     5 1s   -1.51043
                                    6 1s    1.51043
   14.1     0.00000     0.48663     1 1s   -2.98289     1 2pz   2.86020     2 1s    2.98289     2 2pz   2.86020     3 1s   -0.53062
                                    4 1s   -0.53062     5 1s    0.53062     6 1s    0.53062
   15.1     0.00000     0.66891     1 2pz  -0.55932     1 2pz   1.02602     2 2pz   0.55932     2 2pz  -1.02602
   16.1     0.00000     0.76449     1 2py  -0.40377     1 2py   0.74341     2 2py  -0.40377     2 2py   0.74341     3 1s   -0.38976
                                    4 1s    0.38976     5 1s   -0.38976     6 1s    0.38976
   17.1     0.00000     0.78187     1 2px  -0.73549     1 2px   0.64594     1 2pz  -0.29576     2 2px  -0.73549     2 2px   0.64594
                                    2 2pz  -0.29576
   18.1     0.00000     0.88533     1 1s   -0.31944     1 1s    0.41840     1 2px  -0.78861     1 2px   0.97412     2 1s   -0.31944
                                    2 1s    0.41840     2 2px   0.78861     2 2px  -0.97412
   19.1     0.00000     0.90308     1 1s   -0.85382     1 1s    1.46425     1 2px  -0.56203     1 2pz   0.37945     2 1s   -0.85382
                                    2 1s    1.46425     2 2px   0.56203     2 2pz  -0.37945     3 1s   -0.39966     3 1s   -0.26468
                                    4 1s   -0.39966     4 1s   -0.26468     5 1s   -0.39966     5 1s   -0.26468     6 1s   -0.39966
                                    6 1s   -0.26468
   20.1     0.00000     0.96923     1 1s   -0.72899     1 2pz   0.62486     1 2pz  -0.51576     2 1s    0.72899     2 2pz   0.62486
                                    2 2pz  -0.51576     3 1s    0.37756     4 1s    0.37756     5 1s   -0.37756     6 1s   -0.37756
   21.1     0.00000     1.06132     1 2py  -0.83484     1 2py   2.89522     2 2py   0.83484     2 2py  -2.89522     3 1s   -1.20527
                                    4 1s    1.20527     5 1s    1.20527     6 1s   -1.20527
   22.1     0.00000     1.10351     1 2py  -0.68488     1 2py   1.08677     2 2py  -0.68488     2 2py   1.08677     3 1s    0.38391
                                    3 1s   -1.05374     4 1s   -0.38391     4 1s    1.05374     5 1s    0.38391     5 1s   -1.05374
                                    6 1s   -0.38391     6 1s    1.05374
   23.1     0.00000     1.20294     1 1s   -0.53351     1 1s    0.53791     1 2pz  -0.60864     1 2pz   1.19380     2 1s    0.53351
                                    2 1s   -0.53791     2 2pz  -0.60864     2 2pz   1.19380     3 1s    0.46580     3 1s   -0.96299
                                    4 1s    0.46580     4 1s   -0.96299     5 1s   -0.46580     5 1s    0.96299     6 1s   -0.46580
                                    6 1s    0.96299
   24.1     0.00000     1.20505     1 1s    1.02671     1 1s   -1.70950     1 2pz   0.36111     1 2pz  -0.49173     2 1s    1.02671
                                    2 1s   -1.70950     2 2pz  -0.36111     2 2pz   0.49173     3 1s   -0.43960     3 1s    0.86430
                                    4 1s   -0.43960     4 1s    0.86430     5 1s   -0.43960     5 1s    0.86430     6 1s   -0.43960
                                    6 1s    0.86430
   25.1     0.00000     1.30044     1 2py  -0.32849     1 2py  -0.64384     2 2py   0.32849     2 2py   0.64384     3 1s    0.63734
                                    3 1s   -0.26464     4 1s   -0.63734     4 1s    0.26464     5 1s   -0.63734     5 1s    0.26464
                                    6 1s    0.63734     6 1s   -0.26464
   26.1     0.00000     1.34245     1 1s   -1.59314     1 1s    5.41450     1 2pz  -1.91575     2 1s    1.59314     2 1s   -5.41450
                                    2 2pz  -1.91575     3 1s   -0.32932     4 1s   -0.32932     5 1s    0.32932     6 1s    0.32932
   27.1     0.00000     1.75497     1 1s   -0.45442     1 3d1+  0.61019     2 1s    0.45442     2 3d1+ -0.61019
   28.1     0.00000     2.01163     1 2py  -1.29376     1 3d2-  0.67140     2 2py   1.29376     2 3d2-  0.67140     3 1s    0.29189
                                    3 1s    0.42880     4 1s   -0.29189     4 1s   -0.42880     5 1s   -0.29189     5 1s   -0.42880
                                    6 1s    0.29189     6 1s    0.42880
   29.1     0.00000     2.02391     1 3d2-  0.56134     1 3d1-  0.39903     2 3d2- -0.56134     2 3d1- -0.39903
   30.1     0.00000     2.15489     1 1s   -0.64784     1 3d2+  0.69668     2 1s   -0.64784     2 3d2+  0.69668     3 1s    0.34577
                                    4 1s    0.34577     5 1s    0.34577     6 1s    0.34577
   31.1     0.00000     2.40703     1 1s   -0.50349     1 2pz   0.28568     1 2pz  -0.43713     1 3d0   0.69607     2 1s   -0.50349
                                    2 2pz  -0.28568     2 2pz   0.43713     2 3d0   0.69607
   32.1     0.00000     2.43691     1 3d2- -0.49229     1 3d1-  0.55694     2 3d2-  0.49229     2 3d1- -0.55694     3 1s   -0.46376
                                    4 1s    0.46376     5 1s   -0.46376     6 1s    0.46376
   33.1     0.00000     2.56460     1 1s    0.31683     1 1s   -1.49673     1 2pz   0.34327     1 3d2+  0.77947     2 1s   -0.31683
                                    2 1s    1.49673     2 2pz   0.34327     2 3d2+ -0.77947     3 1s    0.42544     4 1s    0.42544
                                    5 1s   -0.42544     6 1s   -0.42544
   34.1     0.00000     2.72061     1 3d1+  0.89127     2 3d1+  0.89127
   35.1     0.00000     2.98700     1 2py   0.32587     1 3d1-  0.95058     2 2py  -0.32587     2 3d1-  0.95058     3 1s   -0.43314
                                    4 1s    0.43314     5 1s    0.43314     6 1s   -0.43314
   36.1     0.00000     3.05923     1 1s    0.31406     1 1s    1.97197     1 2pz  -0.78968     1 2pz  -1.14875     1 3d0   1.10191
                                    2 1s   -0.31406     2 1s   -1.97197     2 2pz  -0.78968     2 2pz  -1.14875     2 3d0  -1.10191


 HOMO      8.1    -0.373053 =     -10.1513eV
 LUMO      9.1     0.163446 =       4.4476eV
 LUMO-HOMO         0.536499 =      14.5989eV


 **********************************************************************************************************************************
 DATASETS  * FILE   NREC   LENGTH (MB)   RECORD NAMES
              1      19       30.97       500      610      700      900      950      970     1000      129      960     1100   
                                          VAR    BASINP    GEOM    SYMINP    ZMAT    AOBASIS   BASIS     P2S    ABASIS      S 
                                         1400     1410     1200     1210     1080     1600     1650     1300     1700   
                                           T        V       H0       H01     AOSYM     SMH    MOLCAS    ERIS     OPER   

              2       4        2.86       700     1000      520     2100   
                                         GEOM     BASIS   MCVARS     RHF  

 PROGRAMS   *        TOTAL    HF-SCF       INT
 CPU TIMES  *         0.46      0.12      0.24
 REAL TIME  *         0.71 SEC
 DISK USED  *        35.97 MB
 **********************************************************************************************************************************


 PROGRAM * MULTI (Direct Multiconfiguration SCF)       Authors: P.J. Knowles, H.-J. Werner (1984)


 Number of closed-shell orbitals:   7 (   7 )
 Number of active  orbitals:        2 (   2 )
 Number of external orbitals:      27 (  27 )

 State symmetry 1

 Number of electrons:     2    Spin symmetry=Singlet   Space symmetry=1
 Number of states:        3
 Number of CSFs:          3   (4 determinants, 4 intermediate states)

 Molecular orbitals read from record     2100.2  Type=RHF/CANONICAL (state 1.1)

 Wavefunction dump at record             2140.2

 Convergence thresholds  0.10E-01 (gradient)  0.10E-05 (energy)  0.10E-02 (step length)

 Weight factors for state symmetry  1:    0.33333   0.33333   0.33333

 Number of orbital rotations:      257   (    14 Core/Active    189 Core/Virtual   0 Active/Active     54 Active/Virtual)
 Total number of variables:        269

 Micro-Iterations solved by the two-step solver

 ITER. MIC  NCI  NEG     ENERGY(VAR)     ENERGY(PROJ)   ENERGY CHANGE     GRAD(0)  GRAD(ORB)   GRAD(CI)     STEP       TIME

   1    5    4    0     -77.72520061     -77.73219385   -0.00699323    0.13523606 0.00075743 0.00000000  0.82D-01      0.09
   2    4    4    0     -77.73207257     -77.73207848   -0.00000591    0.00342017 0.00000004 0.00000000  0.38D-02      0.15
   3    2    3    0     -77.73207849     -77.73207849   -0.00000000    0.00000460 0.00000000 0.00000000  0.11D-04      0.19

 ** WVFN ****  CONVERGENCE REACHED, FINAL GRADIENT:  0.43D-10



 Results for state 1.1
 =====================

 !MCSCF STATE  1.1 Energy             -78.038311921163
 Nuclear energy                        33.19080197
 Kinetic energy                        78.01577600
 One electron energy                 -169.84737331
 Two electron energy                   58.61825941
 Virial ratio                           2.00028886

 !MCSCF STATE  1.1 Dipole moment        0.00000000    -0.00000000     0.00000000
 Dipole moment /Debye                   0.00000000    -0.00000000     0.00000000

 Results for state 2.1
 =====================

 !MCSCF STATE  2.1 Energy             -77.668737891374
 Nuclear energy                        33.19080197
 Kinetic energy                        78.18885665
 One electron energy                 -169.27013893
 Two electron energy                   58.41059906
 Virial ratio                           1.99334792

 !MCSCF STATE  2.1 Dipole moment        0.00000000    -0.00000000     0.00000000
 Dipole moment /Debye                   0.00000000    -0.00000000     0.00000000

 Results for state 3.1
 =====================

 !MCSCF STATE  3.1 Energy             -77.489185652781
 Nuclear energy                        33.19080197
 Kinetic energy                        78.36193729
 One electron energy                 -168.69290455
 Two electron energy                   58.01291692
 Virial ratio                           1.98886256

 !MCSCF STATE  3.1 Dipole moment       -0.00000000    -0.00000000    -0.00000000
 Dipole moment /Debye                  -0.00000000    -0.00000000    -0.00000000

 State-averaged charge density matrix saved on record  2140.2 (density set 1)

 !MCSCF trans         <2.1|DMX|1.1>    -0.322826185700 au =    -0.820488577052 Debye
 !MCSCF trans         <3.1|DMX|2.1>    -0.493856161786 au =    -1.255174943672 Debye

 !MCSCF trans         <2.1|DMZ|1.1>    -1.484486354792 au =    -3.772940829613 Debye
 !MCSCF trans         <3.1|DMZ|2.1>    -2.270951880223 au =    -5.771805879738 Debye


 NATURAL ORBITALS (state averaged)
 =================================

  Orbital  Occupation    Energy     Coefficients
    1.1     2.00000   -11.24717     1 1s    0.70422     2 1s    0.70422
    2.1     2.00000   -11.24585     1 1s    0.70452     2 1s   -0.70452
    3.1     2.00000    -1.04290     1 1s    0.30940     2 1s    0.30940
    4.1     2.00000    -0.79670     1 1s    0.29449     2 1s   -0.29449
    5.1     2.00000    -0.64438     1 2py   0.32594     2 2py   0.32594
    6.1     2.00000    -0.59407     1 2pz   0.40637     2 2pz  -0.40637
    7.1     2.00000    -0.50317     1 2py   0.30999     2 2py  -0.30999
    8.1     1.00000     0.02088     1 2px   0.37116     1 2px   0.64271     2 2px  -0.37116     2 2px  -0.64271
    9.1     1.00000    -0.23061     1 2px   0.35462     1 2px   0.31941     2 2px   0.35462     2 2px   0.31941
   10.1    -0.00000     0.26246     1 1s   -1.44572     1 2px   0.34749     1 2pz  -0.64247     2 1s   -1.44572     2 2px  -0.34749
                                    2 2pz   0.64247     3 1s    1.03161     4 1s    1.03161     5 1s    1.03161     6 1s    1.03161
   11.1    -0.00000     0.28142     1 2py  -0.25354     1 2py  -0.77606     2 2py  -0.25354     2 2py  -0.77606     3 1s    1.06268
                                    4 1s   -1.06268     5 1s    1.06268     6 1s   -1.06268
   12.1    -0.00000     0.29969     1 1s   -1.92145     2 1s    1.92145     3 1s    1.05557     4 1s    1.05557     5 1s   -1.05557
                                    6 1s   -1.05557
   13.1    -0.00000     0.37693     1 2py  -1.74666     2 2py   1.74666     3 1s    1.50400     4 1s   -1.50400     5 1s   -1.50400
                                    6 1s    1.50400
   14.1    -0.00000     0.48400     1 1s   -2.96756     1 2pz   2.84222     2 1s    2.96756     2 2pz   2.84222     3 1s   -0.53600
                                    4 1s   -0.53600     5 1s    0.53600     6 1s    0.53600
   15.1    -0.00000     0.65690     1 1s    0.26390     1 2pz  -0.54970     1 2pz   1.00463     2 1s    0.26390     2 2pz   0.54970
                                    2 2pz  -1.00463
   16.1    -0.00000     0.75383     1 2py  -0.41505     1 2py   0.75137     2 2py  -0.41505     2 2py   0.75137     3 1s   -0.38473
                                    4 1s    0.38473     5 1s   -0.38473     6 1s    0.38473
   17.1    -0.00000     0.77457     1 2px  -0.74314     1 2px   0.64347     1 2pz  -0.26369     2 2px  -0.74314     2 2px   0.64347
                                    2 2pz  -0.26369
   18.1    -0.00000     0.86906     1 2px  -0.79354     1 2px   1.06932     2 2px   0.79354     2 2px  -1.06932
   19.1    -0.00000     0.89800     1 1s   -0.88528     1 1s    1.53025     1 2px  -0.42871     1 2pz   0.42247     2 1s   -0.88528
                                    2 1s    1.53025     2 2px   0.42871     2 2pz  -0.42247     3 1s   -0.40633     3 1s   -0.27963
                                    4 1s   -0.40633     4 1s   -0.27963     5 1s   -0.40633     5 1s   -0.27963     6 1s   -0.40633
                                    6 1s   -0.27963
   20.1    -0.00000     0.95003     1 1s   -0.56970     1 2pz   0.62884     1 2pz  -0.59610     2 1s    0.56970     2 2pz   0.62884
                                    2 2pz  -0.59610     3 1s    0.37769     4 1s    0.37769     5 1s   -0.37769     6 1s   -0.37769
   21.1    -0.00000     1.05072     1 2py  -0.83700     1 2py   2.89408     2 2py   0.83700     2 2py  -2.89408     3 1s   -1.21653
                                    4 1s    1.21653     5 1s    1.21653     6 1s   -1.21653
   22.1    -0.00000     1.08807     1 2py  -0.67308     1 2py   1.08804     2 2py  -0.67308     2 2py   1.08804     3 1s    0.38501
                                    3 1s   -1.06289     4 1s   -0.38501     4 1s    1.06289     5 1s    0.38501     5 1s   -1.06289
                                    6 1s   -0.38501     6 1s    1.06289
   23.1    -0.00000     1.19939     1 1s   -0.48433     1 1s    0.37480     1 2pz  -0.62016     1 2pz   1.25754     2 1s    0.48433
                                    2 1s   -0.37480     2 2pz  -0.62016     2 2pz   1.25754     3 1s    0.46727     3 1s   -0.95385
                                    4 1s    0.46727     4 1s   -0.95385     5 1s   -0.46727     5 1s    0.95385     6 1s   -0.46727
                                    6 1s    0.95385
   24.1    -0.00000     1.20090     1 1s    1.02152     1 1s   -1.70577     1 2pz   0.36481     1 2pz  -0.49721     2 1s    1.02152
                                    2 1s   -1.70577     2 2pz  -0.36481     2 2pz   0.49721     3 1s   -0.44064     3 1s    0.86416
                                    4 1s   -0.44064     4 1s    0.86416     5 1s   -0.44064     5 1s    0.86416     6 1s   -0.44064
                                    6 1s    0.86416
   25.1    -0.00000     1.29232     1 2py  -0.31347     1 2py  -0.67663     2 2py   0.31347     2 2py   0.67663     3 1s    0.63713
                                    3 1s   -0.25274     4 1s   -0.63713     4 1s    0.25274     5 1s   -0.63713     5 1s    0.25274
                                    6 1s    0.63713     6 1s   -0.25274
   26.1    -0.00000     1.32208     1 1s   -1.61072     1 1s    5.43890     1 2pz  -1.87544     2 1s    1.61072     2 1s   -5.43890
                                    2 2pz  -1.87544     3 1s   -0.36067     4 1s   -0.36067     5 1s    0.36067     6 1s    0.36067
   27.1    -0.00000     1.72983     1 1s   -0.46169     1 3d1+  0.60928     2 1s    0.46169     2 3d1+ -0.60928
   28.1    -0.00000     1.99634     1 2py  -1.29857     1 3d2-  0.67112     2 2py   1.29857     2 3d2-  0.67112     3 1s    0.29315
                                    3 1s    0.42982     4 1s   -0.29315     4 1s   -0.42982     5 1s   -0.29315     5 1s   -0.42982
                                    6 1s    0.29315     6 1s    0.42982
   29.1    -0.00000     2.00333     1 3d2-  0.56535     1 3d1-  0.39340     2 3d2- -0.56535     2 3d1- -0.39340
   30.1    -0.00000     2.13841     1 1s   -0.64350     1 3d2+  0.69581     2 1s   -0.64350     2 3d2+  0.69581     3 1s    0.34715
                                    4 1s    0.34715     5 1s    0.34715     6 1s    0.34715
   31.1    -0.00000     2.38670     1 1s   -0.50126     1 2pz   0.29160     1 2pz  -0.43972     1 3d0   0.69597     2 1s   -0.50126
                                    2 2pz  -0.29160     2 2pz   0.43972     2 3d0   0.69597
   32.1    -0.00000     2.41755     1 3d2- -0.48764     1 3d1-  0.55882     2 3d2-  0.48764     2 3d1- -0.55882     3 1s   -0.46822
                                    4 1s    0.46822     5 1s   -0.46822     6 1s    0.46822
   33.1    -0.00000     2.54479     1 1s    0.31809     1 1s   -1.50767     1 2pz   0.34469     1 3d2+  0.77854     2 1s   -0.31809
                                    2 1s    1.50767     2 2pz   0.34469     2 3d2+ -0.77854     3 1s    0.42872     4 1s    0.42872
                                    5 1s   -0.42872     6 1s   -0.42872
   34.1    -0.00000     2.69824     1 3d1+  0.89115     2 3d1+  0.89115
   35.1    -0.00000     2.97359     1 2py   0.32450     1 3d1-  0.95037     2 2py  -0.32450     2 3d1-  0.95037     3 1s   -0.43518
                                    4 1s    0.43518     5 1s    0.43518     6 1s   -0.43518
   36.1    -0.00000     3.04114     1 1s    0.30728     1 1s    1.99604     1 2pz  -0.78206     1 2pz  -1.16203     1 3d0   1.10353
                                    2 1s   -0.30728     2 1s   -1.99604     2 2pz  -0.78206     2 2pz  -1.16203     2 3d0  -1.10353


 Natural orbital dump (state averaged) at molpro section  2140.2    (Orbital set 2)



 **********************************************************************************************************************************
 DATASETS  * FILE   NREC   LENGTH (MB)   RECORD NAMES
              1      20       31.69       500      610      700      900      950      970     1000      129      960     1100   
                                          VAR    BASINP    GEOM    SYMINP    ZMAT    AOBASIS   BASIS     P2S    ABASIS      S 
                                         1400     1410     1200     1210     1080     1600     1650     1300     1700     1380   
                                           T        V       H0       H01     AOSYM     SMH    MOLCAS    ERIS     OPER     JKOP   

              2       5        5.42       700     1000      520     2100     2140   
                                         GEOM     BASIS   MCVARS     RHF     MCSCF   

 PROGRAMS   *        TOTAL     MULTI    HF-SCF       INT
 CPU TIMES  *         0.70      0.24      0.12      0.24
 REAL TIME  *         0.99 SEC
 DISK USED  *        38.88 MB
 **********************************************************************************************************************************
 Molecular orbitals read from record     2140.2  Type=MCSCF/NATURAL (state averaged)
 Occupation numbers read from record     2140.2  Type=MCSCF/NATURAL (state averaged)
 Orbital energies read from record       2140.2  Type=MCSCF/NATURAL (state averaged)
 Redundancy group numbers read from rec  2140.2  Type=MCSCF/NATURAL (state averaged)

 MULTI/6-31G* energy=    -77.489185652781

           MULTI          HF-SCF
    -77.48918565    -78.02001447
 **********************************************************************************************************************************
 Molpro calculation terminated
