
 Primary working directories    : /scratch.local/johan406.molpro_temp/molpro.B9QWkqnh8O
 Secondary working directories  : /scratch.local/johan406.molpro_temp/molpro.B9QWkqnh8O
 Wavefunction directory         : /home/goodpast/johan406/wfu/
 Main file repository           : /scratch.local/johan406.molpro_temp/molpro.B9QWkqnh8O/

 id        : roweumn

 Nodes     nprocs
 cn0117       1

 Using customized tuning parameters: mindgm=1; mindgv=20; mindgc=4; mindgr=1; noblas=0; minvec=7
 default implementation of scratch files=df  


 Variables initialized (934), CPU time= 0.00 sec
                                                                                 !leave this line blank
 
 gprint, orbitals=30
 memory, 125., m
 symmetry, nosym
 nelect=16
 basis=6-31g*
 
 geometry={
 C 0.0 0.0 0.7151
 C 0.0 0.0 -0.7151
 H 0.0 0.9869 1.1728
 H -0.0 -0.9869 1.1728
 H 0.0 0.9869 -1.1728
 H 0.0 -0.9869 -1.1728
 }
 
 hf
 {multi,
 closed 7
 occ 9
 wf,spin=0;STATE,3
 }
 
 Commands  initialized (763), CPU time= 0.01 sec, 617 directives.
 Default parameters read. Elapsed time= 0.08 sec

 Checking input...
 Passed
1


                                         ***  PROGRAM SYSTEM MOLPRO  ***
                                       Copyright, TTI GmbH Stuttgart, 2015
                                    Version 2019.2 linked Oct 25 2019 22:50:27


 **********************************************************************************************************************************
 LABEL *                                                                                 
  64 bit serial version                                                                  DATE: 26-Jan-23          TIME: 20:35:38  
 **********************************************************************************************************************************

 SHA1:             8dbd9ae1082e4ce945b0f27595c9eb2d4aa09004
 **********************************************************************************************************************************


 Variable memory set to  125000000 words,  buffer space 

 SETTING NELECT         =        16.00000000                                  
 SETTING BASIS          =    6-31G*
 ZSYMEL=NOSYM


Geometry recognized as XYZ



 Recomputing integrals since basis changed


 Using spherical harmonics

 Library entry C      S 6-31G                selected for orbital group  1
 Library entry C      P 6-31G                selected for orbital group  1
 Library entry C      D 6-31G*               selected for orbital group  1
 Library entry H      S 6-31G                selected for orbital group  2


 PROGRAM * SEWARD (Integral evaluation for generally contracted gaussian basis sets)     Author: Roland Lindh, 1990

 Geometry written to block  1 of record 700


 Point group  C1  



 ATOMIC COORDINATES

 NR  ATOM    CHARGE       X              Y              Z

   1  C       6.00    0.000000000    0.000000000    1.351343152
   2  C       6.00    0.000000000    0.000000000   -1.351343152
   3  H       1.00    0.000000000    1.864970712    2.216270799
   4  H       1.00    0.000000000   -1.864970712    2.216270799
   5  H       1.00    0.000000000    1.864970712   -2.216270799
   6  H       1.00    0.000000000   -1.864970712   -2.216270799

 Bond lengths in Bohr (Angstrom)

 1-2  2.702686303  1-3  2.055776153  1-4  2.055776153  2-5  2.055776153  2-6  2.055776153
     ( 1.430200000)     ( 1.087869891)     ( 1.087869891)     ( 1.087869891)     ( 1.087869891)

 Bond angles

  1-2-5  114.88071309   1-2-6  114.88071309   2-1-3  114.88071309   2-1-4  114.88071309

  3-1-4  130.23857382   5-2-6  130.23857382

 NUCLEAR CHARGE:                   16
 NUMBER OF PRIMITIVE AOS:          72
 NUMBER OF SYMMETRY AOS:           70
 NUMBER OF CONTRACTIONS:           36   (   36A   )
 NUMBER OF CORE ORBITALS:           2   (    2A   )
 NUMBER OF VALENCE ORBITALS:       12   (   12A   )


 NUCLEAR REPULSION ENERGY   32.28889915

 EXTRA SYMMETRY OF AOS IN SYMMETRY 1:   1 1 1 2 1 1 2 1 1 1   3 2 1 1 1 1 1 2 1 1   2 1 1 1 3 2 1 1 1 1   1 1 1 1 1 1

 Eigenvalues of metric

         1 0.102E-01 0.163E-01 0.460E-01 0.586E-01 0.622E-01 0.228E+00 0.245E+00 0.257E+00


 Contracted 2-electron integrals neglected if value below      1.0D-11
 AO integral compression algorithm  1   Integral accuracy      1.0D-11

     0.786 MB (compressed) written to integral file ( 37.4%)


 NUMBER OF SORTED TWO-ELECTRON INTEGRALS:     222111.     BUFFER LENGTH:  32768
 NUMBER OF SEGMENTS:   1  SEGMENT LENGTH:     222111      RECORD LENGTH: 524288

 Memory used in sort:       0.78 MW

 SORT1 READ      284735. AND WROTE       98250. INTEGRALS IN      1 RECORDS. CPU TIME:     0.00 SEC, REAL TIME:     0.00 SEC
 SORT2 READ       98250. AND WROTE      222111. INTEGRALS IN      3 RECORDS. CPU TIME:     0.02 SEC, REAL TIME:     0.03 SEC

 FILE SIZES:   FILE 1:    30.9 MBYTE,  FILE 4:     4.2 MBYTE,   TOTAL:     35.1 MBYTE

 OPERATOR DM      FOR CENTER  0  COORDINATES:    0.000000    0.000000    0.000000


 **********************************************************************************************************************************
 DATASETS  * FILE   NREC   LENGTH (MB)   RECORD NAMES
              1      19       30.63       500      610      700      900      950      970     1000      129      960     1100   
                                          VAR    BASINP    GEOM    SYMINP    ZMAT    AOBASIS   BASIS     P2S    ABASIS      S 
                                         1400     1410     1200     1210     1080     1600     1650     1300     1700   
                                           T        V       H0       H01     AOSYM     SMH    MOLCAS    ERIS     OPER   

 PROGRAMS   *        TOTAL       INT
 CPU TIMES  *         0.36      0.26
 REAL TIME  *         0.57 SEC
 DISK USED  *        35.45 MB
 **********************************************************************************************************************************


 PROGRAM * RHF-SCF (CLOSED SHELL)       Authors: W. Meyer, H.-J. Werner


 NUMBER OF ELECTRONS:       8+    8-    SPACE SYMMETRY=1    SPIN SYMMETRY: Singlet 
 CONVERGENCE THRESHOLDS:    1.00E-05 (Density)    1.00E-07 (Energy)
 MAX. NUMBER OF ITERATIONS:       60
 INTERPOLATION TYPE:            DIIS
 INTERPOLATION STEPS:              2 (START)      1 (STEP)
 LEVEL SHIFTS:                  0.00 (CLOSED)  0.00 (OPEN) 



 Orbital guess generated from atomic densities. Full valence occupancy:    8

 Molecular orbital dump at record        2100.2

 Initial occupancy:   8

 ITERATION    DDIFF          GRAD             ENERGY        2-EL.EN.            DIPOLE MOMENTS         DIIS   ORB.
    1      0.000D+00      0.000D+00       -77.98853925    116.314591    0.00000   -0.00000   -0.00000    0    start
    2      0.000D+00      0.771D-02       -78.00725766    114.919236   -0.00000   -0.00000    0.00000    1    diag
    3      0.746D-02      0.241D-02       -78.00885257    115.424061    0.00000    0.00000    0.00000    2    diag
    4      0.229D-02      0.656D-03       -78.00902381    115.322090    0.00000    0.00000    0.00000    3    diag
    5      0.934D-03      0.638D-04       -78.00902579    115.324709    0.00000    0.00000   -0.00000    4    diag
    6      0.141D-03      0.547D-05       -78.00902581    115.324361    0.00000    0.00000    0.00000    5    diag
    7      0.114D-04      0.944D-06       -78.00902581    115.324368    0.00000    0.00000    0.00000    6    diag
    8      0.163D-05      0.136D-06       -78.00902581    115.324364    0.00000   -0.00000    0.00000    0    orth

 Final occupancy:   8

 !RHF STATE  1.1 Energy               -78.009025809007
 Nuclear energy                        32.28889915
 One-electron energy                 -167.96010676
 Two-electron energy                   57.66218180
 Virial quotient                       -1.00374237
 !RHF STATE  1.1 Dipole moment          0.00000000    -0.00000000     0.00000000
 Dipole moment /Debye                   0.00000000    -0.00000000     0.00000000

 ELECTRON ORBITALS
 =================

  Orbital  Occupation    Energy     Coefficients
    1.1     2.00000   -11.23797     1 1s    0.70432     2 1s    0.70432
    2.1     2.00000   -11.23692     1 1s    0.70452     2 1s   -0.70452
    3.1     2.00000    -1.00434     1 1s    0.29522     2 1s    0.29522
    4.1     2.00000    -0.78044     1 1s    0.25495     2 1s   -0.25495
    5.1     2.00000    -0.64942     1 2py   0.31563     2 2py   0.31563
    6.1     2.00000    -0.53230     1 2pz   0.40611     2 2pz  -0.40611
    7.1     2.00000    -0.52875     1 2py   0.31089     2 2py  -0.31089
    8.1     2.00000    -0.34774     1 2px   0.36396     1 2px   0.32589     2 2px   0.36396     2 2px   0.32589
    9.1     0.00000     0.15994     1 2px   0.35029     1 2px   0.68077     2 2px  -0.35029     2 2px  -0.68077
   10.1     0.00000     0.24425     1 1s   -1.34505     1 2pz  -0.50804     2 1s   -1.34505     2 2pz   0.50804     3 1s    0.92869
                                    4 1s    0.92869     5 1s    0.92869     6 1s    0.92869
   11.1     0.00000     0.29883     1 2py  -0.91948     2 2py  -0.91948     3 1s    1.16368     4 1s   -1.16368     5 1s    1.16368
                                    6 1s   -1.16368
   12.1     0.00000     0.30929     1 1s    1.86959     2 1s   -1.86959     3 1s   -1.04814     4 1s   -1.04814     5 1s    1.04814
                                    6 1s    1.04814
   13.1     0.00000     0.38146     1 2py  -1.86355     2 2py   1.86355     3 1s    1.64578     4 1s   -1.64578     5 1s   -1.64578
                                    6 1s    1.64578
   14.1     0.00000     0.44362     1 1s   -2.16274     1 2pz   2.26973     2 1s    2.16274     2 2pz   2.26973     3 1s   -0.35619
                                    4 1s   -0.35619     5 1s    0.35619     6 1s    0.35619
   15.1     0.00000     0.68151     1 1s    0.34082     1 2pz  -0.55222     1 2pz   0.91660     2 1s    0.34082     2 2pz   0.55222
                                    2 2pz  -0.91660
   16.1     0.00000     0.79373     1 2px  -0.75959     1 2px   0.63957     2 2px  -0.75959     2 2px   0.63957
   17.1     0.00000     0.80957     1 2py  -0.40649     1 2py   0.94351     2 2py  -0.40649     2 2py   0.94351     3 1s   -0.38745
                                    4 1s    0.38745     5 1s   -0.38745     6 1s    0.38745
   18.1     0.00000     0.85954     1 1s   -0.85978     1 1s    1.11733     2 1s   -0.85978     2 1s    1.11733     3 1s   -0.37425
                                    4 1s   -0.37425     5 1s   -0.37425     6 1s   -0.37425
   19.1     0.00000     0.88026     1 2px  -0.80985     1 2px   1.04191     2 2px   0.80985     2 2px  -1.04191
   20.1     0.00000     0.91000     1 1s   -0.43804     1 2pz   0.69344     1 2pz  -0.55187     2 1s    0.43804     2 2pz   0.69344
                                    2 2pz  -0.55187     3 1s    0.32248     4 1s    0.32248     5 1s   -0.32248     6 1s   -0.32248
   21.1     0.00000     1.14361     1 2py   0.72860     1 2py  -1.15171     2 2py   0.72860     2 2py  -1.15171     3 1s   -0.39762
                                    3 1s    1.05128     4 1s    0.39762     4 1s   -1.05128     5 1s   -0.39762     5 1s    1.05128
                                    6 1s    0.39762     6 1s   -1.05128
   22.1     0.00000     1.15196     1 2py   0.92329     1 2py  -2.86206     2 2py  -0.92329     2 2py   2.86206     3 1s    1.53367
                                    4 1s   -1.53367     5 1s   -1.53367     6 1s    1.53367
   23.1     0.00000     1.16453     1 1s   -0.60083     1 2pz  -0.55577     1 2pz   1.53411     2 1s    0.60083     2 2pz  -0.55577
                                    2 2pz   1.53411     3 1s    0.51051     3 1s   -0.88371     4 1s    0.51051     4 1s   -0.88371
                                    5 1s   -0.51051     5 1s    0.88371     6 1s   -0.51051     6 1s    0.88371
   24.1     0.00000     1.16767     1 1s    1.07311     1 1s   -1.74497     1 2pz   0.32047     1 2pz  -0.41977     2 1s    1.07311
                                    2 1s   -1.74497     2 2pz  -0.32047     2 2pz   0.41977     3 1s   -0.40440     3 1s    0.84151
                                    4 1s   -0.40440     4 1s    0.84151     5 1s   -0.40440     5 1s    0.84151     6 1s   -0.40440
                                    6 1s    0.84151
   25.1     0.00000     1.30788     1 1s   -1.67552     1 1s    5.02409     1 2pz  -1.55179     2 1s    1.67552     2 1s   -5.02409
                                    2 2pz  -1.55179     3 1s   -0.55222     4 1s   -0.55222     5 1s    0.55222     6 1s    0.55222
   26.1     0.00000     1.57221     1 2py   2.80742     2 2py  -2.80742     3 1s   -0.73586     3 1s   -0.84080     4 1s    0.73586
                                    4 1s    0.84080     5 1s    0.73586     5 1s    0.84080     6 1s   -0.73586     6 1s   -0.84080
   27.1     0.00000     1.72442     1 3d1+  0.63212     2 3d1+ -0.63212
   28.1     0.00000     1.84625     1 3d2-  0.68881     2 3d2-  0.68881
   29.1     0.00000     2.08723     1 3d2-  0.72695     2 3d2- -0.72695
   30.1     0.00000     2.21598     1 1s    0.43124     1 1s   -0.56087     1 3d0  -0.42183     1 3d2+  0.56181     2 1s    0.43124
                                    2 1s   -0.56087     2 3d0  -0.42183     2 3d2+  0.56181
   31.1     0.00000     2.24504     1 2py   0.39242     1 3d1-  0.69220     2 2py   0.39242     2 3d1- -0.69220     3 1s   -0.49253
                                    4 1s    0.49253     5 1s   -0.49253     6 1s    0.49253
   32.1     0.00000     2.39589     1 1s   -0.32756     1 2pz  -0.36154     1 3d0   0.53247     1 3d2+  0.49898     2 1s   -0.32756
                                    2 2pz   0.36154     2 3d0   0.53247     2 3d2+  0.49898     3 1s    0.36439     4 1s    0.36439
                                    5 1s    0.36439     6 1s    0.36439
   33.1     0.00000     2.61864     1 3d1+  0.85233     2 3d1+  0.85233
   34.1     0.00000     2.66579     1 1s    0.32130     1 1s   -1.71627     1 2pz   0.62541     1 3d2+  0.79678     2 1s   -0.32130
                                    2 1s    1.71627     2 2pz   0.62541     2 3d2+ -0.79678     3 1s    0.46833     4 1s    0.46833
                                    5 1s   -0.46833     6 1s   -0.46833
   35.1     0.00000     2.77963     1 2py   0.45521     1 3d1-  0.88198     2 2py  -0.45521     2 3d1-  0.88198     3 1s   -0.39766
                                    4 1s    0.39766     5 1s    0.39766     6 1s   -0.39766
   36.1     0.00000     2.99123     1 1s    1.67265     1 2pz  -0.58672     1 2pz  -0.99416     1 3d0   1.04758     2 1s   -1.67265
                                    2 2pz  -0.58672     2 2pz  -0.99416     2 3d0  -1.04758


 HOMO      8.1    -0.347740 =      -9.4625eV
 LUMO      9.1     0.159944 =       4.3523eV
 LUMO-HOMO         0.507684 =      13.8148eV


 **********************************************************************************************************************************
 DATASETS  * FILE   NREC   LENGTH (MB)   RECORD NAMES
              1      19       30.63       500      610      700      900      950      970     1000      129      960     1100   
                                          VAR    BASINP    GEOM    SYMINP    ZMAT    AOBASIS   BASIS     P2S    ABASIS      S 
                                         1400     1410     1200     1210     1080     1600     1650     1300     1700   
                                           T        V       H0       H01     AOSYM     SMH    MOLCAS    ERIS     OPER   

              2       4        2.86       700     1000      520     2100   
                                         GEOM     BASIS   MCVARS     RHF  

 PROGRAMS   *        TOTAL    HF-SCF       INT
 CPU TIMES  *         0.47      0.10      0.26
 REAL TIME  *         0.69 SEC
 DISK USED  *        35.45 MB
 **********************************************************************************************************************************


 PROGRAM * MULTI (Direct Multiconfiguration SCF)       Authors: P.J. Knowles, H.-J. Werner (1984)


 Number of closed-shell orbitals:   7 (   7 )
 Number of active  orbitals:        2 (   2 )
 Number of external orbitals:      27 (  27 )

 State symmetry 1

 Number of electrons:     2    Spin symmetry=Singlet   Space symmetry=1
 Number of states:        3
 Number of CSFs:          3   (4 determinants, 4 intermediate states)

 Molecular orbitals read from record     2100.2  Type=RHF/CANONICAL (state 1.1)

 EXTRA SYMMETRY OF MOS IN SYMMETRY 1:   1 1 1 1 1 1 1 2 2 1   1 1 1 1 1 2 1 1 2 1   1 1 1 1 1 1 2 3 3 1   1 1 2 1 1 1

 Wavefunction dump at record             2140.2

 Convergence thresholds  0.10E-01 (gradient)  0.10E-05 (energy)  0.10E-02 (step length)

 Weight factors for state symmetry  1:    0.33333   0.33333   0.33333

 Number of orbital rotations:      257   (    14 Core/Active    189 Core/Virtual   0 Active/Active     54 Active/Virtual)
 Total number of variables:        269

 Micro-Iterations solved by the two-step solver

 ITER. MIC  NCI  NEG     ENERGY(VAR)     ENERGY(PROJ)   ENERGY CHANGE     GRAD(0)  GRAD(ORB)   GRAD(CI)     STEP       TIME

   1    3    3    0     -77.73949497     -77.74428159   -0.00478662    0.11429225 0.00000077 0.00000000  0.56D-01      0.06
   2    2    3    0     -77.74422291     -77.74422482   -0.00000190    0.00217713 0.00000094 0.00000000  0.11D-02      0.10
   3    2    3    0     -77.74422482     -77.74422482   -0.00000000    0.00000108 0.00000000 0.00000000  0.64D-06      0.13

 ** WVFN ****  CONVERGENCE REACHED, FINAL GRADIENT:  0.31D-12



 Results for state 1.1
 =====================

 !MCSCF STATE  1.1 Energy             -78.032111548277
 Nuclear energy                        32.28889915
 Kinetic energy                        77.75529441
 One electron energy                 -168.00622139
 Two electron energy                   57.68521069
 Virial ratio                           2.00356011

 !MCSCF STATE  1.1 Dipole moment        0.00000000    -0.00000000    -0.00000000
 Dipole moment /Debye                   0.00000000    -0.00000000    -0.00000000

 Results for state 2.1
 =====================

 !MCSCF STATE  2.1 Energy             -77.676342923845
 Nuclear energy                        32.28889915
 Kinetic energy                        77.96544984
 One electron energy                 -167.59704817
 Two electron energy                   57.63180609
 Virial ratio                           1.99629186

 !MCSCF STATE  2.1 Dipole moment        0.00000000    -0.00000000    -0.00000000
 Dipole moment /Debye                   0.00000000    -0.00000000    -0.00000000

 Results for state 3.1
 =====================

 !MCSCF STATE  3.1 Energy             -77.524219977447
 Nuclear energy                        32.28889915
 Kinetic energy                        78.17560527
 One electron energy                 -167.18787495
 Two electron energy                   57.37475582
 Virial ratio                           1.99166767

 !MCSCF STATE  3.1 Dipole moment        0.00000000    -0.00000000    -0.00000000
 Dipole moment /Debye                   0.00000000    -0.00000000    -0.00000000

 State-averaged charge density matrix saved on record  2140.2 (density set 1)

 !MCSCF trans         <2.1|DMZ|1.1>    -1.513239720651 au =    -3.846019809213 Debye
 !MCSCF trans         <3.1|DMZ|2.1>    -2.445183618159 au =    -6.214629780240 Debye


 NATURAL ORBITALS (state averaged)
 =================================

  Orbital  Occupation    Energy     Coefficients
    1.1     2.00000   -11.24786     1 1s    0.70433     2 1s    0.70433
    2.1     2.00000   -11.24703     1 1s    0.70448     2 1s   -0.70448
    3.1     2.00000    -1.01468     1 1s    0.30214     2 1s    0.30214
    4.1     2.00000    -0.78732     1 1s    0.29362     2 1s   -0.29362
    5.1     2.00000    -0.65951     1 2py   0.31906     2 2py   0.31906
    6.1     2.00000    -0.54496     1 2pz   0.40803     2 2pz  -0.40803
    7.1     2.00000    -0.53449     1 2py   0.31534     2 2py  -0.31534
    8.1     1.00000     0.01911     1 2px   0.38251     1 2px   0.64166     2 2px  -0.38251     2 2px  -0.64166
    9.1     1.00000    -0.20816     1 2px   0.34676     1 2px   0.33876     2 2px   0.34676     2 2px   0.33876
   10.1    -0.00000     0.24177     1 1s   -1.34127     1 2pz  -0.51347     2 1s   -1.34127     2 2pz   0.51347     3 1s    0.92816
                                    4 1s    0.92816     5 1s    0.92816     6 1s    0.92816
   11.1    -0.00000     0.29205     1 2py  -0.91404     2 2py  -0.91404     3 1s    1.15812     4 1s   -1.15812     5 1s    1.15812
                                    6 1s   -1.15812
   12.1    -0.00000     0.30635     1 1s    1.90681     2 1s   -1.90681     3 1s   -1.04165     4 1s   -1.04165     5 1s    1.04165
                                    6 1s    1.04165
   13.1    -0.00000     0.37817     1 2py  -1.85432     2 2py   1.85432     3 1s    1.64111     4 1s   -1.64111     5 1s   -1.64111
                                    6 1s    1.64111
   14.1    -0.00000     0.44140     1 1s   -2.12101     1 2pz   2.25366     2 1s    2.12101     2 2pz   2.25366     3 1s   -0.37615
                                    4 1s   -0.37615     5 1s    0.37615     6 1s    0.37615
   15.1    -0.00000     0.67638     1 1s    0.26290     1 2pz  -0.55434     1 2pz   0.91326     2 1s    0.26290     2 2pz   0.55434
                                    2 2pz  -0.91326
   16.1    -0.00000     0.78852     1 2px  -0.76724     1 2px   0.63299     2 2px  -0.76724     2 2px   0.63299
   17.1    -0.00000     0.79897     1 2py  -0.41512     1 2py   0.94478     2 2py  -0.41512     2 2py   0.94478     3 1s   -0.38482
                                    4 1s    0.38482     5 1s   -0.38482     6 1s    0.38482
   18.1    -0.00000     0.85380     1 1s   -0.86588     1 1s    1.15629     2 1s   -0.86588     2 1s    1.15629     3 1s   -0.38050
                                    4 1s   -0.38050     5 1s   -0.38050     6 1s   -0.38050
   19.1    -0.00000     0.86559     1 2px  -0.79579     1 2px   1.06643     2 2px   0.79579     2 2px  -1.06643
   20.1    -0.00000     0.89383     1 1s   -0.32494     1 2pz   0.68999     1 2pz  -0.59998     2 1s    0.32494     2 2pz   0.68999
                                    2 2pz  -0.59998     3 1s    0.32791     4 1s    0.32791     5 1s   -0.32791     6 1s   -0.32791
   21.1    -0.00000     1.13118     1 2py   0.72083     1 2py  -1.15552     2 2py   0.72083     2 2py  -1.15552     3 1s   -0.39705
                                    3 1s    1.05840     4 1s    0.39705     4 1s   -1.05840     5 1s   -0.39705     5 1s    1.05840
                                    6 1s    0.39705     6 1s   -1.05840
   22.1    -0.00000     1.14247     1 2py   0.92084     1 2py  -2.86707     2 2py  -0.92084     2 2py   2.86707     3 1s    1.53974
                                    4 1s   -1.53974     5 1s   -1.53974     6 1s    1.53974
   23.1    -0.00000     1.16079     1 1s   -0.84284     1 2pz  -0.56719     1 2pz   1.61350     2 1s    0.84284     2 2pz  -0.56719
                                    2 2pz   1.61350     3 1s    0.50753     3 1s   -0.85450     4 1s    0.50753     4 1s   -0.85450
                                    5 1s   -0.50753     5 1s    0.85450     6 1s   -0.50753     6 1s    0.85450
   24.1    -0.00000     1.16543     1 1s    1.06680     1 1s   -1.73922     1 2pz   0.32800     1 2pz  -0.42832     2 1s    1.06680
                                    2 1s   -1.73922     2 2pz  -0.32800     2 2pz   0.42832     3 1s   -0.40511     3 1s    0.84014
                                    4 1s   -0.40511     4 1s    0.84014     5 1s   -0.40511     5 1s    0.84014     6 1s   -0.40511
                                    6 1s    0.84014
   25.1    -0.00000     1.29323     1 1s   -1.68164     1 1s    4.99029     1 2pz  -1.46898     2 1s    1.68164     2 1s   -4.99029
                                    2 2pz  -1.46898     3 1s   -0.59639     4 1s   -0.59639     5 1s    0.59639     6 1s    0.59639
   26.1    -0.00000     1.56480     1 2py   2.80701     2 2py  -2.80701     3 1s   -0.73464     3 1s   -0.84031     4 1s    0.73464
                                    4 1s    0.84031     5 1s    0.73464     5 1s    0.84031     6 1s   -0.73464     6 1s   -0.84031
   27.1    -0.00000     1.70455     1 3d1+  0.63199     2 3d1+ -0.63199
   28.1    -0.00000     1.83624     1 3d2-  0.68881     2 3d2-  0.68881
   29.1    -0.00000     2.06830     1 3d2-  0.72695     2 3d2- -0.72695
   30.1    -0.00000     2.20211     1 1s    0.43072     1 1s   -0.55476     1 3d0  -0.42876     1 3d2+  0.55535     2 1s    0.43072
                                    2 1s   -0.55476     2 3d0  -0.42876     2 3d2+  0.55535
   31.1    -0.00000     2.23285     1 2py   0.38769     1 3d1-  0.69064     2 2py   0.38769     2 3d1- -0.69064     3 1s   -0.49565
                                    4 1s    0.49565     5 1s   -0.49565     6 1s    0.49565
   32.1    -0.00000     2.38042     1 1s   -0.32240     1 2pz  -0.36306     1 3d0   0.52680     1 3d2+  0.50590     2 1s   -0.32240
                                    2 2pz   0.36306     2 3d0   0.52680     2 3d2+  0.50590     3 1s    0.36770     4 1s    0.36770
                                    5 1s    0.36770     6 1s    0.36770
   33.1    -0.00000     2.59920     1 3d1+  0.85261     2 3d1+  0.85261
   34.1    -0.00000     2.65036     1 1s    0.32286     1 1s   -1.72335     1 2pz   0.62663     1 3d2+  0.79627     2 1s   -0.32286
                                    2 1s    1.72335     2 2pz   0.62663     2 3d2+ -0.79627     3 1s    0.47092     4 1s    0.47092
                                    5 1s   -0.47092     6 1s   -0.47092
   35.1    -0.00000     2.76964     1 2py   0.45872     1 3d1-  0.88148     2 2py  -0.45872     2 3d1-  0.88148     3 1s   -0.40053
                                    4 1s    0.40053     5 1s    0.40053     6 1s   -0.40053
   36.1    -0.00000     2.97732     1 1s    1.69287     1 2pz  -0.58045     1 2pz  -1.00461     1 3d0   1.04882     2 1s   -1.69287
                                    2 2pz  -0.58045     2 2pz  -1.00461     2 3d0  -1.04882


 Natural orbital dump (state averaged) at molpro section  2140.2    (Orbital set 2)



 **********************************************************************************************************************************
 DATASETS  * FILE   NREC   LENGTH (MB)   RECORD NAMES
              1      20       31.36       500      610      700      900      950      970     1000      129      960     1100   
                                          VAR    BASINP    GEOM    SYMINP    ZMAT    AOBASIS   BASIS     P2S    ABASIS      S 
                                         1400     1410     1200     1210     1080     1600     1650     1300     1700     1380   
                                           T        V       H0       H01     AOSYM     SMH    MOLCAS    ERIS     OPER     JKOP   

              2       5        5.42       700     1000      520     2100     2140   
                                         GEOM     BASIS   MCVARS     RHF     MCSCF   

 PROGRAMS   *        TOTAL     MULTI    HF-SCF       INT
 CPU TIMES  *         0.64      0.17      0.10      0.26
 REAL TIME  *         0.89 SEC
 DISK USED  *        38.54 MB
 **********************************************************************************************************************************
 Molecular orbitals read from record     2140.2  Type=MCSCF/NATURAL (state averaged)
 Occupation numbers read from record     2140.2  Type=MCSCF/NATURAL (state averaged)
 Orbital energies read from record       2140.2  Type=MCSCF/NATURAL (state averaged)
 Redundancy group numbers read from rec  2140.2  Type=MCSCF/NATURAL (state averaged)

 MULTI/6-31G* energy=    -77.524219977447

           MULTI          HF-SCF
    -77.52421998    -78.00902581
 **********************************************************************************************************************************
 Molpro calculation terminated
