
 Primary working directories    : /scratch.local/johan406.molpro_temp/molpro.NhYodFt19b
 Secondary working directories  : /scratch.local/johan406.molpro_temp/molpro.NhYodFt19b
 Wavefunction directory         : /home/goodpast/johan406/wfu/
 Main file repository           : /scratch.local/johan406.molpro_temp/molpro.NhYodFt19b/

 id        : roweumn

 Nodes     nprocs
 cn0117       1

 Using customized tuning parameters: mindgm=1; mindgv=20; mindgc=4; mindgr=1; noblas=0; minvec=7
 default implementation of scratch files=df  


 Variables initialized (934), CPU time= 0.00 sec
                                                                                 !leave this line blank
 
 gprint, orbitals=30
 memory, 125., m
 symmetry, nosym
 nelect=16
 basis=6-31g*
 
 geometry={
 C 0.0 0.0 0.7262
 C 0.0 0.0 -0.7262
 H 0.0 1.0042 1.1579
 H -0.0 -1.0042 1.1579
 H 0.0 1.0042 -1.1579
 H 0.0 -1.0042 -1.1579
 }
 
 hf
 {multi,
 closed 7
 occ 9
 wf,spin=0;STATE,3
 }
 
 Commands  initialized (763), CPU time= 0.01 sec, 617 directives.
 Default parameters read. Elapsed time= 0.08 sec

 Checking input...
 Passed
1


                                         ***  PROGRAM SYSTEM MOLPRO  ***
                                       Copyright, TTI GmbH Stuttgart, 2015
                                    Version 2019.2 linked Oct 25 2019 22:50:27


 **********************************************************************************************************************************
 LABEL *                                                                                 
  64 bit serial version                                                                  DATE: 26-Jan-23          TIME: 20:36:47  
 **********************************************************************************************************************************

 SHA1:             8dbd9ae1082e4ce945b0f27595c9eb2d4aa09004
 **********************************************************************************************************************************


 Variable memory set to  125000000 words,  buffer space 

 SETTING NELECT         =        16.00000000                                  
 SETTING BASIS          =    6-31G*
 ZSYMEL=NOSYM


Geometry recognized as XYZ



 Recomputing integrals since basis changed


 Using spherical harmonics

 Library entry C      S 6-31G                selected for orbital group  1
 Library entry C      P 6-31G                selected for orbital group  1
 Library entry C      D 6-31G*               selected for orbital group  1
 Library entry H      S 6-31G                selected for orbital group  2


 PROGRAM * SEWARD (Integral evaluation for generally contracted gaussian basis sets)     Author: Roland Lindh, 1990

 Geometry written to block  1 of record 700


 Point group  C1  



 ATOMIC COORDINATES

 NR  ATOM    CHARGE       X              Y              Z

   1  C       6.00    0.000000000    0.000000000    1.372319112
   2  C       6.00    0.000000000    0.000000000   -1.372319112
   3  H       1.00    0.000000000    1.897662974    2.188113880
   4  H       1.00    0.000000000   -1.897662974    2.188113880
   5  H       1.00    0.000000000    1.897662974   -2.188113880
   6  H       1.00    0.000000000   -1.897662974   -2.188113880

 Bond lengths in Bohr (Angstrom)

 1-2  2.744638223  1-3  2.065586083  1-4  2.065586083  2-5  2.065586083  2-6  2.065586083
     ( 1.452400000)     ( 1.093061082)     ( 1.093061082)     ( 1.093061082)     ( 1.093061082)

 Bond angles

  1-2-5  113.26260043   1-2-6  113.26260043   2-1-3  113.26260043   2-1-4  113.26260043

  3-1-4  133.47479915   5-2-6  133.47479915

 NUCLEAR CHARGE:                   16
 NUMBER OF PRIMITIVE AOS:          72
 NUMBER OF SYMMETRY AOS:           70
 NUMBER OF CONTRACTIONS:           36   (   36A   )
 NUMBER OF CORE ORBITALS:           2   (    2A   )
 NUMBER OF VALENCE ORBITALS:       12   (   12A   )


 NUCLEAR REPULSION ENERGY   32.01327898

 EXTRA SYMMETRY OF AOS IN SYMMETRY 1:   1 1 1 2 1 1 2 1 1 1   3 2 1 1 1 1 1 2 1 1   2 1 1 1 3 2 1 1 1 1   1 1 1 1 1 1

 Eigenvalues of metric

         1 0.106E-01 0.164E-01 0.481E-01 0.603E-01 0.619E-01 0.232E+00 0.255E+00 0.261E+00


 Contracted 2-electron integrals neglected if value below      1.0D-11
 AO integral compression algorithm  1   Integral accuracy      1.0D-11

     0.786 MB (compressed) written to integral file ( 37.3%)


 NUMBER OF SORTED TWO-ELECTRON INTEGRALS:     222111.     BUFFER LENGTH:  32768
 NUMBER OF SEGMENTS:   1  SEGMENT LENGTH:     222111      RECORD LENGTH: 524288

 Memory used in sort:       0.78 MW

 SORT1 READ      284735. AND WROTE       98246. INTEGRALS IN      1 RECORDS. CPU TIME:     0.00 SEC, REAL TIME:     0.01 SEC
 SORT2 READ       98246. AND WROTE      222111. INTEGRALS IN      3 RECORDS. CPU TIME:     0.02 SEC, REAL TIME:     0.02 SEC

 FILE SIZES:   FILE 1:    30.9 MBYTE,  FILE 4:     4.2 MBYTE,   TOTAL:     35.1 MBYTE

 OPERATOR DM      FOR CENTER  0  COORDINATES:    0.000000    0.000000    0.000000


 **********************************************************************************************************************************
 DATASETS  * FILE   NREC   LENGTH (MB)   RECORD NAMES
              1      19       30.63       500      610      700      900      950      970     1000      129      960     1100   
                                          VAR    BASINP    GEOM    SYMINP    ZMAT    AOBASIS   BASIS     P2S    ABASIS      S 
                                         1400     1410     1200     1210     1080     1600     1650     1300     1700   
                                           T        V       H0       H01     AOSYM     SMH    MOLCAS    ERIS     OPER   

 PROGRAMS   *        TOTAL       INT
 CPU TIMES  *         0.35      0.25
 REAL TIME  *         0.56 SEC
 DISK USED  *        35.45 MB
 **********************************************************************************************************************************


 PROGRAM * RHF-SCF (CLOSED SHELL)       Authors: W. Meyer, H.-J. Werner


 NUMBER OF ELECTRONS:       8+    8-    SPACE SYMMETRY=1    SPIN SYMMETRY: Singlet 
 CONVERGENCE THRESHOLDS:    1.00E-05 (Density)    1.00E-07 (Energy)
 MAX. NUMBER OF ITERATIONS:       60
 INTERPOLATION TYPE:            DIIS
 INTERPOLATION STEPS:              2 (START)      1 (STEP)
 LEVEL SHIFTS:                  0.00 (CLOSED)  0.00 (OPEN) 



 Orbital guess generated from atomic densities. Full valence occupancy:    8

 Molecular orbital dump at record        2100.2

 Initial occupancy:   8

 ITERATION    DDIFF          GRAD             ENERGY        2-EL.EN.            DIPOLE MOMENTS         DIIS   ORB.
    1      0.000D+00      0.000D+00       -77.97931248    115.733738   -0.00000    0.00000   -0.00000    0    start
    2      0.000D+00      0.754D-02       -77.99742112    114.425273   -0.00000    0.00000    0.00000    1    diag
    3      0.733D-02      0.232D-02       -77.99893772    114.906562   -0.00000    0.00000    0.00000    2    diag
    4      0.224D-02      0.645D-03       -77.99910284    114.804197    0.00000    0.00000    0.00000    3    diag
    5      0.916D-03      0.652D-04       -77.99910500    114.806825    0.00000    0.00000   -0.00000    4    diag
    6      0.147D-03      0.559D-05       -77.99910502    114.806478   -0.00000    0.00000   -0.00000    5    diag
    7      0.124D-04      0.113D-05       -77.99910502    114.806484    0.00000   -0.00000   -0.00000    6    diag
    8      0.228D-05      0.187D-06       -77.99910502    114.806479   -0.00000   -0.00000   -0.00000    0    orth

 Final occupancy:   8

 !RHF STATE  1.1 Energy               -77.999105020814
 Nuclear energy                        32.01327898
 One-electron energy                 -167.41562362
 Two-electron energy                   57.40323962
 Virial quotient                       -1.00459906
 !RHF STATE  1.1 Dipole moment         -0.00000000    -0.00000000    -0.00000000
 Dipole moment /Debye                  -0.00000000    -0.00000000    -0.00000000

 ELECTRON ORBITALS
 =================

  Orbital  Occupation    Energy     Coefficients
    1.1     2.00000   -11.24153     1 1s    0.70434     2 1s    0.70434
    2.1     2.00000   -11.24057     1 1s    0.70453     2 1s   -0.70453
    3.1     2.00000    -0.99902     1 1s    0.29342     2 1s    0.29342
    4.1     2.00000    -0.77717     1 1s    0.25165     1 1s    0.25848     2 1s   -0.25165     2 1s   -0.25848
    5.1     2.00000    -0.65083     1 2py   0.31408     2 2py   0.31408
    6.1     2.00000    -0.53222     1 2py   0.31167     2 2py  -0.31167
    7.1     2.00000    -0.52017     1 2pz   0.40544     2 2pz  -0.40544
    8.1     2.00000    -0.34307     1 2px   0.36202     1 2px   0.32985     2 2px   0.36202     2 2px   0.32985
    9.1     0.00000     0.15562     1 2px   0.35201     1 2px   0.66941     2 2px  -0.35201     2 2px  -0.66941
   10.1     0.00000     0.23736     1 1s   -1.30628     1 2pz  -0.47708     2 1s   -1.30628     2 2pz   0.47708     3 1s    0.89977
                                    4 1s    0.89977     5 1s    0.89977     6 1s    0.89977
   11.1     0.00000     0.29852     1 2py  -0.94289     2 2py  -0.94289     3 1s    1.17399     4 1s   -1.17399     5 1s    1.17399
                                    6 1s   -1.17399
   12.1     0.00000     0.30764     1 1s    1.82167     2 1s   -1.82167     3 1s   -1.03991     4 1s   -1.03991     5 1s    1.03991
                                    6 1s    1.03991
   13.1     0.00000     0.38006     1 2py  -1.84994     2 2py   1.84994     3 1s    1.64389     4 1s   -1.64389     5 1s   -1.64389
                                    6 1s    1.64389
   14.1     0.00000     0.43212     1 1s   -2.04079     1 2pz   2.13955     2 1s    2.04079     2 2pz   2.13955     3 1s   -0.29616
                                    4 1s   -0.29616     5 1s    0.29616     6 1s    0.29616
   15.1     0.00000     0.68364     1 1s    0.35205     1 2pz  -0.54648     1 2pz   0.88174     2 1s    0.35205     2 2pz   0.54648
                                    2 2pz  -0.88174
   16.1     0.00000     0.79671     1 2px  -0.76335     1 2px   0.63953     2 2px  -0.76335     2 2px   0.63953
   17.1     0.00000     0.82528     1 2py  -0.41204     1 2py   0.99095     2 2py  -0.41204     2 2py   0.99095     3 1s   -0.38767
                                    3 1s   -0.26688     4 1s    0.38767     4 1s    0.26688     5 1s   -0.38767     5 1s   -0.26688
                                    6 1s    0.38767     6 1s    0.26688
   18.1     0.00000     0.86329     1 1s   -0.84305     1 1s    1.04146     1 2pz   0.27394     2 1s   -0.84305     2 1s    1.04146
                                    2 2pz  -0.27394     3 1s   -0.36874     4 1s   -0.36874     5 1s   -0.36874     6 1s   -0.36874
   19.1     0.00000     0.87812     1 2px  -0.80802     1 2px   1.03469     2 2px   0.80802     2 2px  -1.03469
   20.1     0.00000     0.89949     1 1s   -0.32502     1 2pz   0.71067     1 2pz  -0.59370     2 1s    0.32502     2 2pz   0.71067
                                    2 2pz  -0.59370     3 1s    0.30769     4 1s    0.30769     5 1s   -0.30769     6 1s   -0.30769
   21.1     0.00000     1.14672     1 2py   0.73466     1 2py  -1.15583     2 2py   0.73466     2 2py  -1.15583     3 1s   -0.40338
                                    3 1s    1.04476     4 1s    0.40338     4 1s   -1.04476     5 1s   -0.40338     5 1s    1.04476
                                    6 1s    0.40338     6 1s   -1.04476
   22.1     0.00000     1.14884     1 2py   0.92143     1 2py  -2.83590     2 2py  -0.92143     2 2py   2.83590     3 1s    1.53473
                                    4 1s   -1.53473     5 1s   -1.53473     6 1s    1.53473
   23.1     0.00000     1.15144     1 1s   -0.64997     1 2pz  -0.52762     1 2pz   1.52878     2 1s    0.64997     2 2pz  -0.52762
                                    2 2pz   1.52878     3 1s    0.51683     3 1s   -0.87618     4 1s    0.51683     4 1s   -0.87618
                                    5 1s   -0.51683     5 1s    0.87618     6 1s   -0.51683     6 1s    0.87618
   24.1     0.00000     1.15523     1 1s    1.08237     1 1s   -1.74269     1 2pz   0.30602     1 2pz  -0.39616     2 1s    1.08237
                                    2 1s   -1.74269     2 2pz  -0.30602     2 2pz   0.39616     3 1s   -0.39536     3 1s    0.83146
                                    4 1s   -0.39536     4 1s    0.83146     5 1s   -0.39536     5 1s    0.83146     6 1s   -0.39536
                                    6 1s    0.83146
   25.1     0.00000     1.30295     1 1s   -1.67697     1 1s    4.92493     1 2pz  -1.51546     2 1s    1.67697     2 1s   -4.92493
                                    2 2pz  -1.51546     3 1s   -0.56641     4 1s   -0.56641     5 1s    0.56641     6 1s    0.56641
   26.1     0.00000     1.58427     1 2py   2.83000     2 2py  -2.83000     3 1s   -0.74565     3 1s   -0.85904     4 1s    0.74565
                                    4 1s    0.85904     5 1s    0.74565     5 1s    0.85904     6 1s   -0.74565     6 1s   -0.85904
   27.1     0.00000     1.72378     1 3d1+  0.63551     2 3d1+ -0.63551
   28.1     0.00000     1.85211     1 3d2-  0.69035     2 3d2-  0.69035
   29.1     0.00000     2.07882     1 3d2-  0.72515     2 3d2- -0.72515
   30.1     0.00000     2.20465     1 1s   -0.46101     1 1s    0.54420     1 2pz   0.25325     1 3d0   0.46795     1 3d2+ -0.51003
                                    2 1s   -0.46101     2 1s    0.54420     2 2pz  -0.25325     2 3d0   0.46795     2 3d2+ -0.51003
   31.1     0.00000     2.21930     1 2py   0.44202     1 3d1-  0.69092     2 2py   0.44202     2 3d1- -0.69092     3 1s   -0.48216
                                    4 1s    0.48216     5 1s   -0.48216     6 1s    0.48216
   32.1     0.00000     2.40401     1 1s   -0.27382     1 2pz  -0.32459     1 3d0   0.48655     1 3d2+  0.55665     2 1s   -0.27382
                                    2 2pz   0.32459     2 3d0   0.48655     2 3d2+  0.55665     3 1s    0.39265     4 1s    0.39265
                                    5 1s    0.39265     6 1s    0.39265
   33.1     0.00000     2.59714     1 3d1+  0.84203     2 3d1+  0.84203
   34.1     0.00000     2.67206     1 1s    0.33656     1 1s   -1.78470     1 2pz   0.69497     1 3d2+  0.79300     2 1s   -0.33656
                                    2 1s    1.78470     2 2pz   0.69497     2 3d2+ -0.79300     3 1s    0.46930     4 1s    0.46930
                                    5 1s   -0.46930     6 1s   -0.46930
   35.1     0.00000     2.71183     1 2py   0.36197     1 3d1-  0.86516     2 2py  -0.36197     2 3d1-  0.86516     3 1s   -0.36347
                                    4 1s    0.36347     5 1s    0.36347     6 1s   -0.36347
   36.1     0.00000     2.98105     1 1s    1.57719     1 2pz  -0.54175     1 2pz  -0.94243     1 3d0   1.03070     2 1s   -1.57719
                                    2 2pz  -0.54175     2 2pz  -0.94243     2 3d0  -1.03070


 HOMO      8.1    -0.343069 =      -9.3354eV
 LUMO      9.1     0.155621 =       4.2347eV
 LUMO-HOMO         0.498691 =      13.5701eV


 **********************************************************************************************************************************
 DATASETS  * FILE   NREC   LENGTH (MB)   RECORD NAMES
              1      19       30.63       500      610      700      900      950      970     1000      129      960     1100   
                                          VAR    BASINP    GEOM    SYMINP    ZMAT    AOBASIS   BASIS     P2S    ABASIS      S 
                                         1400     1410     1200     1210     1080     1600     1650     1300     1700   
                                           T        V       H0       H01     AOSYM     SMH    MOLCAS    ERIS     OPER   

              2       4        2.86       700     1000      520     2100   
                                         GEOM     BASIS   MCVARS     RHF  

 PROGRAMS   *        TOTAL    HF-SCF       INT
 CPU TIMES  *         0.45      0.10      0.25
 REAL TIME  *         0.69 SEC
 DISK USED  *        35.45 MB
 **********************************************************************************************************************************


 PROGRAM * MULTI (Direct Multiconfiguration SCF)       Authors: P.J. Knowles, H.-J. Werner (1984)


 Number of closed-shell orbitals:   7 (   7 )
 Number of active  orbitals:        2 (   2 )
 Number of external orbitals:      27 (  27 )

 State symmetry 1

 Number of electrons:     2    Spin symmetry=Singlet   Space symmetry=1
 Number of states:        3
 Number of CSFs:          3   (4 determinants, 4 intermediate states)

 Molecular orbitals read from record     2100.2  Type=RHF/CANONICAL (state 1.1)

 EXTRA SYMMETRY OF MOS IN SYMMETRY 1:   1 1 1 1 1 1 1 2 2 1   1 1 1 1 1 2 1 1 2 1   1 1 1 1 1 1 2 3 3 1   1 1 2 1 1 1

 Wavefunction dump at record             2140.2

 Convergence thresholds  0.10E-01 (gradient)  0.10E-05 (energy)  0.10E-02 (step length)

 Weight factors for state symmetry  1:    0.33333   0.33333   0.33333

 Number of orbital rotations:      257   (    14 Core/Active    189 Core/Virtual   0 Active/Active     54 Active/Virtual)
 Total number of variables:        269

 Micro-Iterations solved by the two-step solver

 ITER. MIC  NCI  NEG     ENERGY(VAR)     ENERGY(PROJ)   ENERGY CHANGE     GRAD(0)  GRAD(ORB)   GRAD(CI)     STEP       TIME

   1    3    3    0     -77.73646989     -77.74098633   -0.00451644    0.11052662 0.00000065 0.00000000  0.55D-01      0.07
   2    2    3    0     -77.74093447     -77.74093610   -0.00000163    0.00201776 0.00000081 0.00000000  0.10D-02      0.10
   3    2    3    0     -77.74093610     -77.74093610   -0.00000000    0.00000092 0.00000000 0.00000000  0.54D-06      0.13

 ** WVFN ****  CONVERGENCE REACHED, FINAL GRADIENT:  0.23D-12



 Results for state 1.1
 =====================

 !MCSCF STATE  1.1 Energy             -78.023525736582
 Nuclear energy                        32.01327898
 Kinetic energy                        77.67317284
 One electron energy                 -167.44429510
 Two electron energy                   57.40749039
 Virial ratio                           2.00451060

 !MCSCF STATE  1.1 Dipole moment        0.00000000     0.00000000    -0.00000000
 Dipole moment /Debye                   0.00000000     0.00000000    -0.00000000

 Results for state 2.1
 =====================

 !MCSCF STATE  2.1 Energy             -77.672051439452
 Nuclear energy                        32.01327898
 Kinetic energy                        77.88835500
 One electron energy                 -167.06918919
 Two electron energy                   57.38385877
 Virial ratio                           1.99722290

 !MCSCF STATE  2.1 Dipole moment        0.00000000     0.00000000    -0.00000000
 Dipole moment /Debye                   0.00000000     0.00000000    -0.00000000

 Results for state 3.1
 =====================

 !MCSCF STATE  3.1 Energy             -77.527231117353
 Nuclear energy                        32.01327898
 Kinetic energy                        78.10353716
 One electron energy                 -166.69408328
 Two electron energy                   57.15357318
 Virial ratio                           1.99262126

 !MCSCF STATE  3.1 Dipole moment        0.00000000     0.00000000    -0.00000000
 Dipole moment /Debye                   0.00000000     0.00000000    -0.00000000

 State-averaged charge density matrix saved on record  2140.2 (density set 1)

 !MCSCF trans         <2.1|DMZ|1.1>    -1.511535198349 au =    -3.841687629419 Debye
 !MCSCF trans         <3.1|DMZ|2.1>    -2.487250701223 au =    -6.321546637215 Debye


 NATURAL ORBITALS (state averaged)
 =================================

  Orbital  Occupation    Energy     Coefficients
    1.1     2.00000   -11.25022     1 1s    0.70435     2 1s    0.70435
    2.1     2.00000   -11.24948     1 1s    0.70449     2 1s   -0.70449
    3.1     2.00000    -1.00849     1 1s    0.30005     2 1s    0.30005
    4.1     2.00000    -0.78388     1 1s    0.25063     1 1s    0.29571     2 1s   -0.25063     2 1s   -0.29571
    5.1     2.00000    -0.66038     1 2py   0.31705     2 2py   0.31705
    6.1     2.00000    -0.53775     1 2py   0.31570     2 2py  -0.31570
    7.1     2.00000    -0.53223     1 2pz   0.40734     2 2pz  -0.40734
    8.1     1.00000     0.01577     1 2px   0.38298     1 2px   0.63199     2 2px  -0.38298     2 2px  -0.63199
    9.1     1.00000    -0.20449     1 2px   0.34439     1 2px   0.34307     2 2px   0.34439     2 2px   0.34307
   10.1    -0.00000     0.23498     1 1s   -1.30267     1 2pz  -0.48244     2 1s   -1.30267     2 2pz   0.48244     3 1s    0.89926
                                    4 1s    0.89926     5 1s    0.89926     6 1s    0.89926
   11.1    -0.00000     0.29205     1 2py  -0.93830     2 2py  -0.93830     3 1s    1.16913     4 1s   -1.16913     5 1s    1.16913
                                    6 1s   -1.16913
   12.1    -0.00000     0.30479     1 1s    1.86349     2 1s   -1.86349     3 1s   -1.03344     4 1s   -1.03344     5 1s    1.03344
                                    6 1s    1.03344
   13.1    -0.00000     0.37690     1 2py  -1.84173     2 2py   1.84173     3 1s    1.63967     4 1s   -1.63967     5 1s   -1.63967
                                    6 1s    1.63967
   14.1    -0.00000     0.42985     1 1s   -1.99291     1 2pz   2.12376     2 1s    1.99291     2 2pz   2.12376     3 1s   -0.31958
                                    4 1s   -0.31958     5 1s    0.31958     6 1s    0.31958
   15.1    -0.00000     0.67969     1 1s    0.28047     1 2pz  -0.55013     1 2pz   0.88218     2 1s    0.28047     2 2pz   0.55013
                                    2 2pz  -0.88218
   16.1    -0.00000     0.79164     1 2px  -0.77120     1 2px   0.63261     2 2px  -0.77120     2 2px   0.63261
   17.1    -0.00000     0.81469     1 2py  -0.42000     1 2py   0.99120     2 2py  -0.42000     2 2py   0.99120     3 1s   -0.38544
                                    3 1s   -0.26642     4 1s    0.38544     4 1s    0.26642     5 1s   -0.38544     5 1s   -0.26642
                                    6 1s    0.38544     6 1s    0.26642
   18.1    -0.00000     0.85707     1 1s   -0.85271     1 1s    1.08265     2 1s   -0.85271     2 1s    1.08265     3 1s   -0.37510
                                    4 1s   -0.37510     5 1s   -0.37510     6 1s   -0.37510
   19.1    -0.00000     0.86407     1 2px  -0.79433     1 2px   1.05799     2 2px   0.79433     2 2px  -1.05799
   20.1    -0.00000     0.88425     1 2pz   0.70572     1 2pz  -0.63439     2 2pz   0.70572     2 2pz  -0.63439     3 1s    0.31435
                                    4 1s    0.31435     5 1s   -0.31435     6 1s   -0.31435
   21.1    -0.00000     1.13507     1 2py   0.72771     1 2py  -1.16007     2 2py   0.72771     2 2py  -1.16007     3 1s   -0.40260
                                    3 1s    1.05152     4 1s    0.40260     4 1s   -1.05152     5 1s   -0.40260     5 1s    1.05152
                                    6 1s    0.40260     6 1s   -1.05152
   22.1    -0.00000     1.14004     1 2py   0.91912     1 2py  -2.84044     2 2py  -0.91912     2 2py   2.84044     3 1s    1.54029
                                    4 1s   -1.54029     5 1s   -1.54029     6 1s    1.54029
   23.1    -0.00000     1.14764     1 1s   -0.87305     1 2pz  -0.53949     1 2pz   1.60345     2 1s    0.87305     2 2pz  -0.53949
                                    2 2pz   1.60345     3 1s    0.51314     3 1s   -0.84799     4 1s    0.51314     4 1s   -0.84799
                                    5 1s   -0.51314     5 1s    0.84799     6 1s   -0.51314     6 1s    0.84799
   24.1    -0.00000     1.15312     1 1s    1.07560     1 1s   -1.73651     1 2pz   0.31467     1 2pz  -0.40564     2 1s    1.07560
                                    2 1s   -1.73651     2 2pz  -0.31467     2 2pz   0.40564     3 1s   -0.39619     3 1s    0.82993
                                    4 1s   -0.39619     4 1s    0.82993     5 1s   -0.39619     5 1s    0.82993     6 1s   -0.39619
                                    6 1s    0.82993
   25.1    -0.00000     1.28896     1 1s   -1.68129     1 1s    4.88924     1 2pz  -1.43684     2 1s    1.68129     2 1s   -4.88924
                                    2 2pz  -1.43684     3 1s   -0.60751     4 1s   -0.60751     5 1s    0.60751     6 1s    0.60751
   26.1    -0.00000     1.57736     1 2py   2.82947     2 2py  -2.82947     3 1s   -0.74446     3 1s   -0.85849     4 1s    0.74446
                                    4 1s    0.85849     5 1s    0.74446     5 1s    0.85849     6 1s   -0.74446     6 1s   -0.85849
   27.1    -0.00000     1.70521     1 3d1+  0.63540     2 3d1+ -0.63540
   28.1    -0.00000     1.84293     1 3d2-  0.69035     2 3d2-  0.69035
   29.1    -0.00000     2.06082     1 3d2-  0.72515     2 3d2- -0.72515
   30.1    -0.00000     2.19092     1 1s   -0.45961     1 1s    0.53766     1 2pz   0.25851     1 3d0   0.47397     1 3d2+ -0.50328
                                    2 1s   -0.45961     2 1s    0.53766     2 2pz  -0.25851     2 3d0   0.47397     2 3d2+ -0.50328
   31.1    -0.00000     2.20793     1 2py   0.43732     1 3d1-  0.68943     2 2py   0.43732     2 3d1- -0.68943     3 1s   -0.48523
                                    4 1s    0.48523     5 1s   -0.48523     6 1s    0.48523
   32.1    -0.00000     2.38984     1 1s   -0.26902     1 2pz  -0.32559     1 3d0   0.48057     1 3d2+  0.56260     2 1s   -0.26902
                                    2 2pz   0.32559     2 3d0   0.48057     2 3d2+  0.56260     3 1s    0.39532     4 1s    0.39532
                                    5 1s    0.39532     6 1s    0.39532
   33.1    -0.00000     2.57840     1 3d1+  0.84229     2 3d1+  0.84229
   34.1    -0.00000     2.65760     1 1s    0.33824     1 1s   -1.79194     1 2pz   0.69657     1 3d2+  0.79257     2 1s   -0.33824
                                    2 1s    1.79194     2 2pz   0.69657     2 3d2+ -0.79257     3 1s    0.47178     4 1s    0.47178
                                    5 1s   -0.47178     6 1s   -0.47178
   35.1    -0.00000     2.70229     1 2py   0.36638     1 3d1-  0.86466     2 2py  -0.36638     2 3d1-  0.86466     3 1s   -0.36652
                                    4 1s    0.36652     5 1s    0.36652     6 1s   -0.36652
   36.1    -0.00000     2.96795     1 1s    1.59608     1 2pz  -0.53578     1 2pz  -0.95222     1 3d0   1.03188     2 1s   -1.59608
                                    2 2pz  -0.53578     2 2pz  -0.95222     2 3d0  -1.03188


 Natural orbital dump (state averaged) at molpro section  2140.2    (Orbital set 2)



 **********************************************************************************************************************************
 DATASETS  * FILE   NREC   LENGTH (MB)   RECORD NAMES
              1      20       31.35       500      610      700      900      950      970     1000      129      960     1100   
                                          VAR    BASINP    GEOM    SYMINP    ZMAT    AOBASIS   BASIS     P2S    ABASIS      S 
                                         1400     1410     1200     1210     1080     1600     1650     1300     1700     1380   
                                           T        V       H0       H01     AOSYM     SMH    MOLCAS    ERIS     OPER     JKOP   

              2       5        5.42       700     1000      520     2100     2140   
                                         GEOM     BASIS   MCVARS     RHF     MCSCF   

 PROGRAMS   *        TOTAL     MULTI    HF-SCF       INT
 CPU TIMES  *         0.61      0.16      0.10      0.25
 REAL TIME  *         0.88 SEC
 DISK USED  *        38.54 MB
 **********************************************************************************************************************************
 Molecular orbitals read from record     2140.2  Type=MCSCF/NATURAL (state averaged)
 Occupation numbers read from record     2140.2  Type=MCSCF/NATURAL (state averaged)
 Orbital energies read from record       2140.2  Type=MCSCF/NATURAL (state averaged)
 Redundancy group numbers read from rec  2140.2  Type=MCSCF/NATURAL (state averaged)

 MULTI/6-31G* energy=    -77.527231117353

           MULTI          HF-SCF
    -77.52723112    -77.99910502
 **********************************************************************************************************************************
 Molpro calculation terminated
