
 Primary working directories    : /scratch.local/johan406.molpro_temp/molpro.aDbDgbLMSq
 Secondary working directories  : /scratch.local/johan406.molpro_temp/molpro.aDbDgbLMSq
 Wavefunction directory         : /home/goodpast/johan406/wfu/
 Main file repository           : /scratch.local/johan406.molpro_temp/molpro.aDbDgbLMSq/

 id        : roweumn

 Nodes     nprocs
 cn0117       1

 Using customized tuning parameters: mindgm=1; mindgv=20; mindgc=4; mindgr=1; noblas=0; minvec=7
 default implementation of scratch files=df  


 Variables initialized (934), CPU time= 0.00 sec
                                                                                 !leave this line blank
 
 gprint, orbitals=30
 memory, 125., m
 symmetry, nosym
 nelect=16
 basis=6-31g*
 
 geometry={
 C 0.0 0.0 0.751
 C 0.0 0.0 -0.751
 H 0.0 1.0431 1.1244
 H -0.0 -1.0431 1.1244
 H 0.0 1.0431 -1.1244
 H 0.0 -1.0431 -1.1244
 }
 
 hf
 {multi,
 closed 7
 occ 9
 wf,spin=0;STATE,3
 }
 
 Commands  initialized (763), CPU time= 0.01 sec, 617 directives.
 Default parameters read. Elapsed time= 0.08 sec

 Checking input...
 Passed
1


                                         ***  PROGRAM SYSTEM MOLPRO  ***
                                       Copyright, TTI GmbH Stuttgart, 2015
                                    Version 2019.2 linked Oct 25 2019 22:50:27


 **********************************************************************************************************************************
 LABEL *                                                                                 
  64 bit serial version                                                                  DATE: 26-Jan-23          TIME: 20:39:24  
 **********************************************************************************************************************************

 SHA1:             8dbd9ae1082e4ce945b0f27595c9eb2d4aa09004
 **********************************************************************************************************************************


 Variable memory set to  125000000 words,  buffer space 

 SETTING NELECT         =        16.00000000                                  
 SETTING BASIS          =    6-31G*
 ZSYMEL=NOSYM


Geometry recognized as XYZ



 Recomputing integrals since basis changed


 Using spherical harmonics

 Library entry C      S 6-31G                selected for orbital group  1
 Library entry C      P 6-31G                selected for orbital group  1
 Library entry C      D 6-31G*               selected for orbital group  1
 Library entry H      S 6-31G                selected for orbital group  2


 PROGRAM * SEWARD (Integral evaluation for generally contracted gaussian basis sets)     Author: Roland Lindh, 1990

 Geometry written to block  1 of record 700


 Point group  C1  



 ATOMIC COORDINATES

 NR  ATOM    CHARGE       X              Y              Z

   1  C       6.00    0.000000000    0.000000000    1.419184320
   2  C       6.00    0.000000000    0.000000000   -1.419184320
   3  H       1.00    0.000000000    1.971173321    2.124808054
   4  H       1.00    0.000000000   -1.971173321    2.124808054
   5  H       1.00    0.000000000    1.971173321   -2.124808054
   6  H       1.00    0.000000000   -1.971173321   -2.124808054

 Bond lengths in Bohr (Angstrom)

 1-2  2.838368639  1-3  2.093664041  1-4  2.093664041  2-5  2.093664041  2-6  2.093664041
     ( 1.502000000)     ( 1.107919298)     ( 1.107919298)     ( 1.107919298)     ( 1.107919298)

 Bond angles

  1-2-5  109.69591647   1-2-6  109.69591647   2-1-3  109.69591647   2-1-4  109.69591647

  3-1-4  140.60816707   5-2-6  140.60816707

 NUCLEAR CHARGE:                   16
 NUMBER OF PRIMITIVE AOS:          72
 NUMBER OF SYMMETRY AOS:           70
 NUMBER OF CONTRACTIONS:           36   (   36A   )
 NUMBER OF CORE ORBITALS:           2   (    2A   )
 NUMBER OF VALENCE ORBITALS:       12   (   12A   )


 NUCLEAR REPULSION ENERGY   31.38765835

 EXTRA SYMMETRY OF AOS IN SYMMETRY 1:   1 1 1 2 1 1 2 1 1 1   3 2 1 1 1 1 1 2 1 1   2 1 1 1 3 2 1 1 1 1   1 1 1 1 1 1

 Eigenvalues of metric

         1 0.116E-01 0.169E-01 0.531E-01 0.566E-01 0.695E-01 0.243E+00 0.270E+00 0.272E+00


 Contracted 2-electron integrals neglected if value below      1.0D-11
 AO integral compression algorithm  1   Integral accuracy      1.0D-11

     0.786 MB (compressed) written to integral file ( 37.0%)


 NUMBER OF SORTED TWO-ELECTRON INTEGRALS:     222111.     BUFFER LENGTH:  32768
 NUMBER OF SEGMENTS:   1  SEGMENT LENGTH:     222111      RECORD LENGTH: 524288

 Memory used in sort:       0.78 MW

 SORT1 READ      284735. AND WROTE       98244. INTEGRALS IN      1 RECORDS. CPU TIME:     0.00 SEC, REAL TIME:     0.00 SEC
 SORT2 READ       98244. AND WROTE      222111. INTEGRALS IN      3 RECORDS. CPU TIME:     0.02 SEC, REAL TIME:     0.03 SEC

 FILE SIZES:   FILE 1:    30.9 MBYTE,  FILE 4:     4.2 MBYTE,   TOTAL:     35.1 MBYTE

 OPERATOR DM      FOR CENTER  0  COORDINATES:    0.000000    0.000000    0.000000


 **********************************************************************************************************************************
 DATASETS  * FILE   NREC   LENGTH (MB)   RECORD NAMES
              1      19       30.62       500      610      700      900      950      970     1000      129      960     1100   
                                          VAR    BASINP    GEOM    SYMINP    ZMAT    AOBASIS   BASIS     P2S    ABASIS      S 
                                         1400     1410     1200     1210     1080     1600     1650     1300     1700   
                                           T        V       H0       H01     AOSYM     SMH    MOLCAS    ERIS     OPER   

 PROGRAMS   *        TOTAL       INT
 CPU TIMES  *         0.36      0.26
 REAL TIME  *         0.57 SEC
 DISK USED  *        35.45 MB
 **********************************************************************************************************************************


 PROGRAM * RHF-SCF (CLOSED SHELL)       Authors: W. Meyer, H.-J. Werner


 NUMBER OF ELECTRONS:       8+    8-    SPACE SYMMETRY=1    SPIN SYMMETRY: Singlet 
 CONVERGENCE THRESHOLDS:    1.00E-05 (Density)    1.00E-07 (Energy)
 MAX. NUMBER OF ITERATIONS:       60
 INTERPOLATION TYPE:            DIIS
 INTERPOLATION STEPS:              2 (START)      1 (STEP)
 LEVEL SHIFTS:                  0.00 (CLOSED)  0.00 (OPEN) 



 Orbital guess generated from atomic densities. Full valence occupancy:    8

 Molecular orbital dump at record        2100.2

 Initial occupancy:   8

 ITERATION    DDIFF          GRAD             ENERGY        2-EL.EN.            DIPOLE MOMENTS         DIIS   ORB.
    1      0.000D+00      0.000D+00       -77.95268259    114.431845   -0.00000    0.00000    0.00000    0    start
    2      0.000D+00      0.718D-02       -77.96958959    113.295319    0.00000   -0.00000   -0.00000    1    diag
    3      0.705D-02      0.214D-02       -77.97097684    113.730939   -0.00000   -0.00000   -0.00000    2    diag
    4      0.216D-02      0.620D-03       -77.97113179    113.628107   -0.00000   -0.00000   -0.00000    3    diag
    5      0.888D-03      0.715D-04       -77.97113472    113.630819   -0.00000    0.00000    0.00000    4    diag
    6      0.171D-03      0.695D-05       -77.97113476    113.630448    0.00000    0.00000   -0.00000    5    diag
    7      0.172D-04      0.165D-05       -77.97113476    113.630456   -0.00000   -0.00000    0.00000    6    diag
    8      0.394D-05      0.246D-06       -77.97113476    113.630449   -0.00000    0.00000   -0.00000    0    orth

 Final occupancy:   8

 !RHF STATE  1.1 Energy               -77.971134757176
 Nuclear energy                        31.38765835
 One-electron energy                 -166.17401766
 Two-electron energy                   56.81522455
 Virial quotient                       -1.00650757
 !RHF STATE  1.1 Dipole moment         -0.00000000     0.00000000    -0.00000000
 Dipole moment /Debye                  -0.00000000     0.00000000    -0.00000000

 ELECTRON ORBITALS
 =================

  Orbital  Occupation    Energy     Coefficients
    1.1     2.00000   -11.25003     1 1s    0.70439     2 1s    0.70439
    2.1     2.00000   -11.24923     1 1s    0.70454     2 1s   -0.70454
    3.1     2.00000    -0.98720     1 1s    0.28929     2 1s    0.28929
    4.1     2.00000    -0.76924     1 1s    0.25649     1 1s    0.26715     2 1s   -0.25649     2 1s   -0.26715
    5.1     2.00000    -0.65225     1 2py   0.31032     2 2py   0.31032
    6.1     2.00000    -0.53708     1 2py   0.31268     2 2py  -0.31268
    7.1     2.00000    -0.49348     1 2pz   0.40352     2 2pz  -0.40352
    8.1     2.00000    -0.33328     1 2px   0.35810     1 2px   0.33823     2 2px   0.35810     2 2px   0.33823
    9.1     0.00000     0.14624     1 2px   0.35557     1 2px   0.64580     2 2px  -0.35557     2 2px  -0.64580
   10.1     0.00000     0.21988     1 1s   -1.21857     1 2pz  -0.41199     2 1s   -1.21857     2 2pz   0.41199     3 1s    0.83469
                                    4 1s    0.83469     5 1s    0.83469     6 1s    0.83469
   11.1     0.00000     0.29630     1 2py  -0.98890     2 2py  -0.98890     3 1s    1.18841     4 1s   -1.18841     5 1s    1.18841
                                    6 1s   -1.18841
   12.1     0.00000     0.30140     1 1s   -1.67412     2 1s    1.67412     3 1s    1.01643     4 1s    1.01643     5 1s   -1.01643
                                    6 1s   -1.01643
   13.1     0.00000     0.37827     1 2py  -1.80420     2 2py   1.80420     3 1s    1.63106     4 1s   -1.63106     5 1s   -1.63106
                                    6 1s    1.63106
   14.1     0.00000     0.40688     1 1s   -1.85264     1 2pz   1.88671     2 1s    1.85264     2 2pz   1.88671
   15.1     0.00000     0.68847     1 1s    0.36204     1 2pz  -0.53241     1 2pz   0.80607     2 1s    0.36204     2 2pz   0.53241
                                    2 2pz  -0.80607
   16.1     0.00000     0.80202     1 2px  -0.77062     1 2px   0.63935     2 2px  -0.77062     2 2px   0.63935
   17.1     0.00000     0.86671     1 2py  -0.43145     1 2py   1.10426     2 2py  -0.43145     2 2py   1.10426     3 1s   -0.38760
                                    3 1s   -0.35857     4 1s    0.38760     4 1s    0.35857     5 1s   -0.38760     5 1s   -0.35857
                                    6 1s    0.38760     6 1s    0.35857
   18.1     0.00000     0.87372     1 2px  -0.80429     1 2px   1.01923     2 2px   0.80429     2 2px  -1.01923
   19.1     0.00000     0.87584     1 1s   -0.79244     1 1s    0.87852     1 2pz   0.35450     1 2pz  -0.29470     2 1s   -0.79244
                                    2 1s    0.87852     2 2pz  -0.35450     2 2pz   0.29470     3 1s   -0.36025     4 1s   -0.36025
                                    5 1s   -0.36025     6 1s   -0.36025
   20.1     0.00000     0.87672     1 2pz   0.74110     1 2pz  -0.69404     2 2pz   0.74110     2 2pz  -0.69404     3 1s    0.27670
                                    4 1s    0.27670     5 1s   -0.27670     6 1s   -0.27670
   21.1     0.00000     1.12539     1 1s   -0.60172     1 2pz  -0.46382     1 2pz   1.46296     2 1s    0.60172     2 2pz  -0.46382
                                    2 2pz   1.46296     3 1s    0.52871     3 1s   -0.87524     4 1s    0.52871     4 1s   -0.87524
                                    5 1s   -0.52871     5 1s    0.87524     6 1s   -0.52871     6 1s    0.87524
   22.1     0.00000     1.12788     1 1s   -1.10618     1 1s    1.73426     1 2pz  -0.26799     1 2pz   0.33764     2 1s   -1.10618
                                    2 1s    1.73426     2 2pz   0.26799     2 2pz  -0.33764     3 1s    0.37391     3 1s   -0.80559
                                    4 1s    0.37391     4 1s   -0.80559     5 1s    0.37391     5 1s   -0.80559     6 1s    0.37391
                                    6 1s   -0.80559
   23.1     0.00000     1.14038     1 2py   0.91535     1 2py  -2.76710     2 2py  -0.91535     2 2py   2.76710     3 1s    1.53035
                                    4 1s   -1.53035     5 1s   -1.53035     6 1s    1.53035
   24.1     0.00000     1.14796     1 2py   0.74108     1 2py  -1.14707     2 2py   0.74108     2 2py  -1.14707     3 1s   -0.41926
                                    3 1s    1.02117     4 1s    0.41926     4 1s   -1.02117     5 1s   -0.41926     5 1s    1.02117
                                    6 1s    0.41926     6 1s   -1.02117
   25.1     0.00000     1.29312     1 1s   -1.67328     1 1s    4.71283     1 2pz  -1.47621     2 1s    1.67328     2 1s   -4.71283
                                    2 2pz  -1.47621     3 1s   -0.56921     4 1s   -0.56921     5 1s    0.56921     6 1s    0.56921
   26.1     0.00000     1.58570     1 2py   2.80031     2 2py  -2.80031     3 1s   -0.76338     3 1s   -0.85691     4 1s    0.76338
                                    4 1s    0.85691     5 1s    0.76338     5 1s    0.85691     6 1s   -0.76338     6 1s   -0.85691
   27.1     0.00000     1.72615     1 3d1+  0.64320     2 3d1+ -0.64320
   28.1     0.00000     1.86511     1 3d2-  0.69342     2 3d2-  0.69342
   29.1     0.00000     2.06198     1 3d2-  0.72163     2 3d2- -0.72163
   30.1     0.00000     2.15685     1 2py   0.54837     1 3d1-  0.68641     2 2py   0.54837     2 3d1- -0.68641     3 1s   -0.45437
                                    4 1s    0.45437     5 1s   -0.45437     6 1s    0.45437
   31.1     0.00000     2.16890     1 1s   -0.48922     1 1s    0.50683     1 2pz   0.27588     1 3d0   0.52711     1 3d2+ -0.41881
                                    2 1s   -0.48922     2 1s    0.50683     2 2pz  -0.27588     2 3d0   0.52711     2 3d2+ -0.41881
   32.1     0.00000     2.42697     1 3d0   0.40889     1 3d2+  0.63505     2 3d0   0.40889     2 3d2+  0.63505     3 1s    0.42653
                                    4 1s    0.42653     5 1s    0.42653     6 1s    0.42653
   33.1     0.00000     2.54947     1 3d1+  0.82127     2 3d1+  0.82127
   34.1     0.00000     2.57683     1 3d1-  0.83480     2 3d1-  0.83480     3 1s   -0.26685     4 1s    0.26685     5 1s    0.26685
                                    6 1s   -0.26685
   35.1     0.00000     2.67950     1 1s    0.37953     1 1s   -1.89474     1 2pz   0.81959     1 3d2+  0.78065     2 1s   -0.37953
                                    2 1s    1.89474     2 2pz   0.81959     2 3d2+ -0.78065     3 1s    0.46580     4 1s    0.46580
                                    5 1s   -0.46580     6 1s   -0.46580
   36.1     0.00000     2.96232     1 1s    1.37524     1 2pz  -0.44798     1 2pz  -0.82937     1 3d0   0.99171     2 1s   -1.37524
                                    2 2pz  -0.44798     2 2pz  -0.82937     2 3d0  -0.99171


 HOMO      8.1    -0.333276 =      -9.0689eV
 LUMO      9.1     0.146237 =       3.9793eV
 LUMO-HOMO         0.479513 =      13.0482eV


 **********************************************************************************************************************************
 DATASETS  * FILE   NREC   LENGTH (MB)   RECORD NAMES
              1      19       30.62       500      610      700      900      950      970     1000      129      960     1100   
                                          VAR    BASINP    GEOM    SYMINP    ZMAT    AOBASIS   BASIS     P2S    ABASIS      S 
                                         1400     1410     1200     1210     1080     1600     1650     1300     1700   
                                           T        V       H0       H01     AOSYM     SMH    MOLCAS    ERIS     OPER   

              2       4        2.86       700     1000      520     2100   
                                         GEOM     BASIS   MCVARS     RHF  

 PROGRAMS   *        TOTAL    HF-SCF       INT
 CPU TIMES  *         0.46      0.10      0.26
 REAL TIME  *         0.69 SEC
 DISK USED  *        35.45 MB
 **********************************************************************************************************************************


 PROGRAM * MULTI (Direct Multiconfiguration SCF)       Authors: P.J. Knowles, H.-J. Werner (1984)


 Number of closed-shell orbitals:   7 (   7 )
 Number of active  orbitals:        2 (   2 )
 Number of external orbitals:      27 (  27 )

 State symmetry 1

 Number of electrons:     2    Spin symmetry=Singlet   Space symmetry=1
 Number of states:        3
 Number of CSFs:          3   (4 determinants, 4 intermediate states)

 Molecular orbitals read from record     2100.2  Type=RHF/CANONICAL (state 1.1)

 EXTRA SYMMETRY OF MOS IN SYMMETRY 1:   1 1 1 1 1 1 1 2 2 1   1 1 1 1 1 2 1 2 1 1   1 1 1 1 1 1 2 3 3 1   1 1 2 1 1 1

 Wavefunction dump at record             2140.2

 Convergence thresholds  0.10E-01 (gradient)  0.10E-05 (energy)  0.10E-02 (step length)

 Weight factors for state symmetry  1:    0.33333   0.33333   0.33333

 Number of orbital rotations:      257   (    14 Core/Active    189 Core/Virtual   0 Active/Active     54 Active/Virtual)
 Total number of variables:        269

 Micro-Iterations solved by the two-step solver

 ITER. MIC  NCI  NEG     ENERGY(VAR)     ENERGY(PROJ)   ENERGY CHANGE     GRAD(0)  GRAD(ORB)   GRAD(CI)     STEP       TIME

   1    3    3    0     -77.72296324     -77.72696567   -0.00400243    0.10291855 0.00000046 0.00000000  0.52D-01      0.06
   2    2    3    0     -77.72692635     -77.72692751   -0.00000116    0.00171491 0.00000058 0.00000000  0.85D-03      0.09
   3    2    3    0     -77.72692751     -77.72692751   -0.00000000    0.00000066 0.00000000 0.00000000  0.38D-06      0.13

 ** WVFN ****  CONVERGENCE REACHED, FINAL GRADIENT:  0.12D-12



 Results for state 1.1
 =====================

 !MCSCF STATE  1.1 Energy             -77.998597730417
 Nuclear energy                        31.38765835
 Kinetic energy                        77.48667801
 One electron energy                 -166.16769302
 Two electron energy                   56.78143694
 Virial ratio                           2.00660655

 !MCSCF STATE  1.1 Dipole moment        0.00000000     0.00000000     0.00000000
 Dipole moment /Debye                   0.00000000     0.00000000     0.00000000

 Results for state 2.1
 =====================

 !MCSCF STATE  2.1 Energy             -77.655925898761
 Nuclear energy                        31.38765835
 Kinetic energy                        77.71040825
 One electron energy                 -165.86171988
 Two electron energy                   56.81813563
 Virial ratio                           1.99929891

 !MCSCF STATE  2.1 Dipole moment        0.00000000     0.00000000     0.00000000
 Dipole moment /Debye                   0.00000000     0.00000000     0.00000000

 Results for state 3.1
 =====================

 !MCSCF STATE  3.1 Energy             -77.526258896311
 Nuclear energy                        31.38765835
 Kinetic energy                        77.93413848
 One electron energy                 -165.55574673
 Two electron energy                   56.64182949
 Virial ratio                           1.99476636

 !MCSCF STATE  3.1 Dipole moment        0.00000000     0.00000000    -0.00000000
 Dipole moment /Debye                   0.00000000     0.00000000    -0.00000000

 State-averaged charge density matrix saved on record  2140.2 (density set 1)

 !MCSCF trans         <2.1|DMZ|1.1>    -1.504449175823 au =    -3.823677936289 Debye
 !MCSCF trans         <3.1|DMZ|2.1>    -2.582176862482 au =    -6.562809070146 Debye


 NATURAL ORBITALS (state averaged)
 =================================

  Orbital  Occupation    Energy     Coefficients
    1.1     2.00000   -11.25633     1 1s    0.70440     2 1s    0.70440
    2.1     2.00000   -11.25572     1 1s    0.70450     2 1s   -0.70450
    3.1     2.00000    -0.99495     1 1s    0.29527     2 1s    0.29527
    4.1     2.00000    -0.77564     1 1s    0.25502     1 1s    0.30138     2 1s   -0.25502     2 1s   -0.30138
    5.1     2.00000    -0.66073     1 2py   0.31239     2 2py   0.31239
    6.1     2.00000    -0.54220     1 2py   0.31590     2 2py  -0.31590
    7.1     2.00000    -0.50423     1 2pz   0.40526     2 2pz  -0.40526
    8.1     1.00000    -0.19689     1 2px   0.33955     1 2px   0.35220     2 2px   0.33955     2 2px   0.35220
    9.1     1.00000     0.00856     1 2px   0.38393     1 2px   0.61189     2 2px  -0.38393     2 2px  -0.61189
   10.1    -0.00000     0.21778     1 1s   -1.21545     1 2pz  -0.41731     2 1s   -1.21545     2 2pz   0.41731     3 1s    0.83423
                                    4 1s    0.83423     5 1s    0.83423     6 1s    0.83423
   11.1    -0.00000     0.29043     1 2py  -0.98594     2 2py  -0.98594     3 1s    1.18494     4 1s   -1.18494     5 1s    1.18494
                                    6 1s   -1.18494
   12.1    -0.00000     0.29888     1 1s   -1.72824     2 1s    1.72824     3 1s    1.01131     4 1s    1.01131     5 1s   -1.01131
                                    6 1s   -1.01131
   13.1    -0.00000     0.37538     1 2py  -1.79795     2 2py   1.79795     3 1s    1.62769     4 1s   -1.62769     5 1s   -1.62769
                                    6 1s    1.62769
   14.1    -0.00000     0.40425     1 1s   -1.79115     1 2pz   1.87226     2 1s    1.79115     2 2pz   1.87226
   15.1    -0.00000     0.68654     1 1s    0.30463     1 2pz  -0.53754     1 2pz   0.81149     2 1s    0.30463     2 2pz   0.53754
                                    2 2pz  -0.81149
   16.1    -0.00000     0.79716     1 2px  -0.77886     1 2px   0.63168     2 2px  -0.77886     2 2px   0.63168
   17.1    -0.00000     0.85624     1 2py  -0.43789     1 2py   1.10264     2 2py  -0.43789     2 2py   1.10264     3 1s   -0.38618
                                    3 1s   -0.35655     4 1s    0.38618     4 1s    0.35655     5 1s   -0.38618     5 1s   -0.35655
                                    6 1s    0.38618     6 1s    0.35655
   18.1    -0.00000     0.86098     1 2px  -0.79143     1 2px   1.04003     2 2px   0.79143     2 2px  -1.04003
   19.1    -0.00000     0.86375     1 2pz   0.73378     1 2pz  -0.72127     2 2pz   0.73378     2 2pz  -0.72127     3 1s    0.28561
                                    4 1s    0.28561     5 1s   -0.28561     6 1s   -0.28561
   20.1    -0.00000     0.86907     1 1s   -0.80930     1 1s    0.92359     1 2pz   0.32875     1 2pz  -0.26016     2 1s   -0.80930
                                    2 1s    0.92359     2 2pz  -0.32875     2 2pz   0.26016     3 1s   -0.36539     4 1s   -0.36539
                                    5 1s   -0.36539     6 1s   -0.36539
   21.1    -0.00000     1.12162     1 1s   -0.78692     1 2pz  -0.47756     1 2pz   1.53010     2 1s    0.78692     2 2pz  -0.47756
                                    2 2pz   1.53010     3 1s    0.52446     3 1s   -0.85083     4 1s    0.52446     4 1s   -0.85083
                                    5 1s   -0.52446     5 1s    0.85083     6 1s   -0.52446     6 1s    0.85083
   22.1    -0.00000     1.12590     1 1s   -1.09818     1 1s    1.72723     1 2pz  -0.27955     1 2pz   0.34965     2 1s   -1.09818
                                    2 1s    1.72723     2 2pz   0.27955     2 2pz  -0.34965     3 1s    0.37520     3 1s   -0.80394
                                    4 1s    0.37520     4 1s   -0.80394     5 1s    0.37520     5 1s   -0.80394     6 1s    0.37520
                                    6 1s   -0.80394
   23.1    -0.00000     1.13304     1 2py   0.91330     1 2py  -2.77027     2 2py  -0.91330     2 2py   2.77027     3 1s    1.53475
                                    4 1s   -1.53475     5 1s   -1.53475     6 1s    1.53475
   24.1    -0.00000     1.13805     1 2py   0.73584     1 2py  -1.15227     2 2py   0.73584     2 2py  -1.15227     3 1s   -0.41807
                                    3 1s    1.02727     4 1s    0.41807     4 1s   -1.02727     5 1s   -0.41807     5 1s    1.02727
                                    6 1s    0.41807     6 1s   -1.02727
   25.1    -0.00000     1.28008     1 1s   -1.67626     1 1s    4.68082     1 2pz  -1.40904     2 1s    1.67626     2 1s   -4.68082
                                    2 2pz  -1.40904     3 1s   -0.60438     4 1s   -0.60438     5 1s    0.60438     6 1s    0.60438
   26.1    -0.00000     1.58019     1 2py   2.80043     2 2py  -2.80043     3 1s   -0.76239     3 1s   -0.85661     4 1s    0.76239
                                    4 1s    0.85661     5 1s    0.76239     5 1s    0.85661     6 1s   -0.76239     6 1s   -0.85661
   27.1    -0.00000     1.71035     1 3d1+  0.64311     2 3d1+ -0.64311
   28.1    -0.00000     1.85762     1 3d2-  0.69342     2 3d2-  0.69342
   29.1    -0.00000     2.04594     1 3d2-  0.72163     2 3d2- -0.72163
   30.1    -0.00000     2.14714     1 2py   0.54387     1 3d1-  0.68509     2 2py   0.54387     2 3d1- -0.68509     3 1s   -0.45732
                                    4 1s    0.45732     5 1s   -0.45732     6 1s    0.45732
   31.1    -0.00000     2.15573     1 1s   -0.48605     1 1s    0.50016     1 2pz   0.28044     1 3d0   0.53086     1 3d2+ -0.41333
                                    2 1s   -0.48605     2 1s    0.50016     2 2pz  -0.28044     2 3d0   0.53086     2 3d2+ -0.41333
   32.1    -0.00000     2.41530     1 3d0   0.40389     1 3d2+  0.63860     2 3d0   0.40389     2 3d2+  0.63860     3 1s    0.42788
                                    4 1s    0.42788     5 1s    0.42788     6 1s    0.42788
   33.1    -0.00000     2.53217     1 3d1+  0.82148     2 3d1+  0.82148
   34.1    -0.00000     2.56791     1 3d1-  0.83441     2 3d1-  0.83441     3 1s   -0.27019     4 1s    0.27019     5 1s    0.27019
                                    6 1s   -0.27019
   35.1    -0.00000     2.66704     1 1s    0.38140     1 1s   -1.90228     1 2pz   0.82194     1 3d2+  0.78034     2 1s   -0.38140
                                    2 1s    1.90228     2 2pz   0.82194     2 3d2+ -0.78034     3 1s    0.46798     4 1s    0.46798
                                    5 1s   -0.46798     6 1s   -0.46798
   36.1    -0.00000     2.95085     1 1s    1.39090     1 2pz  -0.44265     1 2pz  -0.83757     1 3d0   0.99273     2 1s   -1.39090
                                    2 2pz  -0.44265     2 2pz  -0.83757     2 3d0  -0.99273


 Natural orbital dump (state averaged) at molpro section  2140.2    (Orbital set 2)



 **********************************************************************************************************************************
 DATASETS  * FILE   NREC   LENGTH (MB)   RECORD NAMES
              1      20       31.35       500      610      700      900      950      970     1000      129      960     1100   
                                          VAR    BASINP    GEOM    SYMINP    ZMAT    AOBASIS   BASIS     P2S    ABASIS      S 
                                         1400     1410     1200     1210     1080     1600     1650     1300     1700     1380   
                                           T        V       H0       H01     AOSYM     SMH    MOLCAS    ERIS     OPER     JKOP   

              2       5        5.42       700     1000      520     2100     2140   
                                         GEOM     BASIS   MCVARS     RHF     MCSCF   

 PROGRAMS   *        TOTAL     MULTI    HF-SCF       INT
 CPU TIMES  *         0.62      0.16      0.10      0.26
 REAL TIME  *         0.88 SEC
 DISK USED  *        38.54 MB
 **********************************************************************************************************************************
 Molecular orbitals read from record     2140.2  Type=MCSCF/NATURAL (state averaged)
 Occupation numbers read from record     2140.2  Type=MCSCF/NATURAL (state averaged)
 Orbital energies read from record       2140.2  Type=MCSCF/NATURAL (state averaged)
 Redundancy group numbers read from rec  2140.2  Type=MCSCF/NATURAL (state averaged)

 MULTI/6-31G* energy=    -77.526258896311

           MULTI          HF-SCF
    -77.52625890    -77.97113476
 **********************************************************************************************************************************
 Molpro calculation terminated
