
 Primary working directories    : /scratch.local/johan406.molpro_temp/molpro.lqs4kZFS2F
 Secondary working directories  : /scratch.local/johan406.molpro_temp/molpro.lqs4kZFS2F
 Wavefunction directory         : /home/goodpast/johan406/wfu/
 Main file repository           : /scratch.local/johan406.molpro_temp/molpro.lqs4kZFS2F/

 id        : roweumn

 Nodes     nprocs
 cn0117       1

 Using customized tuning parameters: mindgm=1; mindgv=20; mindgc=4; mindgr=1; noblas=0; minvec=7
 default implementation of scratch files=df  


 Variables initialized (934), CPU time= 0.00 sec
                                                                                 !leave this line blank
 
 gprint, orbitals=30
 memory, 125., m
 symmetry, nosym
 nelect=16
 basis=6-31g*
 
 geometry={
 C -0.0 0.0 0.6624
 C 0.0 0.0 -0.6759
 H 0.0 0.9871 1.2768
 H 0.0 -0.9871 1.2768
 H 0.0 0.8427 -1.1928
 H -0.0 -0.8427 -1.1928
 }
 
 hf
 {multi,
 closed 7
 occ 9
 wf,spin=0;STATE,3
 }
 
 Commands  initialized (763), CPU time= 0.01 sec, 617 directives.
 Default parameters read. Elapsed time= 0.08 sec

 Checking input...
 Passed
1


                                         ***  PROGRAM SYSTEM MOLPRO  ***
                                       Copyright, TTI GmbH Stuttgart, 2015
                                    Version 2019.2 linked Oct 25 2019 22:50:27


 **********************************************************************************************************************************
 LABEL *                                                                                 
  64 bit serial version                                                                  DATE: 26-Jan-23          TIME: 20:44:30  
 **********************************************************************************************************************************

 SHA1:             8dbd9ae1082e4ce945b0f27595c9eb2d4aa09004
 **********************************************************************************************************************************


 Variable memory set to  125000000 words,  buffer space 

 SETTING NELECT         =        16.00000000                                  
 SETTING BASIS          =    6-31G*
 ZSYMEL=NOSYM


Geometry recognized as XYZ



 Recomputing integrals since basis changed


 Using spherical harmonics

 Library entry C      S 6-31G                selected for orbital group  1
 Library entry C      P 6-31G                selected for orbital group  1
 Library entry C      D 6-31G*               selected for orbital group  1
 Library entry H      S 6-31G                selected for orbital group  2


 PROGRAM * SEWARD (Integral evaluation for generally contracted gaussian basis sets)     Author: Roland Lindh, 1990

 Geometry written to block  1 of record 700


 Point group  C1  



 ATOMIC COORDINATES

 NR  ATOM    CHARGE       X              Y              Z

   1  C       6.00    0.000000000    0.000000000    1.251754585
   2  C       6.00    0.000000000    0.000000000   -1.277265888
   3  H       1.00    0.000000000    1.865348658    2.412802316
   4  H       1.00    0.000000000   -1.865348658    2.412802316
   5  H       1.00    0.000000000    1.592472205   -2.254065321
   6  H       1.00    0.000000000   -1.592472205   -2.254065321

 Bond lengths in Bohr (Angstrom)

 1-2  2.529020473  1-3  2.197170327  1-4  2.197170327  2-5  1.868182234  2-6  1.868182234
     ( 1.338300000)     ( 1.162692466)     ( 1.162692466)     ( 0.988599464)     ( 0.988599464)

 Bond angles

  1-2-5  121.52435104   1-2-6  121.52435104   2-1-3  121.89934581   2-1-4  121.89934581

  3-1-4  116.20130838   5-2-6  116.95129793

 NUCLEAR CHARGE:                   16
 NUMBER OF PRIMITIVE AOS:          72
 NUMBER OF SYMMETRY AOS:           70
 NUMBER OF CONTRACTIONS:           36   (   36A   )
 NUMBER OF CORE ORBITALS:           2   (    2A   )
 NUMBER OF VALENCE ORBITALS:       12   (   12A   )


 NUCLEAR REPULSION ENERGY   33.49253908

 EXTRA SYMMETRY OF AOS IN SYMMETRY 1:   1 1 1 2 1 1 2 1 1 1   3 2 1 1 1 1 1 2 1 1   2 1 1 1 3 2 1 1 1 1   1 1 1 1 1 1

 Eigenvalues of metric

         1 0.828E-02 0.164E-01 0.320E-01 0.529E-01 0.723E-01 0.192E+00 0.201E+00 0.222E+00


 Contracted 2-electron integrals neglected if value below      1.0D-11
 AO integral compression algorithm  1   Integral accuracy      1.0D-11

     0.786 MB (compressed) written to integral file ( 37.9%)


 NUMBER OF SORTED TWO-ELECTRON INTEGRALS:     222111.     BUFFER LENGTH:  32768
 NUMBER OF SEGMENTS:   1  SEGMENT LENGTH:     222111      RECORD LENGTH: 524288

 Memory used in sort:       0.78 MW

 SORT1 READ      284735. AND WROTE       98535. INTEGRALS IN      1 RECORDS. CPU TIME:     0.01 SEC, REAL TIME:     0.00 SEC
 SORT2 READ       98535. AND WROTE      222111. INTEGRALS IN      3 RECORDS. CPU TIME:     0.01 SEC, REAL TIME:     0.03 SEC

 FILE SIZES:   FILE 1:    30.9 MBYTE,  FILE 4:     4.2 MBYTE,   TOTAL:     35.1 MBYTE

 OPERATOR DM      FOR CENTER  0  COORDINATES:    0.000000    0.000000    0.000000


 **********************************************************************************************************************************
 DATASETS  * FILE   NREC   LENGTH (MB)   RECORD NAMES
              1      19       30.63       500      610      700      900      950      970     1000      129      960     1100   
                                          VAR    BASINP    GEOM    SYMINP    ZMAT    AOBASIS   BASIS     P2S    ABASIS      S 
                                         1400     1410     1200     1210     1080     1600     1650     1300     1700   
                                           T        V       H0       H01     AOSYM     SMH    MOLCAS    ERIS     OPER   

 PROGRAMS   *        TOTAL       INT
 CPU TIMES  *         0.35      0.24
 REAL TIME  *         0.57 SEC
 DISK USED  *        35.45 MB
 **********************************************************************************************************************************


 PROGRAM * RHF-SCF (CLOSED SHELL)       Authors: W. Meyer, H.-J. Werner


 NUMBER OF ELECTRONS:       8+    8-    SPACE SYMMETRY=1    SPIN SYMMETRY: Singlet 
 CONVERGENCE THRESHOLDS:    1.00E-05 (Density)    1.00E-07 (Energy)
 MAX. NUMBER OF ITERATIONS:       60
 INTERPOLATION TYPE:            DIIS
 INTERPOLATION STEPS:              2 (START)      1 (STEP)
 LEVEL SHIFTS:                  0.00 (CLOSED)  0.00 (OPEN) 



 Orbital guess generated from atomic densities. Full valence occupancy:    8

 Molecular orbital dump at record        2100.2

 Initial occupancy:   8

 ITERATION    DDIFF          GRAD             ENERGY        2-EL.EN.            DIPOLE MOMENTS         DIIS   ORB.
    1      0.000D+00      0.000D+00       -77.98124269    118.862297   -0.00000    0.00000    0.27073    0    start
    2      0.000D+00      0.919D-02       -78.00546763    116.985043    0.00000   -0.00000   -0.06841    1    diag
    3      0.922D-02      0.347D-02       -78.00829208    117.570925    0.00000   -0.00000    0.00718    2    diag
    4      0.297D-02      0.863D-03       -78.00858879    117.531798   -0.00000   -0.00000   -0.04597    3    diag
    5      0.124D-02      0.277D-03       -78.00860768    117.508457    0.00000   -0.00000   -0.04222    4    diag
    6      0.245D-03      0.588D-04       -78.00861024    117.511596    0.00000   -0.00000   -0.04710    5    diag
    7      0.133D-03      0.212D-04       -78.00861052    117.511030   -0.00000   -0.00000   -0.04835    6    diag
    8      0.440D-04      0.533D-05       -78.00861054    117.511067   -0.00000   -0.00000   -0.04872    7    diag
    9      0.149D-04      0.544D-06       -78.00861054    117.511058   -0.00000   -0.00000   -0.04872    8    diag
   10      0.111D-05      0.711D-07       -78.00861054    117.511060    0.00000   -0.00000   -0.04872    0    orth

 Final occupancy:   8

 !RHF STATE  1.1 Energy               -78.008610536608
 Nuclear energy                        33.49253908
 One-electron energy                 -170.25667986
 Two-electron energy                   58.75553024
 Virial quotient                       -0.99910621
 !RHF STATE  1.1 Dipole moment          0.00000000    -0.00000000    -0.04871773
 Dipole moment /Debye                   0.00000000    -0.00000000    -0.12382001

 ELECTRON ORBITALS
 =================

  Orbital  Occupation    Energy     Coefficients
    1.1     2.00000   -11.24308     1 1s    0.99596
    2.1     2.00000   -11.20626     2 1s    0.99579
    3.1     2.00000    -1.03107     1 1s    0.27430     2 1s    0.32775
    4.1     2.00000    -0.79425     1 1s    0.26548     1 1s    0.27714
    5.1     2.00000    -0.64722     2 2py   0.39748
    6.1     2.00000    -0.58070     1 2pz   0.41992     2 2pz  -0.38768
    7.1     2.00000    -0.50040     1 2py   0.34895
    8.1     2.00000    -0.36985     1 2px   0.37393     1 2px   0.30430     2 2px   0.37384     2 2px   0.31058
    9.1     0.00000     0.17819     1 2px   0.34471     1 2px   0.73269     2 2px  -0.34157     2 2px  -0.73209
   10.1     0.00000     0.25624     1 1s   -1.73738     1 2pz  -0.66144     2 1s   -0.89700     2 2pz   0.49817     3 1s    1.20815
                                    4 1s    1.20815     5 1s    0.63925     6 1s    0.63925
   11.1     0.00000     0.29155     1 2py   0.31674     1 2py   0.95491     2 2py   0.62191     3 1s   -1.15419     4 1s    1.15419
                                    5 1s   -0.98585     6 1s    0.98585
   12.1     0.00000     0.31515     1 1s    1.16142     2 1s   -2.74002     2 2pz   0.40718     3 1s   -0.53363     4 1s   -0.53363
                                    5 1s    1.57460     6 1s    1.57460
   13.1     0.00000     0.39183     1 2py   1.61426     2 2py  -0.28172     2 2py  -2.13555     3 1s   -1.24361     4 1s    1.24361
                                    5 1s    2.07409     6 1s   -2.07409
   14.1     0.00000     0.49119     1 1s   -3.18281     1 2pz   2.84807     2 1s    2.70380     2 2pz   3.05742     3 1s   -0.48475
                                    4 1s   -0.48475     5 1s    0.73347     6 1s    0.73347
   15.1     0.00000     0.66896     1 2pz   0.53684     1 2pz  -1.20977     2 1s   -0.58937     2 2pz  -0.57017     2 2pz   0.87144
   16.1     0.00000     0.76164     1 2py  -0.36293     1 2py   0.27238     2 2py  -0.42554     2 2py   1.33489     3 1s   -0.38841
                                    4 1s    0.38841     5 1s   -0.38055     5 1s   -0.44276     6 1s    0.38055     6 1s    0.44276
   17.1     0.00000     0.77665     1 2px  -0.76368     1 2px   0.67147     2 2px  -0.71649     2 2px   0.60759
   18.1     0.00000     0.86414     1 1s   -0.83424     1 1s    0.99522     1 2pz   0.25487     2 1s   -0.94481     2 1s    2.06125
                                    2 2pz  -0.43754     3 1s   -0.38544     4 1s   -0.38544     5 1s   -0.39586     5 1s   -0.48737
                                    6 1s   -0.39586     6 1s   -0.48737
   19.1     0.00000     0.88991     1 2px  -0.79523     1 2px   1.05596     2 2px   0.84021     2 2px  -1.09279
   20.1     0.00000     0.95385     1 1s   -0.57366     1 2pz   0.60330     1 2pz  -0.45408     2 1s    1.02509     2 2pz   0.57638
                                    2 2pz  -0.49211     3 1s    0.47456     4 1s    0.47456     5 1s   -0.30213     6 1s   -0.30213
   21.1     0.00000     1.07719     1 2py   1.06902     1 2py  -2.22796     2 2py   0.48180     3 1s   -0.43448     3 1s    1.50635
                                    4 1s    0.43448     4 1s   -1.50635
   22.1     0.00000     1.14635     1 1s   -1.16214     1 1s    1.79589     1 2pz  -0.70121     1 2pz   1.08952     2 1s   -0.31036
                                    2 1s    0.49937     2 2pz   0.43679     3 1s    0.57783     3 1s   -1.24200     4 1s    0.57783
                                    4 1s   -1.24200
   23.1     0.00000     1.20988     1 2py  -0.42896     1 2py   2.02319     2 2py   1.13771     2 2py  -3.44260     3 1s   -0.60193
                                    4 1s    0.60193     5 1s   -0.30267     5 1s    2.16622     6 1s    0.30267     6 1s   -2.16622
   24.1     0.00000     1.30907     1 1s   -0.92283     1 1s    2.94812     1 2pz  -1.26446     2 1s   -0.40231     2 1s   -0.71030
                                    2 2pz   0.76278     2 2pz  -1.93714     5 1s    0.66474     5 1s   -1.08848     6 1s    0.66474
                                    6 1s   -1.08848
   25.1     0.00000     1.34521     1 1s    1.28804     1 1s   -4.40265     1 2pz   1.59385     2 1s   -1.91880     2 1s    5.71455
                                    2 2pz   1.25912     5 1s   -0.91377     6 1s   -0.91377
   26.1     0.00000     1.47921     1 2py   2.39325     2 2py  -2.36997     3 1s   -0.69102     3 1s   -0.52519     4 1s    0.69102
                                    4 1s    0.52519     5 1s    0.69409     5 1s    0.68874     6 1s   -0.69409     6 1s   -0.68874
   27.1     0.00000     1.73800     1 3d1+ -0.61522     2 3d1+  0.62298
   28.1     0.00000     1.81955     1 3d2-  0.65249     2 3d2-  0.70895
   29.1     0.00000     2.12625     1 3d2-  0.76176     2 3d2- -0.70952
   30.1     0.00000     2.19743     1 1s    0.29253     1 1s   -0.66376     1 3d2+  0.83316     2 1s   -0.51659     2 3d2+  0.56567
                                    3 1s    0.37707     4 1s    0.37707     5 1s    0.35437     6 1s    0.35437
   31.1     0.00000     2.33481     1 3d1-  0.81046     2 2py   0.39634     2 2py   0.41760     2 3d1- -0.54862     3 1s   -0.44065
                                    4 1s    0.44065     5 1s   -0.58702     6 1s    0.58702
   32.1     0.00000     2.40414     1 1s   -0.45911     1 2pz   0.30851     1 2pz  -0.41093     1 3d0   0.67633     2 1s   -0.56630
                                    2 1s    0.34889     2 2pz  -0.26223     2 2pz   0.45642     2 3d0   0.70179
   33.1     0.00000     2.65155     1 1s   -0.34798     1 1s    1.20667     1 2pz  -0.37169     1 3d2+ -0.60854     2 1s   -1.47197
                                    2 3d2+  0.96616     3 1s   -0.29523     4 1s   -0.29523     5 1s    0.62858     6 1s    0.62858
   34.1     0.00000     2.70696     1 2px  -0.26480     1 3d1+  0.90524     2 2px   0.26377     2 3d1+  0.89998
   35.1     0.00000     3.06071     1 1s    0.30969     1 1s    2.03737     1 2pz  -0.79003     1 2pz  -1.17699     1 3d0   1.12056
                                    2 1s   -0.32113     2 1s   -1.99690     2 2pz  -0.80518     2 2pz  -1.17667     2 3d0  -1.10287
   36.1     0.00000     3.08448     1 2py   0.51448     1 3d1-  0.81867     2 2py  -0.65706     2 3d1-  1.12028     3 1s   -0.34578
                                    4 1s    0.34578     5 1s    0.65592     6 1s   -0.65592


 HOMO      8.1    -0.369848 =     -10.0641eV
 LUMO      9.1     0.178194 =       4.8489eV
 LUMO-HOMO         0.548042 =      14.9130eV


 **********************************************************************************************************************************
 DATASETS  * FILE   NREC   LENGTH (MB)   RECORD NAMES
              1      19       30.63       500      610      700      900      950      970     1000      129      960     1100   
                                          VAR    BASINP    GEOM    SYMINP    ZMAT    AOBASIS   BASIS     P2S    ABASIS      S 
                                         1400     1410     1200     1210     1080     1600     1650     1300     1700   
                                           T        V       H0       H01     AOSYM     SMH    MOLCAS    ERIS     OPER   

              2       4        2.86       700     1000      520     2100   
                                         GEOM     BASIS   MCVARS     RHF  

 PROGRAMS   *        TOTAL    HF-SCF       INT
 CPU TIMES  *         0.47      0.12      0.24
 REAL TIME  *         0.71 SEC
 DISK USED  *        35.45 MB
 **********************************************************************************************************************************


 PROGRAM * MULTI (Direct Multiconfiguration SCF)       Authors: P.J. Knowles, H.-J. Werner (1984)


 Number of closed-shell orbitals:   7 (   7 )
 Number of active  orbitals:        2 (   2 )
 Number of external orbitals:      27 (  27 )

 State symmetry 1

 Number of electrons:     2    Spin symmetry=Singlet   Space symmetry=1
 Number of states:        3
 Number of CSFs:          3   (4 determinants, 4 intermediate states)

 Molecular orbitals read from record     2100.2  Type=RHF/CANONICAL (state 1.1)

 EXTRA SYMMETRY OF MOS IN SYMMETRY 1:   1 1 1 1 1 1 1 2 2 1   1 1 1 1 1 1 2 1 2 1   1 1 1 1 1 1 2 3 3 1   1 1 1 2 1 1

 Wavefunction dump at record             2140.2

 Convergence thresholds  0.10E-01 (gradient)  0.10E-05 (energy)  0.10E-02 (step length)

 Weight factors for state symmetry  1:    0.33333   0.33333   0.33333

 Number of orbital rotations:      257   (    14 Core/Active    189 Core/Virtual   0 Active/Active     54 Active/Virtual)
 Total number of variables:        269

 Micro-Iterations solved by the two-step solver

 ITER. MIC  NCI  NEG     ENERGY(VAR)     ENERGY(PROJ)   ENERGY CHANGE     GRAD(0)  GRAD(ORB)   GRAD(CI)     STEP       TIME

   1    3    3    0     -77.70733415     -77.71356360   -0.00622946    0.13246037 0.00000154 0.00000000  0.63D-01      0.06
   2    2    3    0     -77.71346539     -77.71346915   -0.00000376    0.00303683 0.00000185 0.00000000  0.16D-02      0.09
   3    2    3    0     -77.71346915     -77.71346915   -0.00000000    0.00000216 0.00000000 0.00000000  0.13D-05      0.13

 ** WVFN ****  CONVERGENCE REACHED, FINAL GRADIENT:  0.13D-11



 Results for state 1.1
 =====================

 !MCSCF STATE  1.1 Energy             -78.026368085089
 Nuclear energy                        33.49253908
 Kinetic energy                        78.14582699
 One electron energy                 -170.38767003
 Two electron energy                   58.86876286
 Virial ratio                           1.99847133

 !MCSCF STATE  1.1 Dipole moment        0.00000000    -0.00000000    -0.03206809
 Dipole moment /Debye                   0.00000000    -0.00000000    -0.08150362

 Results for state 2.1
 =====================

 !MCSCF STATE  2.1 Energy             -77.650064119084
 Nuclear energy                        33.49253908
 Kinetic energy                        78.32726208
 One electron energy                 -169.81660036
 Two electron energy                   58.67399716
 Virial ratio                           1.99135425

 !MCSCF STATE  2.1 Dipole moment        0.00000000    -0.00000000    -0.01507809
 Dipole moment /Debye                   0.00000000    -0.00000000    -0.03832217

 Results for state 3.1
 =====================

 !MCSCF STATE  3.1 Energy             -77.463975245117
 Nuclear energy                        33.49253908
 Kinetic energy                        78.50875370
 One electron energy                 -169.24435037
 Two electron energy                   58.28783604
 Virial ratio                           1.98669220

 !MCSCF STATE  3.1 Dipole moment        0.00000000    -0.00000000    -0.07790668
 Dipole moment /Debye                   0.00000000    -0.00000000    -0.19800607

 State-averaged charge density matrix saved on record  2140.2 (density set 1)

 !MCSCF expec         <1.1|DMZ|1.1>    -0.032068091101 au =    -0.081503618981 Debye
 !MCSCF trans         <2.1|DMZ|1.1>    -1.509566035600 au =    -3.836682844760 Debye
 !MCSCF expec         <2.1|DMZ|2.1>    -0.015078091039 au =    -0.038322174622 Debye
 !MCSCF trans         <3.1|DMZ|1.1>    -0.004782568014 au =    -0.012155279213 Debye
 !MCSCF trans         <3.1|DMZ|2.1>    -2.273527284895 au =    -5.778351476744 Debye
 !MCSCF expec         <3.1|DMZ|3.1>    -0.077906683651 au =    -0.198006069035 Debye


 NATURAL ORBITALS (state averaged)
 =================================

  Orbital  Occupation    Energy     Coefficients
    1.1     2.00000   -11.25747     1 1s    0.99599
    2.1     2.00000   -11.22340     2 1s    0.99582
    3.1     2.00000    -1.04551     1 1s    0.28333     2 1s    0.33502
    4.1     2.00000    -0.80268     1 1s    0.26406     1 1s    0.31579
    5.1     2.00000    -0.66015     2 2py   0.40339
    6.1     2.00000    -0.59536     1 2pz   0.42168     2 2pz  -0.38780
    7.1     2.00000    -0.50693     1 2py   0.35596
    8.1     1.00000     0.03327     1 2px   0.38248     1 2px   0.68571     2 2px  -0.37971     2 2px  -0.68499
    9.1     1.00000    -0.22588     1 2px   0.35814     1 2px   0.31617     2 2px   0.35877     2 2px   0.32162
   10.1    -0.00000     0.25365     1 1s   -1.75240     1 2pz  -0.65196     2 1s   -0.87668     2 2pz   0.51679     3 1s    1.20571
                                    4 1s    1.20571     5 1s    0.64199     6 1s    0.64199
   11.1    -0.00000     0.28297     1 2py   0.31595     1 2py   0.94495     2 2py   0.61217     3 1s   -1.14778     4 1s    1.14778
                                    5 1s   -0.97430     6 1s    0.97430
   12.1    -0.00000     0.31204     1 1s    1.17993     2 1s   -2.75424     2 2pz   0.39898     3 1s   -0.53000     4 1s   -0.53000
                                    5 1s    1.56962     6 1s    1.56962
   13.1    -0.00000     0.38788     1 2py   1.60034     2 2py  -0.28600     2 2py  -2.12004     3 1s   -1.23620     4 1s    1.23620
                                    5 1s    2.06718     6 1s   -2.06718
   14.1    -0.00000     0.48837     1 1s   -3.15302     1 2pz   2.83119     2 1s    2.69539     2 2pz   3.03595     3 1s   -0.49699
                                    4 1s   -0.49699     5 1s    0.73539     6 1s    0.73539
   15.1    -0.00000     0.65766     1 1s   -0.27294     1 2pz   0.52506     1 2pz  -1.18783     2 1s   -0.47389     2 2pz  -0.56564
                                    2 2pz   0.84611
   16.1    -0.00000     0.75115     1 2py  -0.37620     1 2py   0.27805     2 2py  -0.43500     2 2py   1.34535     3 1s   -0.38234
                                    4 1s    0.38234     5 1s   -0.37709     5 1s   -0.45152     6 1s    0.37709     6 1s    0.45152
   17.1    -0.00000     0.77069     1 2px  -0.76799     1 2px   0.66438     2 2px  -0.72560     2 2px   0.60420
   18.1    -0.00000     0.86089     1 1s   -0.82412     1 1s    1.00035     1 2pz   0.28188     2 1s   -0.94282     2 1s    2.11694
                                    2 2pz  -0.50212     3 1s   -0.36997     4 1s   -0.36997     5 1s   -0.40921     5 1s   -0.50567
                                    6 1s   -0.40921     6 1s   -0.50567
   19.1    -0.00000     0.87233     1 2px  -0.78131     1 2px   1.08804     2 2px   0.82299     2 2px  -1.12167
   20.1    -0.00000     0.93572     1 1s   -0.46501     1 2pz   0.61256     1 2pz  -0.55774     2 1s    0.79005     2 2pz   0.57707
                                    2 2pz  -0.55746     3 1s    0.48242     4 1s    0.48242     5 1s   -0.29120     6 1s   -0.29120
   21.1    -0.00000     1.06362     1 2py   1.05340     1 2py  -2.22197     2 2py   0.46047     3 1s   -0.43633     3 1s    1.51442
                                    4 1s    0.43633     4 1s   -1.51442
   22.1    -0.00000     1.14435     1 1s   -1.13756     1 1s    1.71515     1 2pz  -0.70673     1 2pz   1.12233     2 1s   -0.33226
                                    2 1s    0.58795     2 2pz   0.45605     3 1s    0.58324     3 1s   -1.23901     4 1s    0.58324
                                    4 1s   -1.23901
   23.1    -0.00000     1.19586     1 2py  -0.44414     1 2py   2.03387     2 2py   1.12910     2 2py  -3.43757     3 1s   -0.61639
                                    4 1s    0.61639     5 1s   -0.30657     5 1s    2.17215     6 1s    0.30657     6 1s   -2.17215
   24.1    -0.00000     1.29900     1 1s   -1.21111     1 1s    3.92568     1 2pz   0.27268     1 2pz  -1.59950     2 1s   -2.05594
                                    2 2pz   0.73792     2 2pz  -2.18231     5 1s    0.59894     5 1s   -0.83569     6 1s    0.59894
                                    6 1s   -0.83569
   25.1    -0.00000     1.33153     1 1s    1.04679     1 1s   -3.60427     1 2pz   1.23085     2 1s   -1.95528     2 1s    5.38837
                                    2 2pz   0.74835     5 1s    0.33855     5 1s   -1.15322     6 1s    0.33855     6 1s   -1.15322
   26.1    -0.00000     1.47005     1 2py   2.40032     2 2py  -2.39102     3 1s   -0.69452     3 1s   -0.52369     4 1s    0.69452
                                    4 1s    0.52369     5 1s    0.68861     5 1s    0.70280     6 1s   -0.68861     6 1s   -0.70280
   27.1    -0.00000     1.71236     1 3d1+ -0.61405     2 3d1+  0.62361
   28.1    -0.00000     1.80569     1 3d2-  0.64926     2 3d2-  0.71195
   29.1    -0.00000     2.10330     1 3d2-  0.76452     2 3d2- -0.70651
   30.1    -0.00000     2.18222     1 1s    0.29027     1 1s   -0.66462     1 3d2+  0.83283     2 1s   -0.50697     2 3d2+  0.56493
                                    3 1s    0.37939     4 1s    0.37939     5 1s    0.35553     6 1s    0.35553
   31.1    -0.00000     2.31890     1 3d1-  0.80825     2 2py   0.40199     2 2py   0.41475     2 3d1- -0.54756     3 1s   -0.44330
                                    4 1s    0.44330     5 1s   -0.59111     6 1s    0.59111
   32.1    -0.00000     2.38415     1 1s   -0.45784     1 2pz   0.31607     1 2pz  -0.41251     1 3d0   0.67493     2 1s   -0.56364
                                    2 1s    0.34817     2 2pz  -0.26640     2 2pz   0.46050     2 3d0   0.70297
   33.1    -0.00000     2.63174     1 1s   -0.34897     1 1s    1.21169     1 2pz  -0.37017     1 3d2+ -0.60808     2 1s   -1.47629
                                    2 3d2+  0.96522     3 1s   -0.29760     4 1s   -0.29760     5 1s    0.63250     6 1s    0.63250
   34.1    -0.00000     2.68450     1 2px  -0.26560     1 3d1+  0.90621     2 2px   0.26448     2 3d1+  0.89978
   35.1    -0.00000     3.04276     1 1s    0.30190     1 1s    2.06318     1 2pz  -0.78228     1 2pz  -1.19094     1 3d0   1.12313
                                    2 1s   -0.31482     2 1s   -2.02279     2 2pz  -0.79773     2 2pz  -1.18959     2 3d0  -1.10358
   36.1    -0.00000     3.07156     1 2py   0.51510     1 3d1-  0.81940     2 2py  -0.65627     2 3d1-  1.11894     3 1s   -0.34799
                                    4 1s    0.34799     5 1s    0.65818     6 1s   -0.65818


 Natural orbital dump (state averaged) at molpro section  2140.2    (Orbital set 2)



 **********************************************************************************************************************************
 DATASETS  * FILE   NREC   LENGTH (MB)   RECORD NAMES
              1      20       31.36       500      610      700      900      950      970     1000      129      960     1100   
                                          VAR    BASINP    GEOM    SYMINP    ZMAT    AOBASIS   BASIS     P2S    ABASIS      S 
                                         1400     1410     1200     1210     1080     1600     1650     1300     1700     1380   
                                           T        V       H0       H01     AOSYM     SMH    MOLCAS    ERIS     OPER     JKOP   

              2       5        5.42       700     1000      520     2100     2140   
                                         GEOM     BASIS   MCVARS     RHF     MCSCF   

 PROGRAMS   *        TOTAL     MULTI    HF-SCF       INT
 CPU TIMES  *         0.63      0.16      0.12      0.24
 REAL TIME  *         0.90 SEC
 DISK USED  *        38.55 MB
 **********************************************************************************************************************************
 Molecular orbitals read from record     2140.2  Type=MCSCF/NATURAL (state averaged)
 Occupation numbers read from record     2140.2  Type=MCSCF/NATURAL (state averaged)
 Orbital energies read from record       2140.2  Type=MCSCF/NATURAL (state averaged)
 Redundancy group numbers read from rec  2140.2  Type=MCSCF/NATURAL (state averaged)

 MULTI/6-31G* energy=    -77.463975245117

           MULTI          HF-SCF
    -77.46397525    -78.00861054
 **********************************************************************************************************************************
 Molpro calculation terminated
