
 Primary working directories    : /scratch.local/johan406.molpro_temp/molpro.lRkJfLF4NK
 Secondary working directories  : /scratch.local/johan406.molpro_temp/molpro.lRkJfLF4NK
 Wavefunction directory         : /home/goodpast/johan406/wfu/
 Main file repository           : /scratch.local/johan406.molpro_temp/molpro.lRkJfLF4NK/

 id        : roweumn

 Nodes     nprocs
 cn0117       1

 Using customized tuning parameters: mindgm=1; mindgv=20; mindgc=4; mindgr=1; noblas=0; minvec=7
 default implementation of scratch files=df  


 Variables initialized (934), CPU time= 0.00 sec
                                                                                 !leave this line blank
 
 gprint, orbitals=30
 memory, 125., m
 symmetry, nosym
 nelect=16
 basis=6-31g*
 
 geometry={
 C -0.0 0.0 0.6538
 C 0.0 0.0 -0.6845
 H 0.0 1.08 1.3308
 H 0.0 -1.08 1.3308
 H 0.0 0.7498 -1.1388
 H -0.0 -0.7498 -1.1388
 }
 
 hf
 {multi,
 closed 7
 occ 9
 wf,spin=0;STATE,3
 }
 
 Commands  initialized (763), CPU time= 0.01 sec, 617 directives.
 Default parameters read. Elapsed time= 0.08 sec

 Checking input...
 Passed
1


                                         ***  PROGRAM SYSTEM MOLPRO  ***
                                       Copyright, TTI GmbH Stuttgart, 2015
                                    Version 2019.2 linked Oct 25 2019 22:50:27


 **********************************************************************************************************************************
 LABEL *                                                                                 
  64 bit serial version                                                                  DATE: 26-Jan-23          TIME: 20:49:43  
 **********************************************************************************************************************************

 SHA1:             8dbd9ae1082e4ce945b0f27595c9eb2d4aa09004
 **********************************************************************************************************************************


 Variable memory set to  125000000 words,  buffer space 

 SETTING NELECT         =        16.00000000                                  
 SETTING BASIS          =    6-31G*
 ZSYMEL=NOSYM


Geometry recognized as XYZ



 Recomputing integrals since basis changed


 Using spherical harmonics

 Library entry C      S 6-31G                selected for orbital group  1
 Library entry C      P 6-31G                selected for orbital group  1
 Library entry C      D 6-31G*               selected for orbital group  1
 Library entry H      S 6-31G                selected for orbital group  2


 PROGRAM * SEWARD (Integral evaluation for generally contracted gaussian basis sets)     Author: Roland Lindh, 1990

 Geometry written to block  1 of record 700


 Point group  C1  



 ATOMIC COORDINATES

 NR  ATOM    CHARGE       X              Y              Z

   1  C       6.00    0.000000000    0.000000000    1.235502940
   2  C       6.00    0.000000000    0.000000000   -1.293517532
   3  H       1.00    0.000000000    2.040904215    2.514847527
   4  H       1.00    0.000000000   -2.040904215    2.514847527
   5  H       1.00    0.000000000    1.416916648   -2.152020111
   6  H       1.00    0.000000000   -1.416916648   -2.152020111

 Bond lengths in Bohr (Angstrom)

 1-2  2.529020473  1-3  2.408736719  1-4  2.408736719  2-5  1.656707417  2-6  1.656707417
     ( 1.338300000)     ( 1.274648579)     ( 1.274648579)     ( 0.876691810)     ( 0.876691810)

 Bond angles

  1-2-5  121.21145872   1-2-6  121.21145872   2-1-3  122.08161871   2-1-4  122.08161871

  3-1-4  115.83676258   5-2-6  117.57708255

 NUCLEAR CHARGE:                   16
 NUMBER OF PRIMITIVE AOS:          72
 NUMBER OF SYMMETRY AOS:           70
 NUMBER OF CONTRACTIONS:           36   (   36A   )
 NUMBER OF CORE ORBITALS:           2   (    2A   )
 NUMBER OF VALENCE ORBITALS:       12   (   12A   )


 NUCLEAR REPULSION ENERGY   33.87222474

 EXTRA SYMMETRY OF AOS IN SYMMETRY 1:   1 1 1 2 1 1 2 1 1 1   3 2 1 1 1 1 1 2 1 1   2 1 1 1 3 2 1 1 1 1   1 1 1 1 1 1

 Eigenvalues of metric

         1 0.809E-02 0.135E-01 0.230E-01 0.669E-01 0.772E-01 0.165E+00 0.183E+00 0.199E+00


 Contracted 2-electron integrals neglected if value below      1.0D-11
 AO integral compression algorithm  1   Integral accuracy      1.0D-11

     0.786 MB (compressed) written to integral file ( 37.8%)


 NUMBER OF SORTED TWO-ELECTRON INTEGRALS:     222111.     BUFFER LENGTH:  32768
 NUMBER OF SEGMENTS:   1  SEGMENT LENGTH:     222111      RECORD LENGTH: 524288

 Memory used in sort:       0.78 MW

 SORT1 READ      284735. AND WROTE       98535. INTEGRALS IN      1 RECORDS. CPU TIME:     0.00 SEC, REAL TIME:     0.00 SEC
 SORT2 READ       98535. AND WROTE      222111. INTEGRALS IN      3 RECORDS. CPU TIME:     0.02 SEC, REAL TIME:     0.03 SEC

 FILE SIZES:   FILE 1:    30.9 MBYTE,  FILE 4:     4.2 MBYTE,   TOTAL:     35.1 MBYTE

 OPERATOR DM      FOR CENTER  0  COORDINATES:    0.000000    0.000000    0.000000


 **********************************************************************************************************************************
 DATASETS  * FILE   NREC   LENGTH (MB)   RECORD NAMES
              1      19       30.63       500      610      700      900      950      970     1000      129      960     1100   
                                          VAR    BASINP    GEOM    SYMINP    ZMAT    AOBASIS   BASIS     P2S    ABASIS      S 
                                         1400     1410     1200     1210     1080     1600     1650     1300     1700   
                                           T        V       H0       H01     AOSYM     SMH    MOLCAS    ERIS     OPER   

 PROGRAMS   *        TOTAL       INT
 CPU TIMES  *         0.36      0.26
 REAL TIME  *         0.56 SEC
 DISK USED  *        35.45 MB
 **********************************************************************************************************************************


 PROGRAM * RHF-SCF (CLOSED SHELL)       Authors: W. Meyer, H.-J. Werner


 NUMBER OF ELECTRONS:       8+    8-    SPACE SYMMETRY=1    SPIN SYMMETRY: Singlet 
 CONVERGENCE THRESHOLDS:    1.00E-05 (Density)    1.00E-07 (Energy)
 MAX. NUMBER OF ITERATIONS:       60
 INTERPOLATION TYPE:            DIIS
 INTERPOLATION STEPS:              2 (START)      1 (STEP)
 LEVEL SHIFTS:                  0.00 (CLOSED)  0.00 (OPEN) 



 Orbital guess generated from atomic densities. Full valence occupancy:    8

 Molecular orbital dump at record        2100.2

 Initial occupancy:   8

 ITERATION    DDIFF          GRAD             ENERGY        2-EL.EN.            DIPOLE MOMENTS         DIIS   ORB.
    1      0.000D+00      0.000D+00       -77.86461907    119.473506   -0.00000   -0.00000    0.63843    0    start
    2      0.000D+00      0.115D-01       -77.89888894    117.421402    0.00000   -0.00000   -0.15434    1    diag
    3      0.130D-01      0.536D-02       -77.90510584    117.901748   -0.00000    0.00000    0.00733    2    diag
    4      0.415D-02      0.114D-02       -77.90569470    117.976644   -0.00000    0.00000   -0.08480    3    diag
    5      0.166D-02      0.468D-03       -77.90576110    117.913811    0.00000   -0.00000   -0.09135    4    diag
    6      0.457D-03      0.123D-03       -77.90577268    117.915898    0.00000    0.00000   -0.10212    5    diag
    7      0.302D-03      0.361D-04       -77.90577345    117.915021   -0.00000    0.00000   -0.10416    6    diag
    8      0.877D-04      0.385D-05       -77.90577346    117.914986   -0.00000    0.00000   -0.10431    7    diag
    9      0.103D-04      0.572D-06       -77.90577346    117.914980   -0.00000    0.00000   -0.10429    8    diag
   10      0.107D-05      0.915D-07       -77.90577346    117.914983   -0.00000    0.00000   -0.10429    0    orth

 Final occupancy:   8

 !RHF STATE  1.1 Energy               -77.905773458825
 Nuclear energy                        33.87222474
 One-electron energy                 -170.73548987
 Two-electron energy                   58.95749167
 Virial quotient                       -0.99471256
 !RHF STATE  1.1 Dipole moment         -0.00000000     0.00000000    -0.10428743
 Dipole moment /Debye                  -0.00000000     0.00000000    -0.26505484

 ELECTRON ORBITALS
 =================

  Orbital  Occupation    Energy     Coefficients
    1.1     2.00000   -11.26720     1 1s    0.99624
    2.1     2.00000   -11.18688     2 1s    0.99583
    3.1     2.00000    -1.04830     2 1s    0.35511
    4.1     2.00000    -0.80188     1 1s    0.29380     1 1s    0.30677     2 2pz   0.29417
    5.1     2.00000    -0.67795     2 2py   0.46391
    6.1     2.00000    -0.57274     1 2pz   0.42500     2 2pz  -0.35815
    7.1     2.00000    -0.48277     1 2py   0.36314     1 2py   0.25794
    8.1     2.00000    -0.37253     1 2px   0.37589     1 2px   0.29869     2 2px   0.37726     2 2px   0.31172
    9.1     0.00000     0.17653     1 2px   0.35067     1 2px   0.72746     2 2px  -0.34495     2 2px  -0.72439
   10.1     0.00000     0.22608     1 1s   -1.52037     1 2pz  -0.59034     2 1s   -0.54715     2 2pz   0.35390     3 1s    1.09910
                                    4 1s    1.09910     5 1s    0.38213     6 1s    0.38213
   11.1     0.00000     0.27918     1 2py   0.37976     1 2py   1.04155     2 2py   0.38189     3 1s   -1.12146     4 1s    1.12146
                                    5 1s   -0.78754     6 1s    0.78754
   12.1     0.00000     0.32589     1 1s    0.82259     1 2pz  -0.37800     2 1s   -3.51374     2 2pz   0.49874     5 1s    1.96487
                                    6 1s    1.96487
   13.1     0.00000     0.39347     1 2py   1.29309     2 2py  -0.29991     2 2py  -2.43298     3 1s   -0.84433     4 1s    0.84433
                                    5 1s    2.70393     6 1s   -2.70393
   14.1     0.00000     0.49327     1 1s   -3.32642     1 2pz   2.70729     2 1s    2.18269     2 2pz   3.17361     3 1s   -0.38354
                                    4 1s   -0.38354     5 1s    0.97770     6 1s    0.97770
   15.1     0.00000     0.66720     1 1s    0.40227     1 2pz   0.50518     1 2pz  -1.40189     2 1s   -1.05349     2 2pz  -0.58096
                                    2 2pz   0.69492
   16.1     0.00000     0.75877     1 2py  -0.31289     1 2py  -0.26280     2 2py  -0.44161     2 2py   2.13567     3 1s   -0.38413
                                    3 1s    0.45643     4 1s    0.38413     4 1s   -0.45643     5 1s   -0.36911     5 1s   -1.11067
                                    6 1s    0.36911     6 1s    1.11067
   17.1     0.00000     0.77392     1 2px  -0.78620     1 2px   0.70399     2 2px  -0.69016     2 2px   0.57569
   18.1     0.00000     0.87038     1 1s   -0.78468     1 1s    0.58389     2 1s   -1.01076     2 1s    3.03105     2 2pz  -0.61169
                                    3 1s   -0.34465     4 1s   -0.34465     5 1s   -0.39139     5 1s   -0.94059     6 1s   -0.39139
                                    6 1s   -0.94059
   19.1     0.00000     0.88709     1 2px  -0.76889     1 2px   1.03994     2 2px   0.86002     2 2px  -1.11507
   20.1     0.00000     0.95300     1 2pz   0.56345     1 2pz  -0.45503     2 1s    0.95138     2 2pz   0.50574     2 2pz  -0.51119
                                    3 1s    0.60161     3 1s   -0.34624     4 1s    0.60161     4 1s   -0.34624     5 1s   -0.35772
                                    6 1s   -0.35772
   21.1     0.00000     1.02008     1 2py  -1.06228     1 2py   2.05589     2 2py  -0.45784     3 1s    0.43627     3 1s   -1.33683
                                    4 1s   -0.43627     4 1s    1.33683
   22.1     0.00000     1.07999     1 1s   -1.15273     1 1s    1.77934     1 2pz  -0.74213     1 2pz   1.03345     2 1s   -0.27168
                                    2 2pz  -0.33093     2 2pz   0.48008     3 1s    0.47602     3 1s   -1.12393     4 1s    0.47602
                                    4 1s   -1.12393
   23.1     0.00000     1.29415     1 2py   0.45899     1 2py  -2.30733     2 2py  -1.02494     2 2py   4.12788     3 1s    0.43431
                                    3 1s    0.44059     4 1s   -0.43431     4 1s   -0.44059     5 1s   -2.75247     6 1s    2.75247
   24.1     0.00000     1.33068     1 1s   -1.57195     1 1s    5.16944     1 2pz   0.26233     1 2pz  -2.03045     2 1s    1.19451
                                    2 1s   -4.95712     2 2pz   0.48836     2 2pz  -2.20930     5 1s    0.25452     6 1s    0.25452
   25.1     0.00000     1.47874     1 1s    0.39610     2 1s    1.60556     2 1s   -3.36368     2 2pz  -0.59951     2 2pz   0.75060
                                    2 3d2+  0.28051     5 1s   -0.66082     5 1s    1.55306     6 1s   -0.66082     6 1s    1.55306
   26.1     0.00000     1.50363     1 2py   1.72261     2 2py  -0.46627     2 2py  -1.40560     2 3d1- -0.31949     3 1s   -0.61411
                                    3 1s   -0.25241     4 1s    0.61411     4 1s    0.25241     5 1s    0.67647     5 1s    0.25805
                                    6 1s   -0.67647     6 1s   -0.25805
   27.1     0.00000     1.73338     1 3d1+ -0.61050     2 3d1+  0.62797
   28.1     0.00000     1.81070     1 3d2-  0.61531     2 3d2-  0.74208
   29.1     0.00000     2.12037     1 3d2-  0.79210     2 3d2- -0.67480
   30.1     0.00000     2.16037     1 1s    0.33684     1 1s   -0.63567     1 3d2+  0.92066     2 1s   -0.41456     2 3d2+  0.38401
                                    3 1s    0.34390     4 1s    0.34390     5 1s    0.33205     6 1s    0.33205
   31.1     0.00000     2.35059     1 2py  -0.26609     1 3d1-  0.92003     2 2py   0.56674     2 2py   0.66758     2 3d1- -0.32771
                                    3 1s   -0.32407     4 1s    0.32407     5 1s   -0.65742     6 1s    0.65742
   32.1     0.00000     2.39347     1 1s   -0.44376     1 2pz   0.34147     1 2pz  -0.37076     1 3d0   0.65969     2 1s   -0.61660
                                    2 1s    0.58237     2 2pz   0.42300     2 3d0   0.71702
   33.1     0.00000     2.70247     1 2px  -0.26476     1 3d1+  0.90846     2 2px   0.26217     2 3d1+  0.89657
   34.1     0.00000     2.75379     1 1s   -0.34010     1 1s    1.08659     1 2pz  -0.46298     1 3d2+ -0.41069     2 1s   -1.56664
                                    2 2pz   0.31315     2 3d2+  1.11071     5 1s    0.91175     6 1s    0.91175
   35.1     0.00000     3.05541     1 1s    0.30655     1 1s    2.02945     1 2pz  -0.78426     1 2pz  -1.16544     1 3d0   1.12938
                                    2 1s   -0.31759     2 1s   -1.92878     2 2pz  -0.82628     2 2pz  -1.16919     2 3d0  -1.09244
   36.1     0.00000     3.17260     1 2py   0.49049     1 3d1-  0.62822     2 2py  -0.42641     2 2py  -0.80790     2 3d1-  1.29828
                                    5 1s    0.96603     6 1s   -0.96603


 HOMO      8.1    -0.372533 =     -10.1371eV
 LUMO      9.1     0.176532 =       4.8037eV
 LUMO-HOMO         0.549065 =      14.9408eV


 **********************************************************************************************************************************
 DATASETS  * FILE   NREC   LENGTH (MB)   RECORD NAMES
              1      19       30.63       500      610      700      900      950      970     1000      129      960     1100   
                                          VAR    BASINP    GEOM    SYMINP    ZMAT    AOBASIS   BASIS     P2S    ABASIS      S 
                                         1400     1410     1200     1210     1080     1600     1650     1300     1700   
                                           T        V       H0       H01     AOSYM     SMH    MOLCAS    ERIS     OPER   

              2       4        2.86       700     1000      520     2100   
                                         GEOM     BASIS   MCVARS     RHF  

 PROGRAMS   *        TOTAL    HF-SCF       INT
 CPU TIMES  *         0.48      0.12      0.26
 REAL TIME  *         0.70 SEC
 DISK USED  *        35.45 MB
 **********************************************************************************************************************************


 PROGRAM * MULTI (Direct Multiconfiguration SCF)       Authors: P.J. Knowles, H.-J. Werner (1984)


 Number of closed-shell orbitals:   7 (   7 )
 Number of active  orbitals:        2 (   2 )
 Number of external orbitals:      27 (  27 )

 State symmetry 1

 Number of electrons:     2    Spin symmetry=Singlet   Space symmetry=1
 Number of states:        3
 Number of CSFs:          3   (4 determinants, 4 intermediate states)

 Molecular orbitals read from record     2100.2  Type=RHF/CANONICAL (state 1.1)

 EXTRA SYMMETRY OF MOS IN SYMMETRY 1:   1 1 1 1 1 1 1 2 2 1   1 1 1 1 1 1 2 1 2 1   1 1 1 1 1 1 2 3 3 1   1 1 2 1 1 1

 Wavefunction dump at record             2140.2

 Convergence thresholds  0.10E-01 (gradient)  0.10E-05 (energy)  0.10E-02 (step length)

 Weight factors for state symmetry  1:    0.33333   0.33333   0.33333

 Number of orbital rotations:      257   (    14 Core/Active    189 Core/Virtual   0 Active/Active     54 Active/Virtual)
 Total number of variables:        269

 Micro-Iterations solved by the two-step solver

 ITER. MIC  NCI  NEG     ENERGY(VAR)     ENERGY(PROJ)   ENERGY CHANGE     GRAD(0)  GRAD(ORB)   GRAD(CI)     STEP       TIME

   1    3    3    0     -77.60390087     -77.61006961   -0.00616874    0.13179003 0.00000155 0.00000000  0.63D-01      0.07
   2    2    3    0     -77.60997273     -77.60997646   -0.00000373    0.00300764 0.00000185 0.00000000  0.16D-02      0.10
   3    2    3    0     -77.60997646     -77.60997646   -0.00000000    0.00000218 0.00000000 0.00000000  0.13D-05      0.13

 ** WVFN ****  CONVERGENCE REACHED, FINAL GRADIENT:  0.13D-11



 Results for state 1.1
 =====================

 !MCSCF STATE  1.1 Energy             -77.923878210807
 Nuclear energy                        33.87222474
 Kinetic energy                        78.38365780
 One electron energy                 -170.86170696
 Two electron energy                   59.06560401
 Virial ratio                           1.99413424

 !MCSCF STATE  1.1 Dipole moment        0.00000000    -0.00000000    -0.06804777
 Dipole moment /Debye                   0.00000000    -0.00000000    -0.17294886

 Results for state 2.1
 =====================

 !MCSCF STATE  2.1 Energy             -77.545941040176
 Nuclear energy                        33.87222474
 Kinetic energy                        78.57035985
 One electron energy                 -170.30067569
 Two electron energy                   58.88250991
 Virial ratio                           1.98696177

 !MCSCF STATE  2.1 Dipole moment        0.00000000    -0.00000000    -0.02593674
 Dipole moment /Debye                   0.00000000    -0.00000000    -0.06592030

 Results for state 3.1
 =====================

 !MCSCF STATE  3.1 Energy             -77.360110131982
 Nuclear energy                        33.87222474
 Kinetic energy                        78.75709442
 One electron energy                 -169.73250588
 Two electron energy                   58.50017101
 Virial ratio                           1.98226211

 !MCSCF STATE  3.1 Dipole moment        0.00000000    -0.00000000    -0.18001785
 Dipole moment /Debye                   0.00000000    -0.00000000    -0.45752976

 State-averaged charge density matrix saved on record  2140.2 (density set 1)

 !MCSCF expec         <1.1|DMZ|1.1>    -0.068047773979 au =    -0.172948861389 Debye
 !MCSCF trans         <2.1|DMZ|1.1>    -1.505671961685 au =    -3.826785744380 Debye
 !MCSCF expec         <2.1|DMZ|2.1>    -0.025936741571 au =    -0.065920303642 Debye
 !MCSCF trans         <3.1|DMZ|1.1>    -0.011785752655 au =    -0.029954433232 Debye
 !MCSCF trans         <3.1|DMZ|2.1>    -2.272473642711 au =    -5.775673560842 Debye
 !MCSCF expec         <3.1|DMZ|3.1>    -0.180017846054 au =    -0.457529757174 Debye


 NATURAL ORBITALS (state averaged)
 =================================

  Orbital  Occupation    Energy     Coefficients
    1.1     2.00000   -11.27929     1 1s    0.99622
    2.1     2.00000   -11.20538     2 1s    0.99582
    3.1     2.00000    -1.06169     2 1s    0.36239
    4.1     2.00000    -0.81243     1 1s    0.29110     1 1s    0.33473     2 2pz   0.30131
    5.1     2.00000    -0.69137     2 2py   0.47025
    6.1     2.00000    -0.58560     1 2pz   0.42475     2 2pz  -0.35572
    7.1     2.00000    -0.48879     1 2py   0.37122     1 2py   0.27384
    8.1     1.00000     0.03141     1 2px   0.38815     1 2px   0.68033     2 2px  -0.38326     2 2px  -0.67699
    9.1     1.00000    -0.22810     1 2px   0.35952     1 2px   0.31113     2 2px   0.36239     2 2px   0.32256
   10.1    -0.00000     0.22405     1 1s   -1.54797     1 2pz  -0.57189     2 1s   -0.51921     2 2pz   0.37684     3 1s    1.09716
                                    4 1s    1.09716     5 1s    0.38651     6 1s    0.38651
   11.1    -0.00000     0.27026     1 2py   0.37875     1 2py   1.02778     2 2py   0.37785     3 1s   -1.11485     4 1s    1.11485
                                    5 1s   -0.77789     6 1s    0.77789
   12.1    -0.00000     0.32282     1 1s    0.82170     1 2pz  -0.38502     2 1s   -3.51284     2 2pz   0.51207     5 1s    1.96450
                                    6 1s    1.96450
   13.1    -0.00000     0.39020     1 2py   1.28197     2 2py  -0.30390     2 2py  -2.41314     3 1s   -0.83892     4 1s    0.83892
                                    5 1s    2.69263     6 1s   -2.69263
   14.1    -0.00000     0.49020     1 1s   -3.29355     1 2pz   2.69060     2 1s    2.20539     2 2pz   3.14533     3 1s   -0.39551
                                    4 1s   -0.39551     5 1s    0.96197     6 1s    0.96197
   15.1    -0.00000     0.65629     1 1s   -0.27928     1 1s    0.44232     1 2pz   0.48818     1 2pz  -1.38079     2 1s   -0.90470
                                    2 2pz  -0.58035     2 2pz   0.66838
   16.1    -0.00000     0.74842     1 2py  -0.32855     1 2py  -0.25747     2 2py  -0.44880     2 2py   2.15263     3 1s   -0.37612
                                    3 1s    0.44850     4 1s    0.37612     4 1s   -0.44850     5 1s   -0.36689     5 1s   -1.12586
                                    6 1s    0.36689     6 1s    1.12586
   17.1    -0.00000     0.76828     1 2px  -0.78690     1 2px   0.69297     2 2px  -0.70372     2 2px   0.57654
   18.1    -0.00000     0.86540     1 1s   -0.77448     1 1s    0.60046     2 1s   -1.00906     2 1s    3.11050     2 2pz  -0.69931
                                    3 1s   -0.30186     4 1s   -0.30186     5 1s   -0.41040     5 1s   -0.97717     6 1s   -0.41040
                                    6 1s   -0.97717
   19.1    -0.00000     0.86971     1 2px  -0.75814     1 2px   1.07501     2 2px   0.83973     2 2px  -1.14108
   20.1    -0.00000     0.93826     1 2pz   0.57871     1 2pz  -0.58036     2 1s    0.56801     2 2pz   0.50452     2 2pz  -0.54905
                                    3 1s    0.61137     3 1s   -0.32506     4 1s    0.61137     4 1s   -0.32506     5 1s   -0.28666
                                    6 1s   -0.28666
   21.1    -0.00000     1.00850     1 2py  -1.05160     1 2py   2.07079     2 2py  -0.47547     3 1s    0.43763     3 1s   -1.35065
                                    4 1s   -0.43763     4 1s    1.35065
   22.1    -0.00000     1.07815     1 1s   -1.13346     1 1s    1.69531     1 2pz  -0.73966     1 2pz   1.06875     2 1s   -0.29307
                                    2 1s    0.26520     2 2pz  -0.31716     2 2pz   0.49390     3 1s    0.49250     3 1s   -1.13019
                                    4 1s    0.49250     4 1s   -1.13019
   23.1    -0.00000     1.28148     1 2py   0.46360     1 2py  -2.27378     2 2py  -1.02780     2 2py   4.09950     3 1s    0.41847
                                    3 1s    0.43792     4 1s   -0.41847     4 1s   -0.43792     5 1s   -2.75582     6 1s    2.75582
   24.1    -0.00000     1.31134     1 1s   -1.58766     1 1s    5.19478     1 2pz   0.25375     1 2pz  -2.01579     2 1s    1.21032
                                    2 1s   -4.99748     2 2pz   0.47781     2 2pz  -2.19464
   25.1    -0.00000     1.47266     1 1s    0.35756     2 1s    1.58881     2 1s   -3.32973     2 2pz  -0.61095     2 2pz   0.78250
                                    2 3d2+  0.28788     5 1s   -0.65737     5 1s    1.55787     6 1s   -0.65737     6 1s    1.55787
   26.1    -0.00000     1.49121     1 2py   1.76256     2 2py  -0.43253     2 2py  -1.48914     2 3d1- -0.32171     3 1s   -0.62814
                                    3 1s   -0.25399     4 1s    0.62814     4 1s    0.25399     5 1s    0.66745     5 1s    0.31375
                                    6 1s   -0.66745     6 1s   -0.31375
   27.1    -0.00000     1.70805     1 3d1+ -0.60811     2 3d1+  0.62981
   28.1    -0.00000     1.79689     1 3d2-  0.60766     2 3d2-  0.74854
   29.1    -0.00000     2.09819     1 3d2-  0.79799     2 3d2- -0.66762
   30.1    -0.00000     2.14603     1 1s    0.33623     1 1s   -0.64199     1 3d2+  0.92037     2 1s   -0.39755     2 3d2+  0.38292
                                    3 1s    0.34634     4 1s    0.34634     5 1s    0.33185     6 1s    0.33185
   31.1    -0.00000     2.33592     1 2py  -0.27254     1 3d1-  0.91802     2 2py   0.57018     2 2py   0.66699     2 3d1- -0.32737
                                    3 1s   -0.32590     4 1s    0.32590     5 1s   -0.66150     6 1s    0.66150
   32.1    -0.00000     2.37389     1 1s   -0.44280     1 2pz   0.35092     1 2pz  -0.37020     1 3d0   0.65665     2 1s   -0.61332
                                    2 1s    0.58480     2 2pz   0.42913     2 3d0   0.72008
   33.1    -0.00000     2.68034     1 2px  -0.26558     1 3d1+  0.91021     2 2px   0.26281     2 3d1+  0.89558
   34.1    -0.00000     2.73413     1 1s   -0.34169     1 1s    1.08705     1 2pz  -0.46035     1 3d2+ -0.41022     2 1s   -1.56350
                                    2 2pz   0.31727     2 3d2+  1.10940     5 1s    0.91703     6 1s    0.91703
   35.1    -0.00000     3.03783     1 1s    0.29770     1 1s    2.05630     1 2pz  -0.77609     1 2pz  -1.18046     1 3d0   1.13327
                                    2 1s   -0.31308     2 1s   -1.95615     2 2pz  -0.81839     2 2pz  -1.18152     2 3d0  -1.09179
   36.1    -0.00000     3.15929     1 2py   0.49122     1 3d1-  0.63009     2 2py  -0.43181     2 2py  -0.80582     2 3d1-  1.29627
                                    5 1s    0.96821     6 1s   -0.96821


 Natural orbital dump (state averaged) at molpro section  2140.2    (Orbital set 2)



 **********************************************************************************************************************************
 DATASETS  * FILE   NREC   LENGTH (MB)   RECORD NAMES
              1      20       31.36       500      610      700      900      950      970     1000      129      960     1100   
                                          VAR    BASINP    GEOM    SYMINP    ZMAT    AOBASIS   BASIS     P2S    ABASIS      S 
                                         1400     1410     1200     1210     1080     1600     1650     1300     1700     1380   
                                           T        V       H0       H01     AOSYM     SMH    MOLCAS    ERIS     OPER     JKOP   

              2       5        5.42       700     1000      520     2100     2140   
                                         GEOM     BASIS   MCVARS     RHF     MCSCF   

 PROGRAMS   *        TOTAL     MULTI    HF-SCF       INT
 CPU TIMES  *         0.65      0.17      0.12      0.26
 REAL TIME  *         0.89 SEC
 DISK USED  *        38.55 MB
 **********************************************************************************************************************************
 Molecular orbitals read from record     2140.2  Type=MCSCF/NATURAL (state averaged)
 Occupation numbers read from record     2140.2  Type=MCSCF/NATURAL (state averaged)
 Orbital energies read from record       2140.2  Type=MCSCF/NATURAL (state averaged)
 Redundancy group numbers read from rec  2140.2  Type=MCSCF/NATURAL (state averaged)

 MULTI/6-31G* energy=    -77.360110131982

           MULTI          HF-SCF
    -77.36011013    -77.90577346
 **********************************************************************************************************************************
 Molpro calculation terminated
