
 Primary working directories    : /scratch.local/johan406.molpro_temp/molpro.tmazIFjAf4
 Secondary working directories  : /scratch.local/johan406.molpro_temp/molpro.tmazIFjAf4
 Wavefunction directory         : /home/goodpast/johan406/wfu/
 Main file repository           : /scratch.local/johan406.molpro_temp/molpro.tmazIFjAf4/

 id        : roweumn

 Nodes     nprocs
 cn0117       1

 Using customized tuning parameters: mindgm=1; mindgv=20; mindgc=4; mindgr=1; noblas=0; minvec=7
 default implementation of scratch files=df  


 Variables initialized (934), CPU time= 0.01 sec
                                                                                 !leave this line blank
 
 gprint, orbitals=30
 memory, 125., m
 symmetry, nosym
 nelect=16
 basis=6-31g*
 
 geometry={
 C -0.0 0.0 0.6685
 C 0.0 0.0 -0.6685
 H 0.0 0.9201 1.2379
 H -0.0 -0.9201 1.2379
 H 0.0 0.9201 -1.2379
 H 0.0 -0.9201 -1.2379
 }
 
 hf
 {multi,
 closed 7
 occ 9
 wf,spin=0;STATE,3
 }
 
 Commands  initialized (763), CPU time= 0.01 sec, 617 directives.
 Default parameters read. Elapsed time= 0.08 sec

 Checking input...
 Passed
1


                                         ***  PROGRAM SYSTEM MOLPRO  ***
                                       Copyright, TTI GmbH Stuttgart, 2015
                                    Version 2019.2 linked Oct 25 2019 22:50:27


 **********************************************************************************************************************************
 LABEL *                                                                                 
  64 bit serial version                                                                  DATE: 26-Jan-23          TIME: 20:50:23  
 **********************************************************************************************************************************

 SHA1:             8dbd9ae1082e4ce945b0f27595c9eb2d4aa09004
 **********************************************************************************************************************************


 Variable memory set to  125000000 words,  buffer space 

 SETTING NELECT         =        16.00000000                                  
 SETTING BASIS          =    6-31G*
 ZSYMEL=NOSYM


Geometry recognized as XYZ



 Recomputing integrals since basis changed


 Using spherical harmonics

 Library entry C      S 6-31G                selected for orbital group  1
 Library entry C      P 6-31G                selected for orbital group  1
 Library entry C      D 6-31G*               selected for orbital group  1
 Library entry H      S 6-31G                selected for orbital group  2


 PROGRAM * SEWARD (Integral evaluation for generally contracted gaussian basis sets)     Author: Roland Lindh, 1990

 Geometry written to block  1 of record 700


 Point group  C1  



 ATOMIC COORDINATES

 NR  ATOM    CHARGE       X              Y              Z

   1  C       6.00    0.000000000    0.000000000    1.263281914
   2  C       6.00    0.000000000    0.000000000   -1.263281914
   3  H       1.00    0.000000000    1.738737007    2.339291970
   4  H       1.00    0.000000000   -1.738737007    2.339291970
   5  H       1.00    0.000000000    1.738737007   -2.339291970
   6  H       1.00    0.000000000   -1.738737007   -2.339291970

 Bond lengths in Bohr (Angstrom)

 1-2  2.526563829  1-3  2.044750356  1-4  2.044750356  2-5  2.044750356  2-6  2.044750356
     ( 1.337000000)     ( 1.082035291)     ( 1.082035291)     ( 1.082035291)     ( 1.082035291)

 Bond angles

  1-2-5  121.75111865   1-2-6  121.75111865   2-1-3  121.75111865   2-1-4  121.75111865

  3-1-4  116.49776270   5-2-6  116.49776270

 NUCLEAR CHARGE:                   16
 NUMBER OF PRIMITIVE AOS:          72
 NUMBER OF SYMMETRY AOS:           70
 NUMBER OF CONTRACTIONS:           36   (   36A   )
 NUMBER OF CORE ORBITALS:           2   (    2A   )
 NUMBER OF VALENCE ORBITALS:       12   (   12A   )


 NUCLEAR REPULSION ENERGY   33.33134606

 EXTRA SYMMETRY OF AOS IN SYMMETRY 1:   1 1 1 2 1 1 2 1 1 1   3 2 1 1 1 1 1 2 1 1   2 1 1 1 3 2 1 1 1 1   1 1 1 1 1 1

 Eigenvalues of metric

         1 0.829E-02 0.175E-01 0.383E-01 0.468E-01 0.721E-01 0.192E+00 0.212E+00 0.225E+00


 Contracted 2-electron integrals neglected if value below      1.0D-11
 AO integral compression algorithm  1   Integral accuracy      1.0D-11

     0.786 MB (compressed) written to integral file ( 37.8%)


 NUMBER OF SORTED TWO-ELECTRON INTEGRALS:     222111.     BUFFER LENGTH:  32768
 NUMBER OF SEGMENTS:   1  SEGMENT LENGTH:     222111      RECORD LENGTH: 524288

 Memory used in sort:       0.78 MW

 SORT1 READ      284735. AND WROTE       98271. INTEGRALS IN      1 RECORDS. CPU TIME:     0.00 SEC, REAL TIME:     0.01 SEC
 SORT2 READ       98271. AND WROTE      222111. INTEGRALS IN      3 RECORDS. CPU TIME:     0.02 SEC, REAL TIME:     0.02 SEC

 FILE SIZES:   FILE 1:    30.9 MBYTE,  FILE 4:     4.2 MBYTE,   TOTAL:     35.1 MBYTE

 OPERATOR DM      FOR CENTER  0  COORDINATES:    0.000000    0.000000    0.000000


 **********************************************************************************************************************************
 DATASETS  * FILE   NREC   LENGTH (MB)   RECORD NAMES
              1      19       30.63       500      610      700      900      950      970     1000      129      960     1100   
                                          VAR    BASINP    GEOM    SYMINP    ZMAT    AOBASIS   BASIS     P2S    ABASIS      S 
                                         1400     1410     1200     1210     1080     1600     1650     1300     1700   
                                           T        V       H0       H01     AOSYM     SMH    MOLCAS    ERIS     OPER   

 PROGRAMS   *        TOTAL       INT
 CPU TIMES  *         0.34      0.24
 REAL TIME  *         0.56 SEC
 DISK USED  *        35.45 MB
 **********************************************************************************************************************************


 PROGRAM * RHF-SCF (CLOSED SHELL)       Authors: W. Meyer, H.-J. Werner


 NUMBER OF ELECTRONS:       8+    8-    SPACE SYMMETRY=1    SPIN SYMMETRY: Singlet 
 CONVERGENCE THRESHOLDS:    1.00E-05 (Density)    1.00E-07 (Energy)
 MAX. NUMBER OF ITERATIONS:       60
 INTERPOLATION TYPE:            DIIS
 INTERPOLATION STEPS:              2 (START)      1 (STEP)
 LEVEL SHIFTS:                  0.00 (CLOSED)  0.00 (OPEN) 



 Orbital guess generated from atomic densities. Full valence occupancy:    8

 Molecular orbital dump at record        2100.2

 Initial occupancy:   8

 ITERATION    DDIFF          GRAD             ENERGY        2-EL.EN.            DIPOLE MOMENTS         DIIS   ORB.
    1      0.000D+00      0.000D+00       -78.00652941    118.592136    0.00000    0.00000   -0.00000    0    start
    2      0.000D+00      0.857D-02       -78.02839546    116.746836   -0.00000    0.00000    0.00000    1    diag
    3      0.817D-02      0.292D-02       -78.03053264    117.381874    0.00000    0.00000   -0.00000    2    diag
    4      0.265D-02      0.713D-03       -78.03074296    117.282468   -0.00000    0.00000    0.00000    3    diag
    5      0.107D-02      0.684D-04       -78.03074510    117.285456    0.00000   -0.00000   -0.00000    4    diag
    6      0.147D-03      0.833D-05       -78.03074514    117.285013    0.00000    0.00000    0.00000    5    diag
    7      0.161D-04      0.120D-05       -78.03074514    117.285021    0.00000    0.00000    0.00000    6    diag
    8      0.183D-05      0.144D-06       -78.03074514    117.285015    0.00000    0.00000    0.00000    0    orth

 Final occupancy:   8

 !RHF STATE  1.1 Energy               -78.030745136685
 Nuclear energy                        33.33134606
 One-electron energy                 -170.00459869
 Two-electron energy                   58.64250749
 Virial quotient                       -1.00054756
 !RHF STATE  1.1 Dipole moment          0.00000000     0.00000000     0.00000000
 Dipole moment /Debye                   0.00000000     0.00000000     0.00000000

 ELECTRON ORBITALS
 =================

  Orbital  Occupation    Energy     Coefficients
    1.1     2.00000   -11.22653     1 1s    0.70419     2 1s    0.70419
    2.1     2.00000   -11.22492     1 1s    0.70455     2 1s   -0.70455
    3.1     2.00000    -1.02638     1 1s    0.30220     2 1s    0.30220
    4.1     2.00000    -0.78960     1 1s    0.24378
    5.1     2.00000    -0.63669     1 2py   0.32105     2 2py   0.32105
    6.1     2.00000    -0.58229     1 2pz   0.40651     2 2pz  -0.40651
    7.1     2.00000    -0.50358     1 2py   0.30402     2 2py  -0.30402
    8.1     2.00000    -0.36980     1 2px   0.37357     1 2px   0.30752     2 2px   0.37357     2 2px   0.30752
    9.1     0.00000     0.17884     1 2px   0.34207     1 2px   0.73461     2 2px  -0.34207     2 2px  -0.73461
   10.1     0.00000     0.26523     1 1s   -1.48064     1 2pz  -0.64441     2 1s   -1.48064     2 2pz   0.64441     3 1s    1.03253
                                    4 1s    1.03253     5 1s    1.03253     6 1s    1.03253
   11.1     0.00000     0.29245     1 2py  -0.25289     1 2py  -0.80248     2 2py  -0.25289     2 2py  -0.80248     3 1s    1.08999
                                    4 1s   -1.08999     5 1s    1.08999     6 1s   -1.08999
   12.1     0.00000     0.30773     1 1s    1.91079     2 1s   -1.91079     3 1s   -1.06791     4 1s   -1.06791     5 1s    1.06791
                                    6 1s    1.06791
   13.1     0.00000     0.39088     1 2py  -1.86829     2 2py   1.86829     3 1s    1.61584     4 1s   -1.61584     5 1s   -1.61584
                                    6 1s    1.61584
   14.1     0.00000     0.49087     1 1s   -3.02528     1 2pz   2.95922     2 1s    3.02528     2 2pz   2.95922     3 1s   -0.58109
                                    4 1s   -0.58109     5 1s    0.58109     6 1s    0.58109
   15.1     0.00000     0.66920     1 2pz  -0.55679     1 2pz   1.03702     2 2pz   0.55679     2 2pz  -1.03702
   16.1     0.00000     0.76466     1 2py  -0.40010     1 2py   0.76424     2 2py  -0.40010     2 2py   0.76424     3 1s   -0.38816
                                    4 1s    0.38816     5 1s   -0.38816     6 1s    0.38816
   17.1     0.00000     0.77657     1 2px  -0.74018     1 2px   0.63960     2 2px  -0.74018     2 2px   0.63960
   18.1     0.00000     0.86295     1 1s   -0.88271     1 1s    1.44495     1 2pz   0.34153     2 1s   -0.88271     2 1s    1.44495
                                    2 2pz  -0.34153     3 1s   -0.39866     4 1s   -0.39866     5 1s   -0.39866     6 1s   -0.39866
   19.1     0.00000     0.89024     1 2px  -0.81867     1 2px   1.07433     2 2px   0.81867     2 2px  -1.07433
   20.1     0.00000     0.95518     1 1s   -0.84235     1 2pz   0.59995     1 2pz  -0.45676     2 1s    0.84235     2 2pz   0.59995
                                    2 2pz  -0.45676     3 1s    0.38767     4 1s    0.38767     5 1s   -0.38767     6 1s   -0.38767
   21.1     0.00000     1.11178     1 2py  -0.68874     1 2py   1.09872     2 2py  -0.68874     2 2py   1.09872     3 1s    0.38125
                                    3 1s   -1.05825     4 1s   -0.38125     4 1s    1.05825     5 1s    0.38125     5 1s   -1.05825
                                    6 1s   -0.38125     6 1s    1.05825
   22.1     0.00000     1.15772     1 2py   0.92395     1 2py  -2.88896     2 2py  -0.92395     2 2py   2.88896     3 1s    1.48393
                                    4 1s   -1.48393     5 1s   -1.48393     6 1s    1.48393
   23.1     0.00000     1.21032     1 1s    1.03664     1 1s   -1.72230     1 2pz   0.36373     1 2pz  -0.49457     2 1s    1.03664
                                    2 1s   -1.72230     2 2pz  -0.36373     2 2pz   0.49457     3 1s   -0.43843     3 1s    0.86408
                                    4 1s   -0.43843     4 1s    0.86408     5 1s   -0.43843     5 1s    0.86408     6 1s   -0.43843
                                    6 1s    0.86408
   24.1     0.00000     1.21706     1 1s   -0.54183     1 1s    0.55659     1 2pz  -0.62691     1 2pz   1.21144     2 1s    0.54183
                                    2 1s   -0.55659     2 2pz  -0.62691     2 2pz   1.21144     3 1s    0.46476     3 1s   -0.97059
                                    4 1s    0.46476     4 1s   -0.97059     5 1s   -0.46476     5 1s    0.97059     6 1s   -0.46476
                                    6 1s    0.97059
   25.1     0.00000     1.33953     1 1s   -1.58646     1 1s    5.37928     1 2pz   0.26827     1 2pz  -1.93202     2 1s    1.58646
                                    2 1s   -5.37928     2 2pz   0.26827     2 2pz  -1.93202     3 1s   -0.31604     4 1s   -0.31604
                                    5 1s    0.31604     6 1s    0.31604
   26.1     0.00000     1.47223     1 2py   2.56719     2 2py  -2.56719     3 1s   -0.69503     3 1s   -0.67449     4 1s    0.69503
                                    4 1s    0.67449     5 1s    0.69503     5 1s    0.67449     6 1s   -0.69503     6 1s   -0.67449
   27.1     0.00000     1.73966     1 3d1+  0.61888     2 3d1+ -0.61888
   28.1     0.00000     1.82190     1 3d2-  0.68110     2 3d2-  0.68110
   29.1     0.00000     2.12901     1 3d2-  0.73634     2 3d2- -0.73634
   30.1     0.00000     2.20257     1 1s   -0.60245     1 3d2+  0.71361     2 1s   -0.60245     2 3d2+  0.71361     3 1s    0.37140
                                    4 1s    0.37140     5 1s    0.37140     6 1s    0.37140
   31.1     0.00000     2.32446     1 2py   0.27174     1 3d1-  0.68994     2 2py   0.27174     2 3d1- -0.68994     3 1s   -0.51358
                                    4 1s    0.51358     5 1s   -0.51358     6 1s    0.51358
   32.1     0.00000     2.40871     1 1s   -0.50824     1 2pz   0.28457     1 2pz  -0.44595     1 3d0   0.69121     2 1s   -0.50824
                                    2 2pz  -0.28457     2 2pz   0.44595     2 3d0   0.69121
   33.1     0.00000     2.62026     1 1s    0.29490     1 1s   -1.34035     1 2pz   0.27196     1 3d2+  0.79751     2 1s   -0.29490
                                    2 1s    1.34035     2 2pz   0.27196     2 3d2+ -0.79751     3 1s    0.43978     4 1s    0.43978
                                    5 1s   -0.43978     6 1s   -0.43978
   34.1     0.00000     2.70951     1 2px  -0.26474     1 3d1+  0.90345     2 2px   0.26474     2 3d1+  0.90345
   35.1     0.00000     3.05704     1 2py   0.54999     1 3d1-  0.96911     2 2py  -0.54999     2 3d1-  0.96911     3 1s   -0.47145
                                    4 1s    0.47145     5 1s    0.47145     6 1s   -0.47145
   36.1     0.00000     3.06380     1 1s    0.31938     1 1s    2.02859     1 2pz  -0.79945     1 2pz  -1.17932     1 3d0   1.11283
                                    2 1s   -0.31938     2 1s   -2.02859     2 2pz  -0.79945     2 2pz  -1.17932     2 3d0  -1.11283


 HOMO      8.1    -0.369803 =     -10.0629eV
 LUMO      9.1     0.178843 =       4.8666eV
 LUMO-HOMO         0.548647 =      14.9294eV


 **********************************************************************************************************************************
 DATASETS  * FILE   NREC   LENGTH (MB)   RECORD NAMES
              1      19       30.63       500      610      700      900      950      970     1000      129      960     1100   
                                          VAR    BASINP    GEOM    SYMINP    ZMAT    AOBASIS   BASIS     P2S    ABASIS      S 
                                         1400     1410     1200     1210     1080     1600     1650     1300     1700   
                                           T        V       H0       H01     AOSYM     SMH    MOLCAS    ERIS     OPER   

              2       4        2.86       700     1000      520     2100   
                                         GEOM     BASIS   MCVARS     RHF  

 PROGRAMS   *        TOTAL    HF-SCF       INT
 CPU TIMES  *         0.44      0.10      0.24
 REAL TIME  *         0.69 SEC
 DISK USED  *        35.45 MB
 **********************************************************************************************************************************


 PROGRAM * MULTI (Direct Multiconfiguration SCF)       Authors: P.J. Knowles, H.-J. Werner (1984)


 Number of closed-shell orbitals:   7 (   7 )
 Number of active  orbitals:        2 (   2 )
 Number of external orbitals:      27 (  27 )

 State symmetry 1

 Number of electrons:     2    Spin symmetry=Singlet   Space symmetry=1
 Number of states:        3
 Number of CSFs:          3   (4 determinants, 4 intermediate states)

 Molecular orbitals read from record     2100.2  Type=RHF/CANONICAL (state 1.1)

 EXTRA SYMMETRY OF MOS IN SYMMETRY 1:   1 1 1 1 1 1 1 2 2 1   1 1 1 1 1 1 2 1 2 1   1 1 1 1 1 1 2 3 3 1   1 1 1 2 1 1

 Wavefunction dump at record             2140.2

 Convergence thresholds  0.10E-01 (gradient)  0.10E-05 (energy)  0.10E-02 (step length)

 Weight factors for state symmetry  1:    0.33333   0.33333   0.33333

 Number of orbital rotations:      257   (    14 Core/Active    189 Core/Virtual   0 Active/Active     54 Active/Virtual)
 Total number of variables:        269

 Micro-Iterations solved by the two-step solver

 ITER. MIC  NCI  NEG     ENERGY(VAR)     ENERGY(PROJ)   ENERGY CHANGE     GRAD(0)  GRAD(ORB)   GRAD(CI)     STEP       TIME

   1    3    3    0     -77.72893357     -77.73521393   -0.00628036    0.13291542 0.00000157 0.00000000  0.63D-01      0.06
   2    2    3    0     -77.73511405     -77.73511789   -0.00000384    0.00307247 0.00000190 0.00000000  0.16D-02      0.09
   3    2    3    0     -77.73511790     -77.73511790   -0.00000000    0.00000221 0.00000000 0.00000000  0.14D-05      0.13

 ** WVFN ****  CONVERGENCE REACHED, FINAL GRADIENT:  0.13D-11



 Results for state 1.1
 =====================

 !MCSCF STATE  1.1 Energy             -78.048332151144
 Nuclear energy                        33.33134606
 Kinetic energy                        78.05694433
 One electron energy                 -170.13910951
 Two electron energy                   58.75943129
 Virial ratio                           1.99988967

 !MCSCF STATE  1.1 Dipole moment        0.00000000    -0.00000000     0.00000000
 Dipole moment /Debye                   0.00000000    -0.00000000     0.00000000

 Results for state 2.1
 =====================

 !MCSCF STATE  2.1 Energy             -77.671927580722
 Nuclear energy                        33.33134606
 Kinetic energy                        78.23660639
 One electron energy                 -169.56286501
 Two electron energy                   58.55959136
 Virial ratio                           1.99278242

 !MCSCF STATE  2.1 Dipole moment        0.00000000    -0.00000000     0.00000000
 Dipole moment /Debye                   0.00000000    -0.00000000     0.00000000

 Results for state 3.1
 =====================

 !MCSCF STATE  3.1 Energy             -77.485093958157
 Nuclear energy                        33.33134606
 Kinetic energy                        78.41626846
 One electron energy                 -168.98662051
 Two electron energy                   58.17018049
 Virial ratio                           1.98812524

 !MCSCF STATE  3.1 Dipole moment        0.00000000    -0.00000000    -0.00000000
 Dipole moment /Debye                   0.00000000    -0.00000000    -0.00000000

 State-averaged charge density matrix saved on record  2140.2 (density set 1)

 !MCSCF trans         <2.1|DMZ|1.1>    -1.510194699677 au =    -3.838280644804 Debye
 !MCSCF trans         <3.1|DMZ|2.1>    -2.270680408133 au =    -5.771115911703 Debye


 NATURAL ORBITALS (state averaged)
 =================================

  Orbital  Occupation    Energy     Coefficients
    1.1     2.00000   -11.24228     1 1s    0.70420     2 1s    0.70420
    2.1     2.00000   -11.24095     1 1s    0.70451     2 1s   -0.70451
    3.1     2.00000    -1.04124     1 1s    0.31022     2 1s    0.31022
    4.1     2.00000    -0.79741     1 1s    0.28939     2 1s   -0.28939
    5.1     2.00000    -0.64954     1 2py   0.32680     2 2py   0.32680
    6.1     2.00000    -0.59733     1 2pz   0.40815     2 2pz  -0.40815
    7.1     2.00000    -0.51014     1 2py   0.31056     2 2py  -0.31056
    8.1     1.00000     0.03393     1 2px   0.38014     1 2px   0.68747     2 2px  -0.38014     2 2px  -0.68747
    9.1     1.00000    -0.22578     1 2px   0.35819     1 2px   0.31893     2 2px   0.35819     2 2px   0.31893
   10.1    -0.00000     0.26252     1 1s   -1.47673     1 2pz  -0.65009     2 1s   -1.47673     2 2pz   0.65009     3 1s    1.03213
                                    4 1s    1.03213     5 1s    1.03213     6 1s    1.03213
   11.1    -0.00000     0.28392     1 2py  -0.25124     1 2py  -0.79267     2 2py  -0.25124     2 2py  -0.79267     3 1s    1.08146
                                    4 1s   -1.08146     5 1s    1.08146     6 1s   -1.08146
   12.1    -0.00000     0.30461     1 1s    1.93538     2 1s   -1.93538     3 1s   -1.06239     4 1s   -1.06239     5 1s    1.06239
                                    6 1s    1.06239
   13.1    -0.00000     0.38664     1 2py  -0.25265     1 2py  -1.85384     2 2py   0.25265     2 2py   1.85384     3 1s    1.60902
                                    4 1s   -1.60902     5 1s   -1.60902     6 1s    1.60902
   14.1    -0.00000     0.48813     1 1s   -3.00238     1 2pz   2.94116     2 1s    3.00238     2 2pz   2.94116     3 1s   -0.59065
                                    4 1s   -0.59065     5 1s    0.59065     6 1s    0.59065
   15.1    -0.00000     0.65767     1 1s    0.26155     1 2pz  -0.54846     1 2pz   1.01365     2 1s    0.26155     2 2pz   0.54846
                                    2 2pz  -1.01365
   16.1    -0.00000     0.75420     1 2py  -0.41163     1 2py   0.77201     2 2py  -0.41163     2 2py   0.77201     3 1s   -0.38336
                                    4 1s    0.38336     5 1s   -0.38336     6 1s    0.38336
   17.1    -0.00000     0.77058     1 2px  -0.74679     1 2px   0.63434     2 2px  -0.74679     2 2px   0.63434
   18.1    -0.00000     0.86026     1 1s   -0.87595     1 1s    1.46857     1 2pz   0.38788     2 1s   -0.87595     2 1s    1.46857
                                    2 2pz  -0.38788     3 1s   -0.40019     4 1s   -0.40019     5 1s   -0.40019     6 1s   -0.40019
   19.1    -0.00000     0.87261     1 2px  -0.80305     1 2px   1.10490     2 2px   0.80305     2 2px  -1.10490
   20.1    -0.00000     0.93628     1 1s   -0.68417     1 2pz   0.60496     1 2pz  -0.54198     2 1s    0.68417     2 2pz   0.60496
                                    2 2pz  -0.54198     3 1s    0.38747     4 1s    0.38747     5 1s   -0.38747     6 1s   -0.38747
   21.1    -0.00000     1.09630     1 2py  -0.67699     1 2py   1.10011     2 2py  -0.67699     2 2py   1.10011     3 1s    0.38215
                                    3 1s   -1.06726     4 1s   -0.38215     4 1s    1.06726     5 1s    0.38215     5 1s   -1.06726
                                    6 1s   -0.38215     6 1s    1.06726
   22.1    -0.00000     1.14511     1 2py   0.92086     1 2py  -2.89475     2 2py  -0.92086     2 2py   2.89475     3 1s    1.49216
                                    4 1s   -1.49216     5 1s   -1.49216     6 1s    1.49216
   23.1    -0.00000     1.20707     1 1s    1.03172     1 1s   -1.71845     1 2pz   0.36744     1 2pz  -0.50030     2 1s    1.03172
                                    2 1s   -1.71845     2 2pz  -0.36744     2 2pz   0.50030     3 1s   -0.43902     3 1s    0.86374
                                    4 1s   -0.43902     4 1s    0.86374     5 1s   -0.43902     5 1s    0.86374     6 1s   -0.43902
                                    6 1s    0.86374
   24.1    -0.00000     1.21480     1 1s   -0.48358     1 1s    0.36352     1 2pz  -0.63968     1 2pz   1.28281     2 1s    0.48358
                                    2 1s   -0.36352     2 2pz  -0.63968     2 2pz   1.28281     3 1s    0.46755     3 1s   -0.95835
                                    4 1s    0.46755     4 1s   -0.95835     5 1s   -0.46755     5 1s    0.95835     6 1s   -0.46755
                                    6 1s    0.95835
   25.1    -0.00000     1.31970     1 1s   -1.60723     1 1s    5.40864     1 2pz  -1.88503     2 1s    1.60723     2 1s   -5.40864
                                    2 2pz  -1.88503     3 1s   -0.35329     4 1s   -0.35329     5 1s    0.35329     6 1s    0.35329
   26.1    -0.00000     1.46373     1 2py   2.56988     2 2py  -2.56988     3 1s   -0.69391     3 1s   -0.67536     4 1s    0.69391
                                    4 1s    0.67536     5 1s    0.69391     5 1s    0.67536     6 1s   -0.69391     6 1s   -0.67536
   27.1    -0.00000     1.71393     1 3d1+  0.61861     2 3d1+ -0.61861
   28.1    -0.00000     1.80803     1 3d2-  0.68110     2 3d2-  0.68110
   29.1    -0.00000     2.10589     1 3d2-  0.73634     2 3d2- -0.73634
   30.1    -0.00000     2.18716     1 1s   -0.59840     1 3d2+  0.71318     2 1s   -0.59840     2 3d2+  0.71318     3 1s    0.37330
                                    4 1s    0.37330     5 1s    0.37330     6 1s    0.37330
   31.1    -0.00000     2.30819     1 2py   0.27865     1 3d1-  0.68819     2 2py   0.27865     2 3d1- -0.68819     3 1s   -0.51700
                                    4 1s    0.51700     5 1s   -0.51700     6 1s    0.51700
   32.1    -0.00000     2.38861     1 1s   -0.50629     1 2pz   0.29050     1 2pz  -0.44867     1 3d0   0.69102     2 1s   -0.50629
                                    2 2pz  -0.29050     2 2pz   0.44867     2 3d0   0.69102
   33.1    -0.00000     2.60048     1 1s    0.29579     1 1s   -1.34659     1 2pz   0.27084     1 3d2+  0.79676     2 1s   -0.29579
                                    2 1s    1.34659     2 2pz   0.27084     2 3d2+ -0.79676     3 1s    0.44285     4 1s    0.44285
                                    5 1s   -0.44285     6 1s   -0.44285
   34.1    -0.00000     2.68699     1 2px  -0.26551     1 3d1+  0.90384     2 2px   0.26551     2 3d1+  0.90384
   35.1    -0.00000     3.04422     1 2py   0.55005     1 3d1-  0.96873     2 2py  -0.55005     2 3d1-  0.96873     3 1s   -0.47373
                                    4 1s    0.47373     5 1s    0.47373     6 1s   -0.47373
   36.1    -0.00000     3.04576     1 1s    0.31227     1 1s    2.05424     1 2pz  -0.79192     1 2pz  -1.19276     1 3d0   1.11448
                                    2 1s   -0.31227     2 1s   -2.05424     2 2pz  -0.79192     2 2pz  -1.19276     2 3d0  -1.11448


 Natural orbital dump (state averaged) at molpro section  2140.2    (Orbital set 2)



 **********************************************************************************************************************************
 DATASETS  * FILE   NREC   LENGTH (MB)   RECORD NAMES
              1      20       31.36       500      610      700      900      950      970     1000      129      960     1100   
                                          VAR    BASINP    GEOM    SYMINP    ZMAT    AOBASIS   BASIS     P2S    ABASIS      S 
                                         1400     1410     1200     1210     1080     1600     1650     1300     1700     1380   
                                           T        V       H0       H01     AOSYM     SMH    MOLCAS    ERIS     OPER     JKOP   

              2       5        5.42       700     1000      520     2100     2140   
                                         GEOM     BASIS   MCVARS     RHF     MCSCF   

 PROGRAMS   *        TOTAL     MULTI    HF-SCF       INT
 CPU TIMES  *         0.61      0.16      0.10      0.24
 REAL TIME  *         0.88 SEC
 DISK USED  *        38.55 MB
 **********************************************************************************************************************************
 Molecular orbitals read from record     2140.2  Type=MCSCF/NATURAL (state averaged)
 Occupation numbers read from record     2140.2  Type=MCSCF/NATURAL (state averaged)
 Orbital energies read from record       2140.2  Type=MCSCF/NATURAL (state averaged)
 Redundancy group numbers read from rec  2140.2  Type=MCSCF/NATURAL (state averaged)

 MULTI/6-31G* energy=    -77.485093958157

           MULTI          HF-SCF
    -77.48509396    -78.03074514
 **********************************************************************************************************************************
 Molpro calculation terminated
