
 Primary working directories    : /scratch.local/johan406.molpro_temp/molpro.UnLV9HPKu7
 Secondary working directories  : /scratch.local/johan406.molpro_temp/molpro.UnLV9HPKu7
 Wavefunction directory         : /home/goodpast/johan406/wfu/
 Main file repository           : /scratch.local/johan406.molpro_temp/molpro.UnLV9HPKu7/

 id        : roweumn

 Nodes     nprocs
 cn0117       1

 Using customized tuning parameters: mindgm=1; mindgv=20; mindgc=4; mindgr=1; noblas=0; minvec=7
 default implementation of scratch files=df  


 Variables initialized (934), CPU time= 0.00 sec
                                                                                 !leave this line blank
 
 gprint, orbitals=30
 memory, 125., m
 symmetry, nosym
 nelect=16
 basis=6-31g*
 
 geometry={
 C -0.0 0.0 0.6677
 C 0.0 0.0 -0.6677
 H 0.0 0.9269 1.2421
 H -0.0 -0.9269 1.2421
 H 0.0 0.9269 -1.2421
 H 0.0 -0.9269 -1.2421
 }
 
 hf
 {multi,
 closed 7
 occ 9
 wf,spin=0;STATE,3
 }
 
 Commands  initialized (763), CPU time= 0.00 sec, 617 directives.
 Default parameters read. Elapsed time= 0.08 sec

 Checking input...
 Passed
1


                                         ***  PROGRAM SYSTEM MOLPRO  ***
                                       Copyright, TTI GmbH Stuttgart, 2015
                                    Version 2019.2 linked Oct 25 2019 22:50:27


 **********************************************************************************************************************************
 LABEL *                                                                                 
  64 bit serial version                                                                  DATE: 26-Jan-23          TIME: 20:50:48  
 **********************************************************************************************************************************

 SHA1:             8dbd9ae1082e4ce945b0f27595c9eb2d4aa09004
 **********************************************************************************************************************************


 Variable memory set to  125000000 words,  buffer space 

 SETTING NELECT         =        16.00000000                                  
 SETTING BASIS          =    6-31G*
 ZSYMEL=NOSYM


Geometry recognized as XYZ



 Recomputing integrals since basis changed


 Using spherical harmonics

 Library entry C      S 6-31G                selected for orbital group  1
 Library entry C      P 6-31G                selected for orbital group  1
 Library entry C      D 6-31G*               selected for orbital group  1
 Library entry H      S 6-31G                selected for orbital group  2


 PROGRAM * SEWARD (Integral evaluation for generally contracted gaussian basis sets)     Author: Roland Lindh, 1990

 Geometry written to block  1 of record 700


 Point group  C1  



 ATOMIC COORDINATES

 NR  ATOM    CHARGE       X              Y              Z

   1  C       6.00    0.000000000    0.000000000    1.261770133
   2  C       6.00    0.000000000    0.000000000   -1.261770133
   3  H       1.00    0.000000000    1.751587145    2.347228819
   4  H       1.00    0.000000000   -1.751587145    2.347228819
   5  H       1.00    0.000000000    1.751587145   -2.347228819
   6  H       1.00    0.000000000   -1.751587145   -2.347228819

 Bond lengths in Bohr (Angstrom)

 1-2  2.523540267  1-3  2.060649918  1-4  2.060649918  2-5  2.060649918  2-6  2.060649918
     ( 1.335400000)     ( 1.090448976)     ( 1.090448976)     ( 1.090448976)     ( 1.090448976)

 Bond angles

  1-2-5  121.78649827   1-2-6  121.78649827   2-1-3  121.78649827   2-1-4  121.78649827

  3-1-4  116.42700347   5-2-6  116.42700347

 NUCLEAR CHARGE:                   16
 NUMBER OF PRIMITIVE AOS:          72
 NUMBER OF SYMMETRY AOS:           70
 NUMBER OF CONTRACTIONS:           36   (   36A   )
 NUMBER OF CORE ORBITALS:           2   (    2A   )
 NUMBER OF VALENCE ORBITALS:       12   (   12A   )


 NUCLEAR REPULSION ENERGY   33.23352322

 EXTRA SYMMETRY OF AOS IN SYMMETRY 1:   1 1 1 2 1 1 2 1 1 1   3 2 1 1 1 1 1 2 1 1   2 1 1 1 3 2 1 1 1 1   1 1 1 1 1 1

 Eigenvalues of metric

         1 0.827E-02 0.180E-01 0.391E-01 0.478E-01 0.737E-01 0.191E+00 0.214E+00 0.225E+00


 Contracted 2-electron integrals neglected if value below      1.0D-11
 AO integral compression algorithm  1   Integral accuracy      1.0D-11

     0.786 MB (compressed) written to integral file ( 37.8%)


 NUMBER OF SORTED TWO-ELECTRON INTEGRALS:     222111.     BUFFER LENGTH:  32768
 NUMBER OF SEGMENTS:   1  SEGMENT LENGTH:     222111      RECORD LENGTH: 524288

 Memory used in sort:       0.78 MW

 SORT1 READ      284735. AND WROTE       98255. INTEGRALS IN      1 RECORDS. CPU TIME:     0.01 SEC, REAL TIME:     0.00 SEC
 SORT2 READ       98255. AND WROTE      222111. INTEGRALS IN      3 RECORDS. CPU TIME:     0.02 SEC, REAL TIME:     0.03 SEC

 FILE SIZES:   FILE 1:    30.9 MBYTE,  FILE 4:     4.2 MBYTE,   TOTAL:     35.1 MBYTE

 OPERATOR DM      FOR CENTER  0  COORDINATES:    0.000000    0.000000    0.000000


 **********************************************************************************************************************************
 DATASETS  * FILE   NREC   LENGTH (MB)   RECORD NAMES
              1      19       30.63       500      610      700      900      950      970     1000      129      960     1100   
                                          VAR    BASINP    GEOM    SYMINP    ZMAT    AOBASIS   BASIS     P2S    ABASIS      S 
                                         1400     1410     1200     1210     1080     1600     1650     1300     1700   
                                           T        V       H0       H01     AOSYM     SMH    MOLCAS    ERIS     OPER   

 PROGRAMS   *        TOTAL       INT
 CPU TIMES  *         0.34      0.25
 REAL TIME  *         0.57 SEC
 DISK USED  *        35.45 MB
 **********************************************************************************************************************************


 PROGRAM * RHF-SCF (CLOSED SHELL)       Authors: W. Meyer, H.-J. Werner


 NUMBER OF ELECTRONS:       8+    8-    SPACE SYMMETRY=1    SPIN SYMMETRY: Singlet 
 CONVERGENCE THRESHOLDS:    1.00E-05 (Density)    1.00E-07 (Energy)
 MAX. NUMBER OF ITERATIONS:       60
 INTERPOLATION TYPE:            DIIS
 INTERPOLATION STEPS:              2 (START)      1 (STEP)
 LEVEL SHIFTS:                  0.00 (CLOSED)  0.00 (OPEN) 



 Orbital guess generated from atomic densities. Full valence occupancy:    8

 Molecular orbital dump at record        2100.2

 Initial occupancy:   8

 ITERATION    DDIFF          GRAD             ENERGY        2-EL.EN.            DIPOLE MOMENTS         DIIS   ORB.
    1      0.000D+00      0.000D+00       -78.00620198    118.421336    0.00000    0.00000   -0.00000    0    start
    2      0.000D+00      0.855D-02       -78.02795114    116.567603   -0.00000    0.00000   -0.00000    1    diag
    3      0.813D-02      0.294D-02       -78.03010334    117.208629   -0.00000    0.00000   -0.00000    2    diag
    4      0.267D-02      0.714D-03       -78.03031525    117.108271   -0.00000    0.00000   -0.00000    3    diag
    5      0.107D-02      0.693D-04       -78.03031746    117.111378    0.00000   -0.00000    0.00000    4    diag
    6      0.149D-03      0.869D-05       -78.03031750    117.110918    0.00000    0.00000    0.00000    5    diag
    7      0.172D-04      0.123D-05       -78.03031750    117.110926   -0.00000    0.00000   -0.00000    6    diag
    8      0.191D-05      0.152D-06       -78.03031750    117.110920   -0.00000   -0.00000    0.00000    0    orth

 Final occupancy:   8

 !RHF STATE  1.1 Energy               -78.030317498217
 Nuclear energy                        33.23352322
 One-electron energy                 -169.81930060
 Two-electron energy                   58.55545988
 Virial quotient                       -1.00111657
 !RHF STATE  1.1 Dipole moment         -0.00000000    -0.00000000     0.00000000
 Dipole moment /Debye                  -0.00000000    -0.00000000     0.00000000

 ELECTRON ORBITALS
 =================

  Orbital  Occupation    Energy     Coefficients
    1.1     2.00000   -11.22846     1 1s    0.70419     2 1s    0.70419
    2.1     2.00000   -11.22684     1 1s    0.70456     2 1s   -0.70456
    3.1     2.00000    -1.02573     1 1s    0.30229     2 1s    0.30229
    4.1     2.00000    -0.78620     1 1s    0.24628
    5.1     2.00000    -0.63411     1 2py   0.32014     2 2py   0.32014
    6.1     2.00000    -0.58161     1 2pz   0.40551     2 2pz  -0.40551
    7.1     2.00000    -0.50067     1 2py   0.30217     2 2py  -0.30217
    8.1     2.00000    -0.37056     1 2px   0.37397     1 2px   0.30696     2 2px   0.37397     2 2px   0.30696
    9.1     0.00000     0.17915     1 2px   0.34212     1 2px   0.73546     2 2px  -0.34212     2 2px  -0.73546
   10.1     0.00000     0.26348     1 1s   -1.45869     1 2pz  -0.64027     2 1s   -1.45869     2 2pz   0.64027     3 1s    1.02042
                                    4 1s    1.02042     5 1s    1.02042     6 1s    1.02042
   11.1     0.00000     0.28950     1 2py  -0.25400     1 2py  -0.79214     2 2py  -0.25400     2 2py  -0.79214     3 1s    1.07324
                                    4 1s   -1.07324     5 1s    1.07324     6 1s   -1.07324
   12.1     0.00000     0.30513     1 1s    1.87407     2 1s   -1.87407     3 1s   -1.05585     4 1s   -1.05585     5 1s    1.05585
                                    6 1s    1.05585
   13.1     0.00000     0.39027     1 2py   0.25110     1 2py   1.85177     2 2py  -0.25110     2 2py  -1.85177     3 1s   -1.59259
                                    4 1s    1.59259     5 1s    1.59259     6 1s   -1.59259
   14.1     0.00000     0.49107     1 1s   -3.07134     1 2pz   2.96299     2 1s    3.07134     2 2pz   2.96299     3 1s   -0.56695
                                    4 1s   -0.56695     5 1s    0.56695     6 1s    0.56695
   15.1     0.00000     0.66902     1 2pz  -0.55775     1 2pz   1.03448     2 2pz   0.55775     2 2pz  -1.03448
   16.1     0.00000     0.76756     1 2py  -0.40203     1 2py   0.75337     2 2py  -0.40203     2 2py   0.75337     3 1s   -0.39036
                                    4 1s    0.39036     5 1s   -0.39036     6 1s    0.39036
   17.1     0.00000     0.77566     1 2px  -0.73963     1 2px   0.63970     2 2px  -0.73963     2 2px   0.63970
   18.1     0.00000     0.86359     1 1s   -0.87573     1 1s    1.41855     1 2pz   0.34568     2 1s   -0.87573     2 1s    1.41855
                                    2 2pz  -0.34568     3 1s   -0.40297     4 1s   -0.40297     5 1s   -0.40297     6 1s   -0.40297
   19.1     0.00000     0.88986     1 2px  -0.81878     1 2px   1.07503     2 2px   0.81878     2 2px  -1.07503
   20.1     0.00000     0.95625     1 1s   -0.80833     1 2pz   0.59615     1 2pz  -0.44134     2 1s    0.80833     2 2pz   0.59615
                                    2 2pz  -0.44134     3 1s    0.39238     4 1s    0.39238     5 1s   -0.39238     6 1s   -0.39238
   21.1     0.00000     1.10522     1 2py  -0.68711     1 2py   1.09418     2 2py  -0.68711     2 2py   1.09418     3 1s    0.38051
                                    3 1s   -1.05068     4 1s   -0.38051     4 1s    1.05068     5 1s    0.38051     5 1s   -1.05068
                                    6 1s   -0.38051     6 1s    1.05068
   22.1     0.00000     1.15325     1 2py   0.92120     1 2py  -2.81410     2 2py  -0.92120     2 2py   2.81410     3 1s    1.44797
                                    4 1s   -1.44797     5 1s   -1.44797     6 1s    1.44797
   23.1     0.00000     1.20209     1 1s    1.03721     1 1s   -1.71564     1 2pz   0.36057     1 2pz  -0.49226     2 1s    1.03721
                                    2 1s   -1.71564     2 2pz  -0.36057     2 2pz   0.49226     3 1s   -0.43595     3 1s    0.86020
                                    4 1s   -0.43595     4 1s    0.86020     5 1s   -0.43595     5 1s    0.86020     6 1s   -0.43595
                                    6 1s    0.86020
   24.1     0.00000     1.20949     1 1s   -0.56165     1 1s    0.63540     1 2pz  -0.62724     1 2pz   1.18096     2 1s    0.56165
                                    2 1s   -0.63540     2 2pz  -0.62724     2 2pz   1.18096     3 1s    0.45808     3 1s   -0.97039
                                    4 1s    0.45808     4 1s   -0.97039     5 1s   -0.45808     5 1s    0.97039     6 1s   -0.45808
                                    6 1s    0.97039
   25.1     0.00000     1.34091     1 1s   -1.57858     1 1s    5.36942     1 2pz   0.27596     1 2pz  -1.95621     2 1s    1.57858
                                    2 1s   -5.36942     2 2pz   0.27596     2 2pz  -1.95621     3 1s   -0.29322     4 1s   -0.29322
                                    5 1s    0.29322     6 1s    0.29322
   26.1     0.00000     1.46956     1 2py   2.59769     2 2py  -2.59769     3 1s   -0.69165     3 1s   -0.67774     4 1s    0.69165
                                    4 1s    0.67774     5 1s    0.69165     5 1s    0.67774     6 1s   -0.69165     6 1s   -0.67774
   27.1     0.00000     1.74028     1 3d1+  0.61866     2 3d1+ -0.61866
   28.1     0.00000     1.82208     1 3d2-  0.68095     2 3d2-  0.68095
   29.1     0.00000     2.13060     1 3d2-  0.73653     2 3d2- -0.73653
   30.1     0.00000     2.19483     1 1s   -0.59439     1 3d2+  0.71351     2 1s   -0.59439     2 3d2+  0.71351     3 1s    0.36665
                                    4 1s    0.36665     5 1s    0.36665     6 1s    0.36665
   31.1     0.00000     2.31256     1 2py   0.26361     1 3d1-  0.68690     2 2py   0.26361     2 3d1- -0.68690     3 1s   -0.50601
                                    4 1s    0.50601     5 1s   -0.50601     6 1s    0.50601
   32.1     0.00000     2.40991     1 1s   -0.50831     1 2pz   0.28776     1 2pz  -0.44427     1 3d0   0.69333     2 1s   -0.50831
                                    2 2pz  -0.28776     2 2pz   0.44427     2 3d0   0.69333
   33.1     0.00000     2.61090     1 1s    0.30002     1 1s   -1.32851     1 2pz   0.27003     1 3d2+  0.79506     2 1s   -0.30002
                                    2 1s    1.32851     2 2pz   0.27003     2 3d2+ -0.79506     3 1s    0.43241     4 1s    0.43241
                                    5 1s   -0.43241     6 1s   -0.43241
   34.1     0.00000     2.71124     1 2px  -0.26507     1 3d1+  0.90446     2 2px   0.26507     2 3d1+  0.90446
   35.1     0.00000     3.04677     1 2py   0.52527     1 3d1-  0.96642     2 2py  -0.52527     2 3d1-  0.96642     3 1s   -0.46115
                                    4 1s    0.46115     5 1s    0.46115     6 1s   -0.46115
   36.1     0.00000     3.06587     1 1s    0.32397     1 1s    2.03444     1 2pz  -0.80331     1 2pz  -1.18032     1 3d0   1.11400
                                    2 1s   -0.32397     2 1s   -2.03444     2 2pz  -0.80331     2 2pz  -1.18032     2 3d0  -1.11400


 HOMO      8.1    -0.370558 =     -10.0834eV
 LUMO      9.1     0.179146 =       4.8748eV
 LUMO-HOMO         0.549704 =      14.9582eV


 **********************************************************************************************************************************
 DATASETS  * FILE   NREC   LENGTH (MB)   RECORD NAMES
              1      19       30.63       500      610      700      900      950      970     1000      129      960     1100   
                                          VAR    BASINP    GEOM    SYMINP    ZMAT    AOBASIS   BASIS     P2S    ABASIS      S 
                                         1400     1410     1200     1210     1080     1600     1650     1300     1700   
                                           T        V       H0       H01     AOSYM     SMH    MOLCAS    ERIS     OPER   

              2       4        2.86       700     1000      520     2100   
                                         GEOM     BASIS   MCVARS     RHF  

 PROGRAMS   *        TOTAL    HF-SCF       INT
 CPU TIMES  *         0.44      0.10      0.25
 REAL TIME  *         0.69 SEC
 DISK USED  *        35.45 MB
 **********************************************************************************************************************************


 PROGRAM * MULTI (Direct Multiconfiguration SCF)       Authors: P.J. Knowles, H.-J. Werner (1984)


 Number of closed-shell orbitals:   7 (   7 )
 Number of active  orbitals:        2 (   2 )
 Number of external orbitals:      27 (  27 )

 State symmetry 1

 Number of electrons:     2    Spin symmetry=Singlet   Space symmetry=1
 Number of states:        3
 Number of CSFs:          3   (4 determinants, 4 intermediate states)

 Molecular orbitals read from record     2100.2  Type=RHF/CANONICAL (state 1.1)

 EXTRA SYMMETRY OF MOS IN SYMMETRY 1:   1 1 1 1 1 1 1 2 2 1   1 1 1 1 1 1 2 1 2 1   1 1 1 1 1 1 2 3 3 1   1 1 1 2 1 1

 Wavefunction dump at record             2140.2

 Convergence thresholds  0.10E-01 (gradient)  0.10E-05 (energy)  0.10E-02 (step length)

 Weight factors for state symmetry  1:    0.33333   0.33333   0.33333

 Number of orbital rotations:      257   (    14 Core/Active    189 Core/Virtual   0 Active/Active     54 Active/Virtual)
 Total number of variables:        269

 Micro-Iterations solved by the two-step solver

 ITER. MIC  NCI  NEG     ENERGY(VAR)     ENERGY(PROJ)   ENERGY CHANGE     GRAD(0)  GRAD(ORB)   GRAD(CI)     STEP       TIME

   1    3    3    0     -77.72766107     -77.73398663   -0.00632556    0.13327877 0.00000161 0.00000000  0.63D-01      0.07
   2    2    3    0     -77.73388502     -77.73388897   -0.00000394    0.00310932 0.00000195 0.00000000  0.17D-02      0.10
   3    2    3    0     -77.73388897     -77.73388897   -0.00000000    0.00000228 0.00000000 0.00000000  0.14D-05      0.14

 ** WVFN ****  CONVERGENCE REACHED, FINAL GRADIENT:  0.14D-11



 Results for state 1.1
 =====================

 !MCSCF STATE  1.1 Energy             -78.047794663536
 Nuclear energy                        33.23352322
 Kinetic energy                        78.01293770
 One electron energy                 -169.95691117
 Two electron energy                   58.67559328
 Virial ratio                           2.00044681

 !MCSCF STATE  1.1 Dipole moment        0.00000000    -0.00000000     0.00000000
 Dipole moment /Debye                   0.00000000    -0.00000000     0.00000000

 Results for state 2.1
 =====================

 !MCSCF STATE  2.1 Energy             -77.670777912993
 Nuclear energy                        33.23352322
 Kinetic energy                        78.19192925
 One electron energy                 -169.37715210
 Two electron energy                   58.47285096
 Virial ratio                           1.99333497

 !MCSCF STATE  2.1 Dipole moment        0.00000000    -0.00000000     0.00000000
 Dipole moment /Debye                   0.00000000    -0.00000000     0.00000000

 Results for state 3.1
 =====================

 !MCSCF STATE  3.1 Energy             -77.483094332840
 Nuclear energy                        33.23352322
 Kinetic energy                        78.37092080
 One electron energy                 -168.79739303
 Two electron energy                   58.08077547
 Virial ratio                           1.98867148

 !MCSCF STATE  3.1 Dipole moment        0.00000000    -0.00000000     0.00000000
 Dipole moment /Debye                   0.00000000    -0.00000000     0.00000000

 State-averaged charge density matrix saved on record  2140.2 (density set 1)

 !MCSCF trans         <2.1|DMZ|1.1>    -1.509840332604 au =    -3.837379992540 Debye
 !MCSCF trans         <3.1|DMZ|2.1>    -2.266911065722 au =    -5.761535826419 Debye


 NATURAL ORBITALS (state averaged)
 =================================

  Orbital  Occupation    Energy     Coefficients
    1.1     2.00000   -11.24422     1 1s    0.70420     2 1s    0.70420
    2.1     2.00000   -11.24288     1 1s    0.70452     2 1s   -0.70452
    3.1     2.00000    -1.04075     1 1s    0.31029     2 1s    0.31029
    4.1     2.00000    -0.79399     1 1s    0.29223     2 1s   -0.29223
    5.1     2.00000    -0.64695     1 2py   0.32596     2 2py   0.32596
    6.1     2.00000    -0.59648     1 2pz   0.40707     2 2pz  -0.40707
    7.1     2.00000    -0.50715     1 2py   0.30876     2 2py  -0.30876
    8.1     1.00000     0.03420     1 2px   0.38032     1 2px   0.68813     2 2px  -0.38032     2 2px  -0.68813
    9.1     1.00000    -0.22633     1 2px   0.35859     1 2px   0.31837     2 2px   0.35859     2 2px   0.31837
   10.1    -0.00000     0.26083     1 1s   -1.45489     1 2pz  -0.64576     2 1s   -1.45489     2 2pz   0.64576     3 1s    1.02009
                                    4 1s    1.02009     5 1s    1.02009     6 1s    1.02009
   11.1    -0.00000     0.28086     1 2py  -0.25233     1 2py  -0.78216     2 2py  -0.25233     2 2py  -0.78216     3 1s    1.06474
                                    4 1s   -1.06474     5 1s    1.06474     6 1s   -1.06474
   12.1    -0.00000     0.30197     1 1s    1.89941     2 1s   -1.89941     3 1s   -1.05030     4 1s   -1.05030     5 1s    1.05030
                                    6 1s    1.05030
   13.1    -0.00000     0.38593     1 2py   0.25476     1 2py   1.83726     2 2py  -0.25476     2 2py  -1.83726     3 1s   -1.58578
                                    4 1s    1.58578     5 1s    1.58578     6 1s   -1.58578
   14.1    -0.00000     0.48837     1 1s   -3.04795     1 2pz   2.94523     2 1s    3.04795     2 2pz   2.94523     3 1s   -0.57681
                                    4 1s   -0.57681     5 1s    0.57681     6 1s    0.57681
   15.1    -0.00000     0.65732     1 1s    0.26935     1 2pz  -0.54894     1 2pz   1.01134     2 1s    0.26935     2 2pz   0.54894
                                    2 2pz  -1.01134
   16.1    -0.00000     0.75721     1 2py  -0.41381     1 2py   0.76175     2 2py  -0.41381     2 2py   0.76175     3 1s   -0.38539
                                    4 1s    0.38539     5 1s   -0.38539     6 1s    0.38539
   17.1    -0.00000     0.76973     1 2px  -0.74624     1 2px   0.63446     2 2px  -0.74624     2 2px   0.63446
   18.1    -0.00000     0.86110     1 1s   -0.86882     1 1s    1.44106     1 2pz   0.39101     2 1s   -0.86882     2 1s    1.44106
                                    2 2pz  -0.39101     3 1s   -0.40423     4 1s   -0.40423     5 1s   -0.40423     6 1s   -0.40423
   19.1    -0.00000     0.87225     1 2px  -0.80312     1 2px   1.10573     2 2px   0.80312     2 2px  -1.10573
   20.1    -0.00000     0.93744     1 1s   -0.65029     1 2pz   0.60171     1 2pz  -0.52753     2 1s    0.65029     2 2pz   0.60171
                                    2 2pz  -0.52753     3 1s    0.39175     4 1s    0.39175     5 1s   -0.39175     6 1s   -0.39175
   21.1    -0.00000     1.08984     1 2py  -0.67520     1 2py   1.09524     2 2py  -0.67520     2 2py   1.09524     3 1s    0.38164
                                    3 1s   -1.05965     4 1s   -0.38164     4 1s    1.05965     5 1s    0.38164     5 1s   -1.05965
                                    6 1s   -0.38164     6 1s    1.05965
   22.1    -0.00000     1.14063     1 2py   0.91799     1 2py  -2.82110     2 2py  -0.91799     2 2py   2.82110     3 1s    1.45653
                                    4 1s   -1.45653     5 1s   -1.45653     6 1s    1.45653
   23.1    -0.00000     1.19886     1 1s    1.03224     1 1s   -1.71184     1 2pz   0.36438     1 2pz  -0.49814     2 1s    1.03224
                                    2 1s   -1.71184     2 2pz  -0.36438     2 2pz   0.49814     3 1s   -0.43661     3 1s    0.85993
                                    4 1s   -0.43661     4 1s    0.85993     5 1s   -0.43661     5 1s    0.85993     6 1s   -0.43661
                                    6 1s    0.85993
   24.1    -0.00000     1.20743     1 1s   -0.51125     1 1s    0.46700     1 2pz  -0.63867     1 2pz   1.24419     2 1s    0.51125
                                    2 1s   -0.46700     2 2pz  -0.63867     2 2pz   1.24419     3 1s    0.46093     3 1s   -0.96047
                                    4 1s    0.46093     4 1s   -0.96047     5 1s   -0.46093     5 1s    0.96047     6 1s   -0.46093
                                    6 1s    0.96047
   25.1    -0.00000     1.32097     1 1s   -1.59759     1 1s    5.39881     1 2pz   0.25425     1 2pz  -1.91637     2 1s    1.59759
                                    2 1s   -5.39881     2 2pz   0.25425     2 2pz  -1.91637     3 1s   -0.32562     4 1s   -0.32562
                                    5 1s    0.32562     6 1s    0.32562
   26.1    -0.00000     1.46122     1 2py   2.59917     2 2py  -2.59917     3 1s   -0.69061     3 1s   -0.67805     4 1s    0.69061
                                    4 1s    0.67805     5 1s    0.69061     5 1s    0.67805     6 1s   -0.69061     6 1s   -0.67805
   27.1    -0.00000     1.71455     1 3d1+  0.61838     2 3d1+ -0.61838
   28.1    -0.00000     1.80823     1 3d2-  0.68095     2 3d2-  0.68095
   29.1    -0.00000     2.10750     1 3d2-  0.73653     2 3d2- -0.73653
   30.1    -0.00000     2.17946     1 1s   -0.59044     1 3d2+  0.71312     2 1s   -0.59044     2 3d2+  0.71312     3 1s    0.36854
                                    4 1s    0.36854     5 1s    0.36854     6 1s    0.36854
   31.1    -0.00000     2.29625     1 2py   0.27056     1 3d1-  0.68516     2 2py   0.27056     2 3d1- -0.68516     3 1s   -0.50944
                                    4 1s    0.50944     5 1s   -0.50944     6 1s    0.50944
   32.1    -0.00000     2.38988     1 1s   -0.50635     1 2pz   0.29373     1 2pz  -0.44692     1 3d0   0.69316     2 1s   -0.50635
                                    2 2pz  -0.29373     2 2pz   0.44692     2 3d0   0.69316
   33.1    -0.00000     2.59112     1 1s    0.30097     1 1s   -1.33510     1 2pz   0.26904     1 3d2+  0.79431     2 1s   -0.30097
                                    2 1s    1.33510     2 2pz   0.26904     2 3d2+ -0.79431     3 1s    0.43546     4 1s    0.43546
                                    5 1s   -0.43546     6 1s   -0.43546
   34.1    -0.00000     2.68877     1 2px  -0.26585     1 3d1+  0.90485     2 2px   0.26585     2 3d1+  0.90485
   35.1    -0.00000     3.03395     1 2py   0.52527     1 3d1-  0.96606     2 2py  -0.52527     2 3d1-  0.96606     3 1s   -0.46340
                                    4 1s    0.46340     5 1s    0.46340     6 1s   -0.46340
   36.1    -0.00000     3.04785     1 1s    0.31686     1 1s    2.06003     1 2pz  -0.79578     1 2pz  -1.19376     1 3d0   1.11566
                                    2 1s   -0.31686     2 1s   -2.06003     2 2pz  -0.79578     2 2pz  -1.19376     2 3d0  -1.11566


 Natural orbital dump (state averaged) at molpro section  2140.2    (Orbital set 2)



 **********************************************************************************************************************************
 DATASETS  * FILE   NREC   LENGTH (MB)   RECORD NAMES
              1      20       31.36       500      610      700      900      950      970     1000      129      960     1100   
                                          VAR    BASINP    GEOM    SYMINP    ZMAT    AOBASIS   BASIS     P2S    ABASIS      S 
                                         1400     1410     1200     1210     1080     1600     1650     1300     1700     1380   
                                           T        V       H0       H01     AOSYM     SMH    MOLCAS    ERIS     OPER     JKOP   

              2       5        5.42       700     1000      520     2100     2140   
                                         GEOM     BASIS   MCVARS     RHF     MCSCF   

 PROGRAMS   *        TOTAL     MULTI    HF-SCF       INT
 CPU TIMES  *         0.61      0.17      0.10      0.25
 REAL TIME  *         0.90 SEC
 DISK USED  *        38.54 MB
 **********************************************************************************************************************************
 Molecular orbitals read from record     2140.2  Type=MCSCF/NATURAL (state averaged)
 Occupation numbers read from record     2140.2  Type=MCSCF/NATURAL (state averaged)
 Orbital energies read from record       2140.2  Type=MCSCF/NATURAL (state averaged)
 Redundancy group numbers read from rec  2140.2  Type=MCSCF/NATURAL (state averaged)

 MULTI/6-31G* energy=    -77.483094332840

           MULTI          HF-SCF
    -77.48309433    -78.03031750
 **********************************************************************************************************************************
 Molpro calculation terminated
