
 Primary working directories    : /scratch.local/johan406.molpro_temp/molpro.xj3bExtOeq
 Secondary working directories  : /scratch.local/johan406.molpro_temp/molpro.xj3bExtOeq
 Wavefunction directory         : /home/goodpast/johan406/wfu/
 Main file repository           : /scratch.local/johan406.molpro_temp/molpro.xj3bExtOeq/

 id        : roweumn

 Nodes     nprocs
 cn0117       1

 Using customized tuning parameters: mindgm=1; mindgv=20; mindgc=4; mindgr=1; noblas=0; minvec=7
 default implementation of scratch files=df  


 Variables initialized (934), CPU time= 0.00 sec
                                                                                 !leave this line blank
 
 gprint, orbitals=30
 memory, 125., m
 symmetry, nosym
 nelect=16
 basis=6-31g*
 
 geometry={
 C -0.0 0.0 0.6655
 C 0.0 0.0 -0.6655
 H 0.0 0.9459 1.2535
 H -0.0 -0.9459 1.2535
 H 0.0 0.9459 -1.2535
 H 0.0 -0.9459 -1.2535
 }
 
 hf
 {multi,
 closed 7
 occ 9
 wf,spin=0;STATE,3
 }
 
 Commands  initialized (763), CPU time= 0.01 sec, 617 directives.
 Default parameters read. Elapsed time= 0.08 sec

 Checking input...
 Passed
1


                                         ***  PROGRAM SYSTEM MOLPRO  ***
                                       Copyright, TTI GmbH Stuttgart, 2015
                                    Version 2019.2 linked Oct 25 2019 22:50:27


 **********************************************************************************************************************************
 LABEL *                                                                                 
  64 bit serial version                                                                  DATE: 26-Jan-23          TIME: 20:51:52  
 **********************************************************************************************************************************

 SHA1:             8dbd9ae1082e4ce945b0f27595c9eb2d4aa09004
 **********************************************************************************************************************************


 Variable memory set to  125000000 words,  buffer space 

 SETTING NELECT         =        16.00000000                                  
 SETTING BASIS          =    6-31G*
 ZSYMEL=NOSYM


Geometry recognized as XYZ



 Recomputing integrals since basis changed


 Using spherical harmonics

 Library entry C      S 6-31G                selected for orbital group  1
 Library entry C      P 6-31G                selected for orbital group  1
 Library entry C      D 6-31G*               selected for orbital group  1
 Library entry H      S 6-31G                selected for orbital group  2


 PROGRAM * SEWARD (Integral evaluation for generally contracted gaussian basis sets)     Author: Roland Lindh, 1990

 Geometry written to block  1 of record 700


 Point group  C1  



 ATOMIC COORDINATES

 NR  ATOM    CHARGE       X              Y              Z

   1  C       6.00    0.000000000    0.000000000    1.257612736
   2  C       6.00    0.000000000    0.000000000   -1.257612736
   3  H       1.00    0.000000000    1.787491941    2.368771697
   4  H       1.00    0.000000000   -1.787491941    2.368771697
   5  H       1.00    0.000000000    1.787491941   -2.368771697
   6  H       1.00    0.000000000   -1.787491941   -2.368771697

 Bond lengths in Bohr (Angstrom)

 1-2  2.515225472  1-3  2.104709404  1-4  2.104709404  2-5  2.104709404  2-6  2.104709404
     ( 1.331000000)     ( 1.113764252)     ( 1.113764252)     ( 1.113764252)     ( 1.113764252)

 Bond angles

  1-2-5  121.86633194   1-2-6  121.86633194   2-1-3  121.86633194   2-1-4  121.86633194

  3-1-4  116.26733612   5-2-6  116.26733612

 NUCLEAR CHARGE:                   16
 NUMBER OF PRIMITIVE AOS:          72
 NUMBER OF SYMMETRY AOS:           70
 NUMBER OF CONTRACTIONS:           36   (   36A   )
 NUMBER OF CORE ORBITALS:           2   (    2A   )
 NUMBER OF VALENCE ORBITALS:       12   (   12A   )


 NUCLEAR REPULSION ENERGY   32.97061187

 EXTRA SYMMETRY OF AOS IN SYMMETRY 1:   1 1 1 2 1 1 2 1 1 1   3 2 1 1 1 1 1 2 1 1   2 1 1 1 3 2 1 1 1 1   1 1 1 1 1 1

 Eigenvalues of metric

         1 0.818E-02 0.193E-01 0.414E-01 0.506E-01 0.781E-01 0.188E+00 0.220E+00 0.226E+00


 Contracted 2-electron integrals neglected if value below      1.0D-11
 AO integral compression algorithm  1   Integral accuracy      1.0D-11

     0.786 MB (compressed) written to integral file ( 37.7%)


 NUMBER OF SORTED TWO-ELECTRON INTEGRALS:     222111.     BUFFER LENGTH:  32768
 NUMBER OF SEGMENTS:   1  SEGMENT LENGTH:     222111      RECORD LENGTH: 524288

 Memory used in sort:       0.78 MW

 SORT1 READ      284735. AND WROTE       98239. INTEGRALS IN      1 RECORDS. CPU TIME:     0.00 SEC, REAL TIME:     0.01 SEC
 SORT2 READ       98239. AND WROTE      222111. INTEGRALS IN      3 RECORDS. CPU TIME:     0.02 SEC, REAL TIME:     0.02 SEC

 FILE SIZES:   FILE 1:    30.9 MBYTE,  FILE 4:     4.2 MBYTE,   TOTAL:     35.1 MBYTE

 OPERATOR DM      FOR CENTER  0  COORDINATES:    0.000000    0.000000    0.000000


 **********************************************************************************************************************************
 DATASETS  * FILE   NREC   LENGTH (MB)   RECORD NAMES
              1      19       30.63       500      610      700      900      950      970     1000      129      960     1100   
                                          VAR    BASINP    GEOM    SYMINP    ZMAT    AOBASIS   BASIS     P2S    ABASIS      S 
                                         1400     1410     1200     1210     1080     1600     1650     1300     1700   
                                           T        V       H0       H01     AOSYM     SMH    MOLCAS    ERIS     OPER   

 PROGRAMS   *        TOTAL       INT
 CPU TIMES  *         0.36      0.26
 REAL TIME  *         0.56 SEC
 DISK USED  *        35.45 MB
 **********************************************************************************************************************************


 PROGRAM * RHF-SCF (CLOSED SHELL)       Authors: W. Meyer, H.-J. Werner


 NUMBER OF ELECTRONS:       8+    8-    SPACE SYMMETRY=1    SPIN SYMMETRY: Singlet 
 CONVERGENCE THRESHOLDS:    1.00E-05 (Density)    1.00E-07 (Energy)
 MAX. NUMBER OF ITERATIONS:       60
 INTERPOLATION TYPE:            DIIS
 INTERPOLATION STEPS:              2 (START)      1 (STEP)
 LEVEL SHIFTS:                  0.00 (CLOSED)  0.00 (OPEN) 



 Orbital guess generated from atomic densities. Full valence occupancy:    8

 Molecular orbital dump at record        2100.2

 Initial occupancy:   8

 ITERATION    DDIFF          GRAD             ENERGY        2-EL.EN.            DIPOLE MOMENTS         DIIS   ORB.
    1      0.000D+00      0.000D+00       -78.00332647    117.960179   -0.00000   -0.00000    0.00000    0    start
    2      0.000D+00      0.848D-02       -78.02478224    116.080423    0.00000   -0.00000    0.00000    1    diag
    3      0.802D-02      0.297D-02       -78.02698247    116.738825    0.00000   -0.00000    0.00000    2    diag
    4      0.273D-02      0.718D-03       -78.02719951    116.635770   -0.00000   -0.00000    0.00000    3    diag
    5      0.108D-02      0.722D-04       -78.02720194    116.639222   -0.00000    0.00000   -0.00000    4    diag
    6      0.155D-03      0.970D-05       -78.02720198    116.638718   -0.00000    0.00000    0.00000    5    diag
    7      0.200D-04      0.135D-05       -78.02720199    116.638727    0.00000   -0.00000   -0.00000    6    diag
    8      0.218D-05      0.175D-06       -78.02720199    116.638719   -0.00000   -0.00000    0.00000    0    orth

 Final occupancy:   8

 !RHF STATE  1.1 Energy               -78.027201985522
 Nuclear energy                        32.97061187
 One-electron energy                 -169.31717345
 Two-electron energy                   58.31935960
 Virial quotient                       -1.00260394
 !RHF STATE  1.1 Dipole moment         -0.00000000    -0.00000000     0.00000000
 Dipole moment /Debye                  -0.00000000    -0.00000000     0.00000000

 ELECTRON ORBITALS
 =================

  Orbital  Occupation    Energy     Coefficients
    1.1     2.00000   -11.23380     1 1s    0.70420     2 1s    0.70420
    2.1     2.00000   -11.23214     1 1s    0.70458     2 1s   -0.70458
    3.1     2.00000    -1.02420     1 1s    0.30253     2 1s    0.30253
    4.1     2.00000    -0.77689     1 1s    0.25308     2 1s   -0.25308
    5.1     2.00000    -0.62714     1 2py   0.31769     2 2py   0.31769
    6.1     2.00000    -0.57957     1 2pz   0.40272     2 2pz  -0.40272
    7.1     2.00000    -0.49281     1 2py   0.29708     2 2py  -0.29708
    8.1     2.00000    -0.37268     1 2px   0.37512     1 2px   0.30539     2 2px   0.37512     2 2px   0.30539
    9.1     0.00000     0.17997     1 2px   0.34235     1 2px   0.73768     2 2px  -0.34235     2 2px  -0.73768
   10.1     0.00000     0.25845     1 1s   -1.39947     1 2pz  -0.62823     2 1s   -1.39947     2 2pz   0.62823     3 1s    0.98750
                                    4 1s    0.98750     5 1s    0.98750     6 1s    0.98750
   11.1     0.00000     0.28121     1 2py  -0.25702     1 2py  -0.76428     2 2py  -0.25702     2 2py  -0.76428     3 1s    1.02870
                                    4 1s   -1.02870     5 1s    1.02870     6 1s   -1.02870
   12.1     0.00000     0.29768     1 1s    1.77541     2 1s   -1.77541     3 1s   -1.02265     4 1s   -1.02265     5 1s    1.02265
                                    6 1s    1.02265
   13.1     0.00000     0.38848     1 2py   0.25676     1 2py   1.80768     2 2py  -0.25676     2 2py  -1.80768     3 1s   -1.53081
                                    4 1s    1.53081     5 1s    1.53081     6 1s   -1.53081
   14.1     0.00000     0.49167     1 1s   -3.19383     1 2pz   2.97268     2 1s    3.19383     2 2pz   2.97268     3 1s   -0.52971
                                    4 1s   -0.52971     5 1s    0.52971     6 1s    0.52971
   15.1     0.00000     0.66828     1 1s    0.25138     1 2pz  -0.55965     1 2pz   1.02780     2 1s    0.25138     2 2pz   0.55965
                                    2 2pz  -1.02780
   16.1     0.00000     0.77310     1 2px  -0.73809     1 2px   0.64000     2 2px  -0.73809     2 2px   0.64000
   17.1     0.00000     0.77590     1 2py  -0.40743     1 2py   0.72526     2 2py  -0.40743     2 2py   0.72526     3 1s   -0.39644
                                    4 1s    0.39644     5 1s   -0.39644     6 1s    0.39644
   18.1     0.00000     0.86571     1 1s   -0.85548     1 1s    1.34575     1 2pz   0.35578     2 1s   -0.85548     2 1s    1.34575
                                    2 2pz  -0.35578     3 1s   -0.41461     4 1s   -0.41461     5 1s   -0.41461     6 1s   -0.41461
   19.1     0.00000     0.88879     1 2px  -0.81906     1 2px   1.07705     2 2px   0.81906     2 2px  -1.07705
   20.1     0.00000     0.95920     1 1s   -0.71403     1 2pz   0.58418     1 2pz  -0.39775     2 1s    0.71403     2 2pz   0.58418
                                    2 2pz  -0.39775     3 1s    0.40602     4 1s    0.40602     5 1s   -0.40602     6 1s   -0.40602
   21.1     0.00000     1.08785     1 2py  -0.68252     1 2py   1.08193     2 2py  -0.68252     2 2py   1.08193     3 1s    0.37844
                                    3 1s   -1.03037     4 1s   -0.37844     4 1s    1.03037     5 1s    0.37844     5 1s   -1.03037
                                    6 1s   -0.37844     6 1s    1.03037
   22.1     0.00000     1.14005     1 2py   0.91075     1 2py  -2.61895     2 2py  -0.91075     2 2py   2.61895     3 1s    1.35662
                                    4 1s   -1.35662     5 1s   -1.35662     6 1s    1.35662
   23.1     0.00000     1.18018     1 1s    1.03949     1 1s   -1.69840     1 2pz   0.35196     1 2pz  -0.48602     2 1s    1.03949
                                    2 1s   -1.69840     2 2pz  -0.35196     2 2pz   0.48602     3 1s   -0.42869     3 1s    0.84954
                                    4 1s   -0.42869     4 1s    0.84954     5 1s   -0.42869     5 1s    0.84954     6 1s   -0.42869
                                    6 1s    0.84954
   24.1     0.00000     1.18939     1 1s    0.59944     1 1s   -0.79624     1 2pz   0.63186     1 2pz  -1.11549     2 1s   -0.59944
                                    2 1s    0.79624     2 2pz   0.63186     2 2pz  -1.11549     3 1s   -0.43939     3 1s    0.96392
                                    4 1s   -0.43939     4 1s    0.96392     5 1s    0.43939     5 1s   -0.96392     6 1s    0.43939
                                    6 1s   -0.96392
   25.1     0.00000     1.34501     1 1s   -1.56213     1 1s    5.34749     1 2pz   0.29050     1 2pz  -2.00890     2 1s    1.56213
                                    2 1s   -5.34749     2 2pz   0.29050     2 2pz  -2.00890
   26.1     0.00000     1.46427     1 2py   2.66435     2 2py  -2.66435     3 1s   -0.68193     3 1s   -0.67919     4 1s    0.68193
                                    4 1s    0.67919     5 1s    0.68193     5 1s    0.67919     6 1s   -0.68193     6 1s   -0.67919
   27.1     0.00000     1.74196     1 3d1+  0.61805     2 3d1+ -0.61805
   28.1     0.00000     1.82242     1 3d2-  0.68053     2 3d2-  0.68053
   29.1     0.00000     2.13483     1 3d2-  0.73706     2 3d2- -0.73706
   30.1     0.00000     2.17357     1 1s   -0.57243     1 3d2+  0.71197     2 1s   -0.57243     2 3d2+  0.71197     3 1s    0.35279
                                    4 1s    0.35279     5 1s    0.35279     6 1s    0.35279
   31.1     0.00000     2.28013     1 3d1-  0.67878     2 3d1- -0.67878     3 1s   -0.48589     4 1s    0.48589     5 1s   -0.48589
                                    6 1s    0.48589
   32.1     0.00000     2.41360     1 1s   -0.50836     1 2pz   0.29476     1 2pz  -0.44052     1 3d0   0.69797     2 1s   -0.50836
                                    2 2pz  -0.29476     2 2pz   0.44052     2 3d0   0.69797
   33.1     0.00000     2.58574     1 1s    0.31211     1 1s   -1.29691     1 2pz   0.26592     1 3d2+  0.78864     2 1s   -0.31211
                                    2 1s    1.29691     2 2pz   0.26592     2 3d2+ -0.78864     3 1s    0.41295     4 1s    0.41295
                                    5 1s   -0.41295     6 1s   -0.41295
   34.1     0.00000     2.71596     1 2px  -0.26596     1 3d1+  0.90727     2 2px   0.26596     2 3d1+  0.90727
   35.1     0.00000     3.01871     1 2py   0.45779     1 3d1-  0.95957     2 2py  -0.45779     2 3d1-  0.95957     3 1s   -0.43337
                                    4 1s    0.43337     5 1s    0.43337     6 1s   -0.43337
   36.1     0.00000     3.07155     1 1s    0.33682     1 1s    2.04931     1 2pz  -0.81423     1 2pz  -1.18243     1 3d0   1.11720
                                    2 1s   -0.33682     2 1s   -2.04931     2 2pz  -0.81423     2 2pz  -1.18243     2 3d0  -1.11720


 HOMO      8.1    -0.372681 =     -10.1412eV
 LUMO      9.1     0.179972 =       4.8973eV
 LUMO-HOMO         0.552653 =      15.0384eV


 **********************************************************************************************************************************
 DATASETS  * FILE   NREC   LENGTH (MB)   RECORD NAMES
              1      19       30.63       500      610      700      900      950      970     1000      129      960     1100   
                                          VAR    BASINP    GEOM    SYMINP    ZMAT    AOBASIS   BASIS     P2S    ABASIS      S 
                                         1400     1410     1200     1210     1080     1600     1650     1300     1700   
                                           T        V       H0       H01     AOSYM     SMH    MOLCAS    ERIS     OPER   

              2       4        2.86       700     1000      520     2100   
                                         GEOM     BASIS   MCVARS     RHF  

 PROGRAMS   *        TOTAL    HF-SCF       INT
 CPU TIMES  *         0.46      0.10      0.26
 REAL TIME  *         0.69 SEC
 DISK USED  *        35.45 MB
 **********************************************************************************************************************************


 PROGRAM * MULTI (Direct Multiconfiguration SCF)       Authors: P.J. Knowles, H.-J. Werner (1984)


 Number of closed-shell orbitals:   7 (   7 )
 Number of active  orbitals:        2 (   2 )
 Number of external orbitals:      27 (  27 )

 State symmetry 1

 Number of electrons:     2    Spin symmetry=Singlet   Space symmetry=1
 Number of states:        3
 Number of CSFs:          3   (4 determinants, 4 intermediate states)

 Molecular orbitals read from record     2100.2  Type=RHF/CANONICAL (state 1.1)

 EXTRA SYMMETRY OF MOS IN SYMMETRY 1:   1 1 1 1 1 1 1 2 2 1   1 1 1 1 1 2 1 1 2 1   1 1 1 1 1 1 2 3 3 1   1 1 1 2 1 1

 Wavefunction dump at record             2140.2

 Convergence thresholds  0.10E-01 (gradient)  0.10E-05 (energy)  0.10E-02 (step length)

 Weight factors for state symmetry  1:    0.33333   0.33333   0.33333

 Number of orbital rotations:      257   (    14 Core/Active    189 Core/Virtual   0 Active/Active     54 Active/Virtual)
 Total number of variables:        269

 Micro-Iterations solved by the two-step solver

 ITER. MIC  NCI  NEG     ENERGY(VAR)     ENERGY(PROJ)   ENERGY CHANGE     GRAD(0)  GRAD(ORB)   GRAD(CI)     STEP       TIME

   1    3    3    0     -77.72218847     -77.72863930   -0.00645083    0.13427536 0.00000174 0.00000000  0.64D-01      0.07
   2    2    3    0     -77.72853283     -77.72853706   -0.00000423    0.00321226 0.00000210 0.00000000  0.17D-02      0.10
   3    2    3    0     -77.72853706     -77.72853706   -0.00000000    0.00000247 0.00000000 0.00000000  0.15D-05      0.13

 ** WVFN ****  CONVERGENCE REACHED, FINAL GRADIENT:  0.17D-11



 Results for state 1.1
 =====================

 !MCSCF STATE  1.1 Energy             -78.044382743863
 Nuclear energy                        32.97061187
 Kinetic energy                        77.89622359
 One electron energy                 -169.46329323
 Two electron energy                   58.44829861
 Virial ratio                           2.00190201

 !MCSCF STATE  1.1 Dipole moment        0.00000000     0.00000000     0.00000000
 Dipole moment /Debye                   0.00000000     0.00000000     0.00000000

 Results for state 2.1
 =====================

 !MCSCF STATE  2.1 Energy             -77.665633834152
 Nuclear energy                        32.97061187
 Kinetic energy                        78.07344883
 One electron energy                 -168.87396401
 Two electron energy                   58.23771831
 Virial ratio                           1.99477652

 !MCSCF STATE  2.1 Dipole moment        0.00000000     0.00000000     0.00000000
 Dipole moment /Debye                   0.00000000     0.00000000     0.00000000

 Results for state 3.1
 =====================

 !MCSCF STATE  3.1 Energy             -77.475594596140
 Nuclear energy                        32.97061187
 Kinetic energy                        78.25067406
 One electron energy                 -168.28463479
 Two electron energy                   57.83842832
 Virial ratio                           1.99009492

 !MCSCF STATE  3.1 Dipole moment        0.00000000     0.00000000     0.00000000
 Dipole moment /Debye                   0.00000000     0.00000000     0.00000000

 State-averaged charge density matrix saved on record  2140.2 (density set 1)

 !MCSCF trans         <2.1|DMZ|1.1>    -1.508762886318 au =    -3.834641576608 Debye
 !MCSCF trans         <3.1|DMZ|2.1>    -2.256544722526 au =    -5.735188935879 Debye


 NATURAL ORBITALS (state averaged)
 =================================

  Orbital  Occupation    Energy     Coefficients
    1.1     2.00000   -11.24957     1 1s    0.70421     2 1s    0.70421
    2.1     2.00000   -11.24820     1 1s    0.70454     2 1s   -0.70454
    3.1     2.00000    -1.03963     1 1s    0.31048     2 1s    0.31048
    4.1     2.00000    -0.78460     1 1s    0.29992     2 1s   -0.29992
    5.1     2.00000    -0.63997     1 2py   0.32370     2 2py   0.32370
    6.1     2.00000    -0.59395     1 2pz   0.40408     2 2pz  -0.40408
    7.1     2.00000    -0.49906     1 2py   0.30379     2 2py  -0.30379
    8.1     1.00000     0.03495     1 2px   0.38090     1 2px   0.68985     2 2px  -0.38090     2 2px  -0.68985
    9.1     1.00000    -0.22787     1 2px   0.35974     1 2px   0.31681     2 2px   0.35974     2 2px   0.31681
   10.1    -0.00000     0.25597     1 1s   -1.39600     1 2pz  -0.63318     2 1s   -1.39600     2 2pz   0.63318     3 1s    0.98737
                                    4 1s    0.98737     5 1s    0.98737     6 1s    0.98737
   11.1    -0.00000     0.27229     1 2py  -0.25530     1 2py  -0.75388     2 2py  -0.25530     2 2py  -0.75388     3 1s    1.02033
                                    4 1s   -1.02033     5 1s    1.02033     6 1s   -1.02033
   12.1    -0.00000     0.29443     1 1s    1.80276     2 1s   -1.80276     3 1s   -1.01710     4 1s   -1.01710     5 1s    1.01710
                                    6 1s    1.01710
   13.1    -0.00000     0.38387     1 2py   0.26057     1 2py   1.79298     2 2py  -0.26057     2 2py  -1.79298     3 1s   -1.52403
                                    4 1s    1.52403     5 1s    1.52403     6 1s   -1.52403
   14.1    -0.00000     0.48907     1 1s   -3.16925     1 2pz   2.95568     2 1s    3.16925     2 2pz   2.95568     3 1s   -0.54029
                                    4 1s   -0.54029     5 1s    0.54029     6 1s    0.54029
   15.1    -0.00000     0.65615     1 1s    0.28962     1 2pz  -0.54963     1 2pz   1.00541     2 1s    0.28962     2 2pz   0.54963
                                    2 2pz  -1.00541
   16.1    -0.00000     0.76583     1 2py  -0.41996     1 2py   0.73545     2 2py  -0.41996     2 2py   0.73545     3 1s   -0.39096
                                    4 1s    0.39096     5 1s   -0.39096     6 1s    0.39096
   17.1    -0.00000     0.76736     1 2px  -0.74470     1 2px   0.63478     2 2px  -0.74470     2 2px   0.63478
   18.1    -0.00000     0.86376     1 1s   -0.84830     1 1s    1.36546     1 2pz   0.39817     2 1s   -0.84830     2 1s    1.36546
                                    2 2pz  -0.39817     3 1s   -0.41521     4 1s   -0.41521     5 1s   -0.41521     6 1s   -0.41521
   19.1    -0.00000     0.87123     1 2px  -0.80327     1 2px   1.10810     2 2px   0.80327     2 2px  -1.10810
   20.1    -0.00000     0.94064     1 1s   -0.55713     1 2pz   0.59153     1 2pz  -0.48688     2 1s    0.55713     2 2pz   0.59153
                                    2 2pz  -0.48688     3 1s    0.40408     4 1s    0.40408     5 1s   -0.40408     6 1s   -0.40408
   21.1    -0.00000     1.07275     1 2py  -0.67009     1 2py   1.08200     2 2py  -0.67009     2 2py   1.08200     3 1s    0.38028
                                    3 1s   -1.03927     4 1s   -0.38028     4 1s    1.03927     5 1s    0.38028     5 1s   -1.03927
                                    6 1s   -0.38028     6 1s    1.03927
   22.1    -0.00000     1.12746     1 2py   0.90736     1 2py  -2.62938     2 2py  -0.90736     2 2py   2.62938     3 1s    1.36608
                                    4 1s   -1.36608     5 1s   -1.36608     6 1s    1.36608
   23.1    -0.00000     1.17700     1 1s    1.03441     1 1s   -1.69480     1 2pz   0.35610     1 2pz  -0.49233     2 1s    1.03441
                                    2 1s   -1.69480     2 2pz  -0.35610     2 2pz   0.49233     3 1s   -0.42952     3 1s    0.84947
                                    4 1s   -0.42952     4 1s    0.84947     5 1s   -0.42952     5 1s    0.84947     6 1s   -0.42952
                                    6 1s    0.84947
   24.1    -0.00000     1.18770     1 1s    0.56307     1 1s   -0.67070     1 2pz   0.64005     1 2pz  -1.16364     2 1s   -0.56307
                                    2 1s    0.67070     2 2pz   0.64005     2 2pz  -1.16364     3 1s   -0.44269     3 1s    0.95788
                                    4 1s   -0.44269     4 1s    0.95788     5 1s    0.44269     5 1s   -0.95788     6 1s    0.44269
                                    6 1s   -0.95788
   25.1    -0.00000     1.32491     1 1s   -1.57733     1 1s    5.37468     1 2pz   0.27455     1 2pz  -1.98155     2 1s    1.57733
                                    2 1s   -5.37468     2 2pz   0.27455     2 2pz  -1.98155     3 1s   -0.26481     4 1s   -0.26481
                                    5 1s    0.26481     6 1s    0.26481
   26.1    -0.00000     1.45629     1 2py   2.66281     2 2py  -2.66281     3 1s   -0.68117     3 1s   -0.67812     4 1s    0.68117
                                    4 1s    0.67812     5 1s    0.68117     5 1s    0.67812     6 1s   -0.68117     6 1s   -0.67812
   27.1    -0.00000     1.71625     1 3d1+  0.61776     2 3d1+ -0.61776
   28.1    -0.00000     1.80865     1 3d2-  0.68053     2 3d2-  0.68053
   29.1    -0.00000     2.11180     1 3d2-  0.73706     2 3d2- -0.73706
   30.1    -0.00000     2.15832     1 1s   -0.56875     1 3d2+  0.71165     2 1s   -0.56875     2 3d2+  0.71165     3 1s    0.35460
                                    4 1s    0.35460     5 1s    0.35460     6 1s    0.35460
   31.1    -0.00000     2.26374     1 3d1-  0.67707     2 3d1- -0.67707     3 1s   -0.48934     4 1s    0.48934     5 1s   -0.48934
                                    6 1s    0.48934
   32.1    -0.00000     2.39376     1 1s   -0.50636     1 2pz   0.30080     1 2pz  -0.44302     1 3d0   0.69783     2 1s   -0.50636
                                    2 2pz  -0.30080     2 2pz   0.44302     2 3d0   0.69783
   33.1    -0.00000     2.56594     1 1s    0.31322     1 1s   -1.30448     1 2pz   0.26525     1 3d2+  0.78791     2 1s   -0.31322
                                    2 1s    1.30448     2 2pz   0.26525     2 3d2+ -0.78791     3 1s    0.41594     4 1s    0.41594
                                    5 1s   -0.41594     6 1s   -0.41594
   34.1    -0.00000     2.69362     1 2px  -0.26675     1 3d1+  0.90765     2 2px   0.26675     2 3d1+  0.90765
   35.1    -0.00000     3.00589     1 2py   0.45760     1 3d1-  0.95924     2 2py  -0.45760     2 3d1-  0.95924     3 1s   -0.43556
                                    4 1s    0.43556     5 1s    0.43556     6 1s   -0.43556
   36.1    -0.00000     3.05360     1 1s    0.32970     1 1s    2.07476     1 2pz  -0.80669     1 2pz  -1.19590     1 3d0   1.11888
                                    2 1s   -0.32970     2 1s   -2.07476     2 2pz  -0.80669     2 2pz  -1.19590     2 3d0  -1.11888


 EXTRA SYMMETRY OF MOS IN SYMMETRY 1:   1 1 1 1 1 1 1 2 2 1   1 1 1 1 1 1 2 1 2 1   1 1 1 1 1 1 2 3 3 1   1 1 1 2 1 1

 Natural orbital dump (state averaged) at molpro section  2140.2    (Orbital set 2)



 **********************************************************************************************************************************
 DATASETS  * FILE   NREC   LENGTH (MB)   RECORD NAMES
              1      20       31.36       500      610      700      900      950      970     1000      129      960     1100   
                                          VAR    BASINP    GEOM    SYMINP    ZMAT    AOBASIS   BASIS     P2S    ABASIS      S 
                                         1400     1410     1200     1210     1080     1600     1650     1300     1700     1380   
                                           T        V       H0       H01     AOSYM     SMH    MOLCAS    ERIS     OPER     JKOP   

              2       5        5.42       700     1000      520     2100     2140   
                                         GEOM     BASIS   MCVARS     RHF     MCSCF   

 PROGRAMS   *        TOTAL     MULTI    HF-SCF       INT
 CPU TIMES  *         0.63      0.17      0.10      0.26
 REAL TIME  *         0.88 SEC
 DISK USED  *        38.54 MB
 **********************************************************************************************************************************
 Molecular orbitals read from record     2140.2  Type=MCSCF/NATURAL (state averaged)
 Occupation numbers read from record     2140.2  Type=MCSCF/NATURAL (state averaged)
 Orbital energies read from record       2140.2  Type=MCSCF/NATURAL (state averaged)
 Redundancy group numbers read from rec  2140.2  Type=MCSCF/NATURAL (state averaged)

 MULTI/6-31G* energy=    -77.475594596140

           MULTI          HF-SCF
    -77.47559460    -78.02720199
 **********************************************************************************************************************************
 Molpro calculation terminated
