
 Primary working directories    : /scratch.local/johan406.molpro_temp/molpro.wWsaKiK3oO
 Secondary working directories  : /scratch.local/johan406.molpro_temp/molpro.wWsaKiK3oO
 Wavefunction directory         : /home/goodpast/johan406/wfu/
 Main file repository           : /scratch.local/johan406.molpro_temp/molpro.wWsaKiK3oO/

 id        : roweumn

 Nodes     nprocs
 cn0117       1

 Using customized tuning parameters: mindgm=1; mindgv=20; mindgc=4; mindgr=1; noblas=0; minvec=7
 default implementation of scratch files=df  


 Variables initialized (934), CPU time= 0.01 sec
                                                                                 !leave this line blank
 
 gprint, orbitals=30
 memory, 125., m
 symmetry, nosym
 nelect=16
 basis=6-31g*
 
 geometry={
 C -0.0 0.0 0.6561
 C 0.0 0.0 -0.6561
 H 0.0 1.0267 1.3024
 H -0.0 -1.0267 1.3024
 H 0.0 1.0267 -1.3024
 H 0.0 -1.0267 -1.3024
 }
 
 hf
 {multi,
 closed 7
 occ 9
 wf,spin=0;STATE,3
 }
 
 Commands  initialized (763), CPU time= 0.01 sec, 617 directives.
 Default parameters read. Elapsed time= 0.08 sec

 Checking input...
 Passed
1


                                         ***  PROGRAM SYSTEM MOLPRO  ***
                                       Copyright, TTI GmbH Stuttgart, 2015
                                    Version 2019.2 linked Oct 25 2019 22:50:27


 **********************************************************************************************************************************
 LABEL *                                                                                 
  64 bit serial version                                                                  DATE: 26-Jan-23          TIME: 20:56:24  
 **********************************************************************************************************************************

 SHA1:             8dbd9ae1082e4ce945b0f27595c9eb2d4aa09004
 **********************************************************************************************************************************


 Variable memory set to  125000000 words,  buffer space 

 SETTING NELECT         =        16.00000000                                  
 SETTING BASIS          =    6-31G*
 ZSYMEL=NOSYM


Geometry recognized as XYZ



 Recomputing integrals since basis changed


 Using spherical harmonics

 Library entry C      S 6-31G                selected for orbital group  1
 Library entry C      P 6-31G                selected for orbital group  1
 Library entry C      D 6-31G*               selected for orbital group  1
 Library entry H      S 6-31G                selected for orbital group  2


 PROGRAM * SEWARD (Integral evaluation for generally contracted gaussian basis sets)     Author: Roland Lindh, 1990

 Geometry written to block  1 of record 700


 Point group  C1  



 ATOMIC COORDINATES

 NR  ATOM    CHARGE       X              Y              Z

   1  C       6.00    0.000000000    0.000000000    1.239849310
   2  C       6.00    0.000000000    0.000000000   -1.239849310
   3  H       1.00    0.000000000    1.940181812    2.461179305
   4  H       1.00    0.000000000   -1.940181812    2.461179305
   5  H       1.00    0.000000000    1.940181812   -2.461179305
   6  H       1.00    0.000000000   -1.940181812   -2.461179305

 Bond lengths in Bohr (Angstrom)

 1-2  2.479698621  1-3  2.292586404  1-4  2.292586404  2-5  2.292586404  2-6  2.292586404
     ( 1.312200000)     ( 1.213184479)     ( 1.213184479)     ( 1.213184479)     ( 1.213184479)

 Bond angles

  1-2-5  122.19010916   1-2-6  122.19010916   2-1-3  122.19010916   2-1-4  122.19010916

  3-1-4  115.61978169   5-2-6  115.61978169

 NUCLEAR CHARGE:                   16
 NUMBER OF PRIMITIVE AOS:          72
 NUMBER OF SYMMETRY AOS:           70
 NUMBER OF CONTRACTIONS:           36   (   36A   )
 NUMBER OF CORE ORBITALS:           2   (    2A   )
 NUMBER OF VALENCE ORBITALS:       12   (   12A   )


 NUCLEAR REPULSION ENERGY   31.97057887

 EXTRA SYMMETRY OF AOS IN SYMMETRY 1:   1 1 1 2 1 1 2 1 1 1   3 2 1 1 1 1 1 2 1 1   2 1 1 1 3 2 1 1 1 1   1 1 1 1 1 1

 Eigenvalues of metric

         1 0.779E-02 0.252E-01 0.518E-01 0.637E-01 0.977E-01 0.177E+00 0.225E+00 0.236E+00


 Contracted 2-electron integrals neglected if value below      1.0D-11
 AO integral compression algorithm  1   Integral accuracy      1.0D-11

     0.786 MB (compressed) written to integral file ( 37.1%)


 NUMBER OF SORTED TWO-ELECTRON INTEGRALS:     222111.     BUFFER LENGTH:  32768
 NUMBER OF SEGMENTS:   1  SEGMENT LENGTH:     222111      RECORD LENGTH: 524288

 Memory used in sort:       0.78 MW

 SORT1 READ      284735. AND WROTE       98124. INTEGRALS IN      1 RECORDS. CPU TIME:     0.01 SEC, REAL TIME:     0.00 SEC
 SORT2 READ       98124. AND WROTE      222111. INTEGRALS IN      3 RECORDS. CPU TIME:     0.02 SEC, REAL TIME:     0.02 SEC

 FILE SIZES:   FILE 1:    30.9 MBYTE,  FILE 4:     4.2 MBYTE,   TOTAL:     35.1 MBYTE

 OPERATOR DM      FOR CENTER  0  COORDINATES:    0.000000    0.000000    0.000000


 **********************************************************************************************************************************
 DATASETS  * FILE   NREC   LENGTH (MB)   RECORD NAMES
              1      19       30.63       500      610      700      900      950      970     1000      129      960     1100   
                                          VAR    BASINP    GEOM    SYMINP    ZMAT    AOBASIS   BASIS     P2S    ABASIS      S 
                                         1400     1410     1200     1210     1080     1600     1650     1300     1700   
                                           T        V       H0       H01     AOSYM     SMH    MOLCAS    ERIS     OPER   

 PROGRAMS   *        TOTAL       INT
 CPU TIMES  *         0.34      0.25
 REAL TIME  *         0.56 SEC
 DISK USED  *        35.45 MB
 **********************************************************************************************************************************


 PROGRAM * RHF-SCF (CLOSED SHELL)       Authors: W. Meyer, H.-J. Werner


 NUMBER OF ELECTRONS:       8+    8-    SPACE SYMMETRY=1    SPIN SYMMETRY: Singlet 
 CONVERGENCE THRESHOLDS:    1.00E-05 (Density)    1.00E-07 (Energy)
 MAX. NUMBER OF ITERATIONS:       60
 INTERPOLATION TYPE:            DIIS
 INTERPOLATION STEPS:              2 (START)      1 (STEP)
 LEVEL SHIFTS:                  0.00 (CLOSED)  0.00 (OPEN) 



 Orbital guess generated from atomic densities. Full valence occupancy:    8

 Molecular orbital dump at record        2100.2

 Initial occupancy:   8

 ITERATION    DDIFF          GRAD             ENERGY        2-EL.EN.            DIPOLE MOMENTS         DIIS   ORB.
    1      0.000D+00      0.000D+00       -77.96534981    116.184763    0.00000   -0.00000    0.00000    0    start
    2      0.000D+00      0.830D-02       -77.98605305    114.144934   -0.00000    0.00000   -0.00000    1    diag
    3      0.772D-02      0.318D-02       -77.98858944    114.893566    0.00000   -0.00000    0.00000    2    diag
    4      0.307D-02      0.745D-03       -77.98884279    114.778262   -0.00000    0.00000    0.00000    3    diag
    5      0.116D-02      0.906D-04       -77.98884703    114.783503   -0.00000    0.00000    0.00000    4    diag
    6      0.201D-03      0.146D-04       -77.98884715    114.782788   -0.00000   -0.00000   -0.00000    5    diag
    7      0.331D-04      0.203D-05       -77.98884715    114.782812    0.00000    0.00000    0.00000    6    diag
    8      0.372D-05      0.272D-06       -77.98884715    114.782799   -0.00000    0.00000   -0.00000    0    orth

 Final occupancy:   8

 !RHF STATE  1.1 Energy               -77.988847154228
 Nuclear energy                        31.97057887
 One-electron energy                 -167.35082545
 Two-electron energy                   57.39139942
 Virial quotient                       -1.00763934
 !RHF STATE  1.1 Dipole moment         -0.00000000     0.00000000    -0.00000000
 Dipole moment /Debye                  -0.00000000     0.00000000    -0.00000000

 ELECTRON ORBITALS
 =================

  Orbital  Occupation    Energy     Coefficients
    1.1     2.00000   -11.25583     1 1s    0.70421     2 1s    0.70421
    2.1     2.00000   -11.25402     1 1s    0.70466     2 1s   -0.70466
    3.1     2.00000    -1.02135     1 1s    0.30378     2 1s    0.30378
    4.1     2.00000    -0.73961     1 1s    0.27923     2 1s   -0.27923
    5.1     2.00000    -0.59951     1 2py   0.30839     2 2py   0.30839
    6.1     2.00000    -0.56976     1 2pz   0.39073     2 2pz  -0.39073
    7.1     2.00000    -0.46159     1 2py   0.27573     2 2py  -0.27573
    8.1     2.00000    -0.38233     1 2px   0.38068     1 2px   0.29807     2 2px   0.38068     2 2px   0.29807
    9.1     0.00000     0.18340     1 2px   0.34448     1 2px   0.74584     2 2px  -0.34448     2 2px  -0.74584
   10.1     0.00000     0.23458     1 1s   -1.17566     1 2pz  -0.57335     2 1s   -1.17566     2 2pz   0.57335     3 1s    0.86061
                                    4 1s    0.86061     5 1s    0.86061     6 1s    0.86061
   11.1     0.00000     0.24425     1 2py   0.26885     1 2py   0.65508     2 2py   0.26885     2 2py   0.65508     3 1s   -0.86458
                                    4 1s    0.86458     5 1s   -0.86458     6 1s    0.86458
   12.1     0.00000     0.26218     1 1s   -1.40593     2 1s    1.40593     3 1s    0.88777     4 1s    0.88777     5 1s   -0.88777
                                    6 1s   -0.88777
   13.1     0.00000     0.37985     1 2py   0.28101     1 2py   1.63939     2 2py  -0.28101     2 2py  -1.63939     3 1s   -1.30188
                                    4 1s    1.30188     5 1s    1.30188     6 1s   -1.30188
   14.1     0.00000     0.49588     1 1s   -3.65608     1 2pz   3.02143     2 1s    3.65608     2 2pz   3.02143     3 1s   -0.40744
                                    4 1s   -0.40744     5 1s    0.40744     6 1s    0.40744
   15.1     0.00000     0.66211     1 1s    0.32917     1 2pz  -0.55692     1 2pz   1.00850     2 1s    0.32917     2 2pz   0.55692
                                    2 2pz  -1.00850
   16.1     0.00000     0.76198     1 2px  -0.73120     1 2px   0.64147     2 2px  -0.73120     2 2px   0.64147
   17.1     0.00000     0.81425     1 2py  -0.43377     1 2py   0.63267     2 2py  -0.43377     2 2py   0.63267     3 1s   -0.42015
                                    4 1s    0.42015     5 1s   -0.42015     6 1s    0.42015
   18.1     0.00000     0.88092     1 1s   -0.75825     1 1s    1.05711     1 2pz   0.38935     2 1s   -0.75825     2 1s    1.05711
                                    2 2pz  -0.38935     3 1s   -0.45972     4 1s   -0.45972     5 1s   -0.45972     6 1s   -0.45972
   19.1     0.00000     0.88406     1 2px  -0.81981     1 2px   1.08697     2 2px   0.81981     2 2px  -1.08697
   20.1     0.00000     0.96981     1 1s   -0.27453     1 2pz   0.49767     2 1s    0.27453     2 2pz   0.49767     3 1s    0.47510
                                    3 1s   -0.27423     4 1s    0.47510     4 1s   -0.27423     5 1s   -0.47510     5 1s    0.27423
                                    6 1s   -0.47510     6 1s    0.27423
   21.1     0.00000     1.02567     1 2py  -0.65959     1 2py   1.02803     2 2py  -0.65959     2 2py   1.02803     3 1s    0.37256
                                    3 1s   -0.95323     4 1s   -0.37256     4 1s    0.95323     5 1s    0.37256     5 1s   -0.95323
                                    6 1s   -0.37256     6 1s    0.95323
   22.1     0.00000     1.07790     1 2py   0.84385     1 2py  -2.01051     2 2py  -0.84385     2 2py   2.01051     3 1s   -0.30467
                                    3 1s    1.08837     4 1s    0.30467     4 1s   -1.08837     5 1s    0.30467     5 1s   -1.08837
                                    6 1s   -0.30467     6 1s    1.08837
   23.1     0.00000     1.10218     1 1s    1.05786     1 1s   -1.63743     1 2pz   0.32016     1 2pz  -0.46339     2 1s    1.05786
                                    2 1s   -1.63743     2 2pz  -0.32016     2 2pz   0.46339     3 1s   -0.39394     3 1s    0.80362
                                    4 1s   -0.39394     4 1s    0.80362     5 1s   -0.39394     5 1s    0.80362     6 1s   -0.39394
                                    6 1s    0.80362
   24.1     0.00000     1.12195     1 1s    0.64459     1 1s   -1.10045     1 2pz   0.69339     1 2pz  -0.95981     2 1s   -0.64459
                                    2 1s    1.10045     2 2pz   0.69339     2 2pz  -0.95981     3 1s   -0.34363     3 1s    0.87860
                                    4 1s   -0.34363     4 1s    0.87860     5 1s    0.34363     5 1s   -0.87860     6 1s    0.34363
                                    6 1s   -0.87860
   25.1     0.00000     1.36455     1 1s   -1.53201     1 1s    5.31830     1 2pz   0.30809     1 2pz  -2.13942     2 1s    1.53201
                                    2 1s   -5.31830     2 2pz   0.30809     2 2pz  -2.13942
   26.1     0.00000     1.45868     1 2py  -0.34777     1 2py   2.69878     2 2py   0.34777     2 2py  -2.69878     3 1s   -0.64323
                                    3 1s   -0.58673     4 1s    0.64323     4 1s    0.58673     5 1s    0.64323     5 1s    0.58673
                                    6 1s   -0.64323     6 1s   -0.58673
   27.1     0.00000     1.74852     1 3d1+  0.61559     2 3d1+ -0.61559
   28.1     0.00000     1.82145     1 3d2-  0.67870     2 3d2-  0.67870
   29.1     0.00000     2.08689     1 1s   -0.48662     1 3d2+  0.69852     2 1s   -0.48662     2 3d2+  0.69852     3 1s    0.29349
                                    4 1s    0.29349     5 1s    0.29349     6 1s    0.29349
   30.1     0.00000     2.15056     1 3d2-  0.73941     2 3d2- -0.73941
   31.1     0.00000     2.15222     1 3d1-  0.64949     2 3d1- -0.64949     3 1s   -0.41159     4 1s    0.41159     5 1s   -0.41159
                                    6 1s    0.41159
   32.1     0.00000     2.43110     1 1s   -0.50954     1 2pz   0.30933     1 2pz  -0.43488     1 3d0   0.70969     2 1s   -0.50954
                                    2 2pz  -0.30933     2 2pz   0.43488     2 3d0   0.70969
   33.1     0.00000     2.48676     1 1s    0.33360     1 1s   -1.15091     1 3d2+  0.76676     2 1s   -0.33360     2 1s    1.15091
                                    2 3d2+ -0.76676     3 1s    0.34073     4 1s    0.34073     5 1s   -0.34073     6 1s   -0.34073
   34.1     0.00000     2.73502     1 2px  -0.26952     1 3d1+  0.91961     2 2px   0.26952     2 3d1+  0.91961
   35.1     0.00000     2.91511     1 3d1-  0.94157     2 3d1-  0.94157     3 1s   -0.32632     4 1s    0.32632     5 1s    0.32632
                                    6 1s   -0.32632
   36.1     0.00000     3.09527     1 1s    0.39497     1 1s    2.10250     1 2pz  -0.86461     1 2pz  -1.18736     1 3d0   1.13079
                                    2 1s   -0.39497     2 1s   -2.10250     2 2pz  -0.86461     2 2pz  -1.18736     2 3d0  -1.13079


 HOMO      8.1    -0.382333 =     -10.4038eV
 LUMO      9.1     0.183400 =       4.9906eV
 LUMO-HOMO         0.565733 =      15.3944eV


 **********************************************************************************************************************************
 DATASETS  * FILE   NREC   LENGTH (MB)   RECORD NAMES
              1      19       30.63       500      610      700      900      950      970     1000      129      960     1100   
                                          VAR    BASINP    GEOM    SYMINP    ZMAT    AOBASIS   BASIS     P2S    ABASIS      S 
                                         1400     1410     1200     1210     1080     1600     1650     1300     1700   
                                           T        V       H0       H01     AOSYM     SMH    MOLCAS    ERIS     OPER   

              2       4        2.86       700     1000      520     2100   
                                         GEOM     BASIS   MCVARS     RHF  

 PROGRAMS   *        TOTAL    HF-SCF       INT
 CPU TIMES  *         0.44      0.10      0.25
 REAL TIME  *         0.68 SEC
 DISK USED  *        35.45 MB
 **********************************************************************************************************************************


 PROGRAM * MULTI (Direct Multiconfiguration SCF)       Authors: P.J. Knowles, H.-J. Werner (1984)


 Number of closed-shell orbitals:   7 (   7 )
 Number of active  orbitals:        2 (   2 )
 Number of external orbitals:      27 (  27 )

 State symmetry 1

 Number of electrons:     2    Spin symmetry=Singlet   Space symmetry=1
 Number of states:        3
 Number of CSFs:          3   (4 determinants, 4 intermediate states)

 Molecular orbitals read from record     2100.2  Type=RHF/CANONICAL (state 1.1)

 EXTRA SYMMETRY OF MOS IN SYMMETRY 1:   1 1 1 1 1 1 1 2 2 1   1 1 1 1 1 2 1 1 2 1   1 1 1 1 1 1 2 3 1 3   1 1 1 2 1 1

 Wavefunction dump at record             2140.2

 Convergence thresholds  0.10E-01 (gradient)  0.10E-05 (energy)  0.10E-02 (step length)

 Weight factors for state symmetry  1:    0.33333   0.33333   0.33333

 Number of orbital rotations:      257   (    14 Core/Active    189 Core/Virtual   0 Active/Active     54 Active/Virtual)
 Total number of variables:        269

 Micro-Iterations solved by the two-step solver

 ITER. MIC  NCI  NEG     ENERGY(VAR)     ENERGY(PROJ)   ENERGY CHANGE     GRAD(0)  GRAD(ORB)   GRAD(CI)     STEP       TIME

   1    3    3    0     -77.67337764     -77.68037780   -0.00700016    0.13853783 0.00000237 0.00000000  0.66D-01      0.06
   2    2    3    0     -77.68024872     -77.68025436   -0.00000565    0.00367416 0.00000287 0.00000000  0.20D-02      0.10
   3    2    3    0     -77.68025437     -77.68025437   -0.00000000    0.00000344 0.00000000 0.00000000  0.21D-05      0.13

 ** WVFN ****  CONVERGENCE REACHED, FINAL GRADIENT:  0.35D-11



 Results for state 1.1
 =====================

 !MCSCF STATE  1.1 Energy             -78.004846918983
 Nuclear energy                        31.97057887
 Kinetic energy                        77.47738733
 One electron energy                 -167.53291660
 Two electron energy                   57.55749081
 Virial ratio                           2.00680792

 !MCSCF STATE  1.1 Dipole moment        0.00000000    -0.00000000    -0.00000000
 Dipole moment /Debye                   0.00000000    -0.00000000    -0.00000000

 Results for state 2.1
 =====================

 !MCSCF STATE  2.1 Energy             -77.618102412204
 Nuclear energy                        31.97057887
 Kinetic energy                        77.64802072
 One electron energy                 -166.90430708
 Two electron energy                   57.31562580
 Virial ratio                           1.99961469

 !MCSCF STATE  2.1 Dipole moment        0.00000000    -0.00000000    -0.00000000
 Dipole moment /Debye                   0.00000000    -0.00000000    -0.00000000

 Results for state 3.1
 =====================

 !MCSCF STATE  3.1 Energy             -77.417813768137
 Nuclear energy                        31.97057887
 Kinetic energy                        77.81865410
 One electron energy                 -166.27569756
 Two electron energy                   56.88730492
 Virial ratio                           1.99484905

 !MCSCF STATE  3.1 Dipole moment        0.00000000    -0.00000000    -0.00000000
 Dipole moment /Debye                   0.00000000    -0.00000000    -0.00000000

 State-averaged charge density matrix saved on record  2140.2 (density set 1)

 !MCSCF trans         <2.1|DMZ|1.1>    -1.502680188386 au =    -3.819181913199 Debye
 !MCSCF trans         <3.1|DMZ|2.1>    -2.212717212314 au =    -5.623797812472 Debye


 NATURAL ORBITALS (state averaged)
 =================================

  Orbital  Occupation    Energy     Coefficients
    1.1     2.00000   -11.27152     1 1s    0.70423     2 1s    0.70423
    2.1     2.00000   -11.26999     1 1s    0.70462     2 1s   -0.70462
    3.1     2.00000    -1.03837     1 1s    0.31141     2 1s    0.31141
    4.1     2.00000    -0.74696     1 1s    0.32974     2 1s   -0.32974
    5.1     2.00000    -0.61224     1 2py   0.31526     2 2py   0.31526
    6.1     2.00000    -0.58204     1 2pz   0.39135     2 2pz  -0.39135
    7.1     2.00000    -0.46678     1 2py   0.28290     2 2py  -0.28290
    8.1     1.00000     0.03801     1 2px   0.38452     1 2px   0.69575     2 2px  -0.38452     2 2px  -0.69575
    9.1     1.00000    -0.23482     1 2px   0.36525     1 2px   0.30959     2 2px   0.36525     2 2px   0.30959
   10.1    -0.00000     0.23280     1 1s   -1.17376     1 2pz  -0.57607     2 1s   -1.17376     2 2pz   0.57607     3 1s    0.86126
                                    4 1s    0.86126     5 1s    0.86126     6 1s    0.86126
   11.1    -0.00000     0.23432     1 2py   0.26681     1 2py   0.64333     2 2py   0.26681     2 2py   0.64333     3 1s   -0.85726
                                    4 1s    0.85726     5 1s   -0.85726     6 1s    0.85726
   12.1    -0.00000     0.25871     1 1s   -1.44009     2 1s    1.44009     3 1s    0.88283     4 1s    0.88283     5 1s   -0.88283
                                    6 1s   -0.88283
   13.1    -0.00000     0.37408     1 2py   0.28543     1 2py   1.62371     2 2py  -0.28543     2 2py  -1.62371     3 1s   -1.29513
                                    4 1s    1.29513     5 1s    1.29513     6 1s   -1.29513
   14.1    -0.00000     0.49368     1 1s   -3.62843     1 2pz   3.00664     2 1s    3.62843     2 2pz   3.00664     3 1s   -0.41940
                                    4 1s   -0.41940     5 1s    0.41940     6 1s    0.41940
   15.1    -0.00000     0.64877     1 1s    0.35817     1 2pz  -0.54329     1 2pz   0.99035     2 1s    0.35817     2 2pz   0.54329
                                    2 2pz  -0.99035
   16.1    -0.00000     0.75708     1 2px  -0.73784     1 2px   0.63638     2 2px  -0.73784     2 2px   0.63638
   17.1    -0.00000     0.80524     1 2py  -0.45089     1 2py   0.65273     2 2py  -0.45089     2 2py   0.65273     3 1s   -0.41157
                                    4 1s    0.41157     5 1s   -0.41157     6 1s    0.41157
   18.1    -0.00000     0.86680     1 2px  -0.80338     1 2px   1.11948     2 2px   0.80338     2 2px  -1.11948
   19.1    -0.00000     0.88080     1 1s   -0.75081     1 1s    1.06751     1 2pz   0.41845     2 1s   -0.75081     2 1s    1.06751
                                    2 2pz  -0.41845     3 1s   -0.45866     4 1s   -0.45866     5 1s   -0.45866     6 1s   -0.45866
   20.1    -0.00000     0.95330     1 2pz   0.51958     1 2pz  -0.31800     2 2pz   0.51958     2 2pz  -0.31800     3 1s    0.46557
                                    3 1s   -0.25613     4 1s    0.46557     4 1s   -0.25613     5 1s   -0.46557     5 1s    0.25613
                                    6 1s   -0.46557     6 1s    0.25613
   21.1    -0.00000     1.01177     1 2py  -0.64346     1 2py   1.02238     2 2py  -0.64346     2 2py   1.02238     3 1s    0.37858
                                    3 1s   -0.96243     4 1s   -0.37858     4 1s    0.96243     5 1s    0.37858     5 1s   -0.96243
                                    6 1s   -0.37858     6 1s    0.96243
   22.1    -0.00000     1.06609     1 2py   0.84101     1 2py  -2.03222     2 2py  -0.84101     2 2py   2.03222     3 1s   -0.30328
                                    3 1s    1.10006     4 1s    0.30328     4 1s   -1.10006     5 1s    0.30328     5 1s   -1.10006
                                    6 1s   -0.30328     6 1s    1.10006
   23.1    -0.00000     1.09919     1 1s    1.05282     1 1s   -1.63577     1 2pz   0.32590     1 2pz  -0.47232     2 1s    1.05282
                                    2 1s   -1.63577     2 2pz  -0.32590     2 2pz   0.47232     3 1s   -0.39496     3 1s    0.80448
                                    4 1s   -0.39496     4 1s    0.80448     5 1s   -0.39496     5 1s    0.80448     6 1s   -0.39496
                                    6 1s    0.80448
   24.1    -0.00000     1.12024     1 1s    0.62644     1 1s   -1.01036     1 2pz   0.68950     1 2pz  -0.99339     2 1s   -0.62644
                                    2 1s    1.01036     2 2pz   0.68950     2 2pz  -0.99339     3 1s   -0.35597     3 1s    0.88236
                                    4 1s   -0.35597     4 1s    0.88236     5 1s    0.35597     5 1s   -0.88236     6 1s    0.35597
                                    6 1s   -0.88236
   25.1    -0.00000     1.34465     1 1s   -1.54075     1 1s    5.33584     1 2pz   0.29956     1 2pz  -2.12741     2 1s    1.54075
                                    2 1s   -5.33584     2 2pz   0.29956     2 2pz  -2.12741
   26.1    -0.00000     1.45178     1 2py  -0.34768     1 2py   2.69087     2 2py   0.34768     2 2py  -2.69087     3 1s   -0.64387
                                    3 1s   -0.58258     4 1s    0.64387     4 1s    0.58258     5 1s    0.64387     5 1s    0.58258
                                    6 1s   -0.64387     6 1s   -0.58258
   27.1    -0.00000     1.72299     1 3d1+  0.61523     2 3d1+ -0.61523
   28.1    -0.00000     1.80818     1 3d2-  0.67870     2 3d2-  0.67870
   29.1    -0.00000     2.07235     1 1s   -0.48376     1 3d2+  0.69828     2 1s   -0.48376     2 3d2+  0.69828     3 1s    0.29490
                                    4 1s    0.29490     5 1s    0.29490     6 1s    0.29490
   30.1    -0.00000     2.12796     1 3d2-  0.73941     2 3d2- -0.73941
   31.1    -0.00000     2.13565     1 3d1-  0.64790     2 3d1- -0.64790     3 1s   -0.41507     4 1s    0.41507     5 1s   -0.41507
                                    6 1s    0.41507
   32.1    -0.00000     2.41217     1 1s   -0.50737     1 2pz   0.31542     1 2pz  -0.43713     1 3d0   0.70952     2 1s   -0.50737
                                    2 2pz  -0.31542     2 2pz   0.43713     2 3d0   0.70952
   33.1    -0.00000     2.46704     1 1s    0.33527     1 1s   -1.16217     1 3d2+  0.76606     2 1s   -0.33527     2 1s    1.16217
                                    2 3d2+ -0.76606     3 1s    0.34354     4 1s    0.34354     5 1s   -0.34354     6 1s   -0.34354
   34.1    -0.00000     2.71341     1 2px  -0.27038     1 3d1+  0.91999     2 2px   0.27038     2 3d1+  0.91999
   35.1    -0.00000     2.90249     1 3d1-  0.94144     2 3d1-  0.94144     3 1s   -0.32815     4 1s    0.32815     5 1s    0.32815
                                    6 1s   -0.32815
   36.1    -0.00000     3.07775     1 1s    0.38782     1 1s    2.12774     1 2pz  -0.85699     1 2pz  -1.20098     1 3d0   1.13256
                                    2 1s   -0.38782     2 1s   -2.12774     2 2pz  -0.85699     2 2pz  -1.20098     2 3d0  -1.13256


 EXTRA SYMMETRY OF MOS IN SYMMETRY 1:   1 1 1 1 1 1 1 2 2 1   1 1 1 1 1 2 1 2 1 1   1 1 1 1 1 1 2 3 1 3   1 1 1 2 1 1

 Natural orbital dump (state averaged) at molpro section  2140.2    (Orbital set 2)



 **********************************************************************************************************************************
 DATASETS  * FILE   NREC   LENGTH (MB)   RECORD NAMES
              1      20       31.35       500      610      700      900      950      970     1000      129      960     1100   
                                          VAR    BASINP    GEOM    SYMINP    ZMAT    AOBASIS   BASIS     P2S    ABASIS      S 
                                         1400     1410     1200     1210     1080     1600     1650     1300     1700     1380   
                                           T        V       H0       H01     AOSYM     SMH    MOLCAS    ERIS     OPER     JKOP   

              2       5        5.42       700     1000      520     2100     2140   
                                         GEOM     BASIS   MCVARS     RHF     MCSCF   

 PROGRAMS   *        TOTAL     MULTI    HF-SCF       INT
 CPU TIMES  *         0.61      0.17      0.10      0.25
 REAL TIME  *         0.87 SEC
 DISK USED  *        38.54 MB
 **********************************************************************************************************************************
 Molecular orbitals read from record     2140.2  Type=MCSCF/NATURAL (state averaged)
 Occupation numbers read from record     2140.2  Type=MCSCF/NATURAL (state averaged)
 Orbital energies read from record       2140.2  Type=MCSCF/NATURAL (state averaged)
 Redundancy group numbers read from rec  2140.2  Type=MCSCF/NATURAL (state averaged)

 MULTI/6-31G* energy=    -77.417813768137

           MULTI          HF-SCF
    -77.41781377    -77.98884715
 **********************************************************************************************************************************
 Molpro calculation terminated
