
 Primary working directories    : /scratch.local/johan406.molpro_temp/molpro.GBpNkhp7AX
 Secondary working directories  : /scratch.local/johan406.molpro_temp/molpro.GBpNkhp7AX
 Wavefunction directory         : /home/goodpast/johan406/wfu/
 Main file repository           : /scratch.local/johan406.molpro_temp/molpro.GBpNkhp7AX/

 id        : roweumn

 Nodes     nprocs
 cn0117       1

 Using customized tuning parameters: mindgm=1; mindgv=20; mindgc=4; mindgr=1; noblas=0; minvec=7
 default implementation of scratch files=df  


 Variables initialized (934), CPU time= 0.01 sec
                                                                                 !leave this line blank
 
 gprint, orbitals=30
 memory, 125., m
 symmetry, nosym
 nelect=16
 basis=6-31g*
 
 geometry={
 C -0.0 0.0 0.6555
 C 0.0 0.0 -0.6555
 H 0.0 1.0319 1.3055
 H -0.0 -1.0319 1.3055
 H 0.0 1.0319 -1.3055
 H 0.0 -1.0319 -1.3055
 }
 
 hf
 {multi,
 closed 7
 occ 9
 wf,spin=0;STATE,3
 }
 
 Commands  initialized (763), CPU time= 0.01 sec, 617 directives.
 Default parameters read. Elapsed time= 0.08 sec

 Checking input...
 Passed
1


                                         ***  PROGRAM SYSTEM MOLPRO  ***
                                       Copyright, TTI GmbH Stuttgart, 2015
                                    Version 2019.2 linked Oct 25 2019 22:50:27


 **********************************************************************************************************************************
 LABEL *                                                                                 
  64 bit serial version                                                                  DATE: 26-Jan-23          TIME: 20:56:42  
 **********************************************************************************************************************************

 SHA1:             8dbd9ae1082e4ce945b0f27595c9eb2d4aa09004
 **********************************************************************************************************************************


 Variable memory set to  125000000 words,  buffer space 

 SETTING NELECT         =        16.00000000                                  
 SETTING BASIS          =    6-31G*
 ZSYMEL=NOSYM


Geometry recognized as XYZ



 Recomputing integrals since basis changed


 Using spherical harmonics

 Library entry C      S 6-31G                selected for orbital group  1
 Library entry C      P 6-31G                selected for orbital group  1
 Library entry C      D 6-31G*               selected for orbital group  1
 Library entry H      S 6-31G                selected for orbital group  2


 PROGRAM * SEWARD (Integral evaluation for generally contracted gaussian basis sets)     Author: Roland Lindh, 1990

 Geometry written to block  1 of record 700


 Point group  C1  



 ATOMIC COORDINATES

 NR  ATOM    CHARGE       X              Y              Z

   1  C       6.00    0.000000000    0.000000000    1.238715475
   2  C       6.00    0.000000000    0.000000000   -1.238715475
   3  H       1.00    0.000000000    1.950008388    2.467037456
   4  H       1.00    0.000000000   -1.950008388    2.467037456
   5  H       1.00    0.000000000    1.950008388   -2.467037456
   6  H       1.00    0.000000000   -1.950008388   -2.467037456

 Bond lengths in Bohr (Angstrom)

 1-2  2.477430949  1-3  2.304627432  1-4  2.304627432  2-5  2.304627432  2-6  2.304627432
     ( 1.311000000)     ( 1.219556317)     ( 1.219556317)     ( 1.219556317)     ( 1.219556317)

 Bond angles

  1-2-5  122.20707196   1-2-6  122.20707196   2-1-3  122.20707196   2-1-4  122.20707196

  3-1-4  115.58585607   5-2-6  115.58585607

 NUCLEAR CHARGE:                   16
 NUMBER OF PRIMITIVE AOS:          72
 NUMBER OF SYMMETRY AOS:           70
 NUMBER OF CONTRACTIONS:           36   (   36A   )
 NUMBER OF CORE ORBITALS:           2   (    2A   )
 NUMBER OF VALENCE ORBITALS:       12   (   12A   )


 NUCLEAR REPULSION ENERGY   31.91252255

 EXTRA SYMMETRY OF AOS IN SYMMETRY 1:   1 1 1 2 1 1 2 1 1 1   3 2 1 1 1 1 1 2 1 1   2 1 1 1 3 2 1 1 1 1   1 1 1 1 1 1

 Eigenvalues of metric

         1 0.776E-02 0.256E-01 0.525E-01 0.646E-01 0.990E-01 0.176E+00 0.225E+00 0.236E+00


 Contracted 2-electron integrals neglected if value below      1.0D-11
 AO integral compression algorithm  1   Integral accuracy      1.0D-11

     0.786 MB (compressed) written to integral file ( 37.1%)


 NUMBER OF SORTED TWO-ELECTRON INTEGRALS:     222111.     BUFFER LENGTH:  32768
 NUMBER OF SEGMENTS:   1  SEGMENT LENGTH:     222111      RECORD LENGTH: 524288

 Memory used in sort:       0.78 MW

 SORT1 READ      284735. AND WROTE       98108. INTEGRALS IN      1 RECORDS. CPU TIME:     0.00 SEC, REAL TIME:     0.01 SEC
 SORT2 READ       98108. AND WROTE      222111. INTEGRALS IN      3 RECORDS. CPU TIME:     0.02 SEC, REAL TIME:     0.02 SEC

 FILE SIZES:   FILE 1:    30.9 MBYTE,  FILE 4:     4.2 MBYTE,   TOTAL:     35.1 MBYTE

 OPERATOR DM      FOR CENTER  0  COORDINATES:    0.000000    0.000000    0.000000


 **********************************************************************************************************************************
 DATASETS  * FILE   NREC   LENGTH (MB)   RECORD NAMES
              1      19       30.63       500      610      700      900      950      970     1000      129      960     1100   
                                          VAR    BASINP    GEOM    SYMINP    ZMAT    AOBASIS   BASIS     P2S    ABASIS      S 
                                         1400     1410     1200     1210     1080     1600     1650     1300     1700   
                                           T        V       H0       H01     AOSYM     SMH    MOLCAS    ERIS     OPER   

 PROGRAMS   *        TOTAL       INT
 CPU TIMES  *         0.36      0.26
 REAL TIME  *         0.56 SEC
 DISK USED  *        35.45 MB
 **********************************************************************************************************************************


 PROGRAM * RHF-SCF (CLOSED SHELL)       Authors: W. Meyer, H.-J. Werner


 NUMBER OF ELECTRONS:       8+    8-    SPACE SYMMETRY=1    SPIN SYMMETRY: Singlet 
 CONVERGENCE THRESHOLDS:    1.00E-05 (Density)    1.00E-07 (Energy)
 MAX. NUMBER OF ITERATIONS:       60
 INTERPOLATION TYPE:            DIIS
 INTERPOLATION STEPS:              2 (START)      1 (STEP)
 LEVEL SHIFTS:                  0.00 (CLOSED)  0.00 (OPEN) 



 Orbital guess generated from atomic densities. Full valence occupancy:    8

 Molecular orbital dump at record        2100.2

 Initial occupancy:   8

 ITERATION    DDIFF          GRAD             ENERGY        2-EL.EN.            DIPOLE MOMENTS         DIIS   ORB.
    1      0.000D+00      0.000D+00       -77.96180608    116.081210   -0.00000    0.00000   -0.00000    0    start
    2      0.000D+00      0.829D-02       -77.98248639    114.028267   -0.00000    0.00000   -0.00000    1    diag
    3      0.771D-02      0.320D-02       -77.98505262    114.783679   -0.00000    0.00000   -0.00000    2    diag
    4      0.309D-02      0.747D-03       -77.98530918    114.667568   -0.00000    0.00000   -0.00000    3    diag
    5      0.117D-02      0.921D-04       -77.98531360    114.672941    0.00000   -0.00000   -0.00000    4    diag
    6      0.205D-03      0.150D-04       -77.98531373    114.672210   -0.00000    0.00000    0.00000    5    diag
    7      0.340D-04      0.208D-05       -77.98531373    114.672235   -0.00000    0.00000   -0.00000    6    diag
    8      0.383D-05      0.278D-06       -77.98531373    114.672222    0.00000    0.00000    0.00000    0    orth

 Final occupancy:   8

 !RHF STATE  1.1 Energy               -77.985313730719
 Nuclear energy                        31.91252255
 One-electron energy                 -167.23394742
 Two-electron energy                   57.33611114
 Virial quotient                       -1.00789868
 !RHF STATE  1.1 Dipole moment          0.00000000     0.00000000     0.00000000
 Dipole moment /Debye                   0.00000000     0.00000000     0.00000000

 ELECTRON ORBITALS
 =================

  Orbital  Occupation    Energy     Coefficients
    1.1     2.00000   -11.25719     1 1s    0.70421     2 1s    0.70421
    2.1     2.00000   -11.25536     1 1s    0.70466     2 1s   -0.70466
    3.1     2.00000    -1.02135     1 1s    0.30387     2 1s    0.30387
    4.1     2.00000    -0.73735     1 1s    0.28075     2 1s   -0.28075
    5.1     2.00000    -0.59786     1 2py   0.30785     2 2py   0.30785
    6.1     2.00000    -0.56906     1 2pz   0.38997     2 2pz  -0.38997
    7.1     2.00000    -0.45972     1 2py   0.27437     2 2py  -0.27437
    8.1     2.00000    -0.38297     1 2px   0.38107     1 2px   0.29758     2 2px   0.38107     2 2px   0.29758
    9.1     0.00000     0.18362     1 2px   0.34466     1 2px   0.74630     2 2px  -0.34466     2 2px  -0.74630
   10.1     0.00000     0.23292     1 1s   -1.16272     1 2pz  -0.56966     2 1s   -1.16272     2 2pz   0.56966     3 1s    0.85313
                                    4 1s    0.85313     5 1s    0.85313     6 1s    0.85313
   11.1     0.00000     0.24183     1 2py   0.26953     1 2py   0.64867     2 2py   0.26953     2 2py   0.64867     3 1s   -0.85540
                                    4 1s    0.85540     5 1s   -0.85540     6 1s    0.85540
   12.1     0.00000     0.25974     1 1s   -1.38517     2 1s    1.38517     3 1s    0.87963     4 1s    0.87963     5 1s   -0.87963
                                    6 1s   -0.87963
   13.1     0.00000     0.37924     1 2py   0.28254     1 2py   1.62965     2 2py  -0.28254     2 2py  -1.62965     3 1s   -1.28887
                                    4 1s    1.28887     5 1s    1.28887     6 1s   -1.28887
   14.1     0.00000     0.49622     1 1s   -3.68280     1 2pz   3.02480     2 1s    3.68280     2 2pz   3.02480     3 1s   -0.40124
                                    4 1s   -0.40124     5 1s    0.40124     6 1s    0.40124
   15.1     0.00000     0.66158     1 1s    0.33298     1 2pz  -0.55625     1 2pz   1.00776     2 1s    0.33298     2 2pz   0.55625
                                    2 2pz  -1.00776
   16.1     0.00000     0.76127     1 2px  -0.73074     1 2px   0.64158     2 2px  -0.73074     2 2px   0.64158
   17.1     0.00000     0.81687     1 2py  -0.43579     1 2py   0.62841     2 2py  -0.43579     2 2py   0.62841     3 1s   -0.42145
                                    4 1s    0.42145     5 1s   -0.42145     6 1s    0.42145
   18.1     0.00000     0.88218     1 1s   -0.75159     1 1s    1.03973     1 2pz   0.39060     2 1s   -0.75159     2 1s    1.03973
                                    2 2pz  -0.39060     3 1s   -0.46238     4 1s   -0.46238     5 1s   -0.46238     6 1s   -0.46238
   19.1     0.00000     0.88376     1 2px  -0.81984     1 2px   1.08766     2 2px   0.81984     2 2px  -1.08766
   20.1     0.00000     0.97035     1 2pz   0.48959     2 2pz   0.48959     3 1s    0.47999     3 1s   -0.29154     4 1s    0.47999
                                    4 1s   -0.29154     5 1s   -0.47999     5 1s    0.29154     6 1s   -0.47999     6 1s    0.29154
   21.1     0.00000     1.02229     1 2py  -0.65786     1 2py   1.02434     2 2py  -0.65786     2 2py   1.02434     3 1s    0.37253
                                    3 1s   -0.94881     4 1s   -0.37253     4 1s    0.94881     5 1s    0.37253     5 1s   -0.94881
                                    6 1s   -0.37253     6 1s    0.94881
   22.1     0.00000     1.07393     1 2py   0.83929     1 2py  -1.98298     2 2py  -0.83929     2 2py   1.98298     3 1s   -0.30890
                                    3 1s    1.07666     4 1s    0.30890     4 1s   -1.07666     5 1s    0.30890     5 1s   -1.07666
                                    6 1s   -0.30890     6 1s    1.07666
   23.1     0.00000     1.09797     1 1s    1.05944     1 1s   -1.63398     1 2pz   0.31847     1 2pz  -0.46214     2 1s    1.05944
                                    2 1s   -1.63398     2 2pz  -0.31847     2 2pz   0.46214     3 1s   -0.39151     3 1s    0.80054
                                    4 1s   -0.39151     4 1s    0.80054     5 1s   -0.39151     5 1s    0.80054     6 1s   -0.39151
                                    6 1s    0.80054
   24.1     0.00000     1.11866     1 1s    0.64413     1 1s   -1.10972     1 2pz   0.69899     1 2pz  -0.95236     2 1s   -0.64413
                                    2 1s    1.10972     2 2pz   0.69899     2 2pz  -0.95236     3 1s   -0.33601     3 1s    0.87020
                                    4 1s   -0.33601     4 1s    0.87020     5 1s    0.33601     5 1s   -0.87020     6 1s    0.33601
                                    6 1s   -0.87020
   25.1     0.00000     1.36583     1 1s   -1.53111     1 1s    5.31908     1 2pz   0.30814     1 2pz  -2.14562     2 1s    1.53111
                                    2 1s   -5.31908     2 2pz   0.30814     2 2pz  -2.14562
   26.1     0.00000     1.45883     1 2py  -0.35771     1 2py   2.69154     2 2py   0.35771     2 2py  -2.69154     3 1s   -0.64120
                                    3 1s   -0.57757     4 1s    0.64120     4 1s    0.57757     5 1s    0.64120     5 1s    0.57757
                                    6 1s   -0.64120     6 1s   -0.57757
   27.1     0.00000     1.74891     1 3d1+  0.61544     2 3d1+ -0.61544
   28.1     0.00000     1.82126     1 3d2-  0.67858     2 3d2-  0.67858
   29.1     0.00000     2.08164     1 1s   -0.48145     1 3d2+  0.69761     2 1s   -0.48145     2 3d2+  0.69761     3 1s    0.28988
                                    4 1s    0.28988     5 1s    0.28988     6 1s    0.28988
   30.1     0.00000     2.14459     1 3d1-  0.64791     2 3d1- -0.64791     3 1s   -0.40731     4 1s    0.40731     5 1s   -0.40731
                                    6 1s    0.40731
   31.1     0.00000     2.15145     1 3d2-  0.73957     2 3d2- -0.73957
   32.1     0.00000     2.43224     1 1s   -0.50971     1 2pz   0.30980     1 2pz  -0.43487     1 3d0   0.71026     2 1s   -0.50971
                                    2 2pz  -0.30980     2 2pz   0.43487     2 3d0   0.71026
   33.1     0.00000     2.48091     1 1s    0.33359     1 1s   -1.14104     1 3d2+  0.76566     2 1s   -0.33359     2 1s    1.14104
                                    2 3d2+ -0.76566     3 1s    0.33657     4 1s    0.33657     5 1s   -0.33657     6 1s   -0.33657
   34.1     0.00000     2.73619     1 2px  -0.26974     1 3d1+  0.92042     2 2px   0.26974     2 3d1+  0.92042
   35.1     0.00000     2.90940     1 3d1-  0.94099     2 3d1-  0.94099     3 1s   -0.31995     4 1s    0.31995     5 1s    0.31995
                                    6 1s   -0.31995
   36.1     0.00000     3.09678     1 1s    0.39888     1 1s    2.10539     1 2pz  -0.86801     1 2pz  -1.18744     1 3d0   1.13165
                                    2 1s   -0.39888     2 1s   -2.10539     2 2pz  -0.86801     2 2pz  -1.18744     2 3d0  -1.13165


 HOMO      8.1    -0.382975 =     -10.4213eV
 LUMO      9.1     0.183618 =       4.9965eV
 LUMO-HOMO         0.566593 =      15.4178eV


 **********************************************************************************************************************************
 DATASETS  * FILE   NREC   LENGTH (MB)   RECORD NAMES
              1      19       30.63       500      610      700      900      950      970     1000      129      960     1100   
                                          VAR    BASINP    GEOM    SYMINP    ZMAT    AOBASIS   BASIS     P2S    ABASIS      S 
                                         1400     1410     1200     1210     1080     1600     1650     1300     1700   
                                           T        V       H0       H01     AOSYM     SMH    MOLCAS    ERIS     OPER   

              2       4        2.86       700     1000      520     2100   
                                         GEOM     BASIS   MCVARS     RHF  

 PROGRAMS   *        TOTAL    HF-SCF       INT
 CPU TIMES  *         0.45      0.09      0.26
 REAL TIME  *         0.69 SEC
 DISK USED  *        35.45 MB
 **********************************************************************************************************************************


 PROGRAM * MULTI (Direct Multiconfiguration SCF)       Authors: P.J. Knowles, H.-J. Werner (1984)


 Number of closed-shell orbitals:   7 (   7 )
 Number of active  orbitals:        2 (   2 )
 Number of external orbitals:      27 (  27 )

 State symmetry 1

 Number of electrons:     2    Spin symmetry=Singlet   Space symmetry=1
 Number of states:        3
 Number of CSFs:          3   (4 determinants, 4 intermediate states)

 Molecular orbitals read from record     2100.2  Type=RHF/CANONICAL (state 1.1)

 EXTRA SYMMETRY OF MOS IN SYMMETRY 1:   1 1 1 1 1 1 1 2 2 1   1 1 1 1 1 2 1 1 2 1   1 1 1 1 1 1 2 3 1 1   3 1 1 2 1 1

 Wavefunction dump at record             2140.2

 Convergence thresholds  0.10E-01 (gradient)  0.10E-05 (energy)  0.10E-02 (step length)

 Weight factors for state symmetry  1:    0.33333   0.33333   0.33333

 Number of orbital rotations:      257   (    14 Core/Active    189 Core/Virtual   0 Active/Active     54 Active/Virtual)
 Total number of variables:        269

 Micro-Iterations solved by the two-step solver

 ITER. MIC  NCI  NEG     ENERGY(VAR)     ENERGY(PROJ)   ENERGY CHANGE     GRAD(0)  GRAD(ORB)   GRAD(CI)     STEP       TIME

   1    3    3    0     -77.66915605     -77.67619195   -0.00703590    0.13880936 0.00000242 0.00000000  0.67D-01      0.06
   2    2    3    0     -77.67606132     -77.67606707   -0.00000575    0.00370481 0.00000293 0.00000000  0.20D-02      0.10
   3    2    3    0     -77.67606707     -77.67606707   -0.00000000    0.00000351 0.00000000 0.00000000  0.22D-05      0.13

 ** WVFN ****  CONVERGENCE REACHED, FINAL GRADIENT:  0.36D-11



 Results for state 1.1
 =====================

 !MCSCF STATE  1.1 Energy             -78.001242020055
 Nuclear energy                        31.91252255
 Kinetic energy                        77.45446582
 One electron energy                 -167.41831391
 Two electron energy                   57.50454934
 Virial ratio                           2.00705932

 !MCSCF STATE  1.1 Dipole moment        0.00000000    -0.00000000     0.00000000
 Dipole moment /Debye                   0.00000000    -0.00000000     0.00000000

 Results for state 2.1
 =====================

 !MCSCF STATE  2.1 Energy             -77.613956936707
 Nuclear energy                        31.91252255
 Kinetic energy                        77.62472773
 One electron energy                 -166.78726855
 Two electron energy                   57.26078906
 Virial ratio                           1.99986125

 !MCSCF STATE  2.1 Dipole moment        0.00000000    -0.00000000     0.00000000
 Dipole moment /Debye                   0.00000000    -0.00000000     0.00000000

 Results for state 3.1
 =====================

 !MCSCF STATE  3.1 Energy             -77.413002250621
 Nuclear energy                        31.91252255
 Kinetic energy                        77.79498963
 One electron energy                 -166.15622318
 Two electron energy                   56.83069838
 Virial ratio                           1.99508982

 !MCSCF STATE  3.1 Dipole moment        0.00000000    -0.00000000    -0.00000000
 Dipole moment /Debye                   0.00000000    -0.00000000    -0.00000000

 State-averaged charge density matrix saved on record  2140.2 (density set 1)

 !MCSCF trans         <2.1|DMZ|1.1>    -1.502223380876 au =    -3.818020900366 Debye
 !MCSCF trans         <3.1|DMZ|2.1>    -2.209944608547 au =    -5.616751018192 Debye


 NATURAL ORBITALS (state averaged)
 =================================

  Orbital  Occupation    Energy     Coefficients
    1.1     2.00000   -11.27286     1 1s    0.70423     2 1s    0.70423
    2.1     2.00000   -11.27132     1 1s    0.70462     2 1s   -0.70462
    3.1     2.00000    -1.03846     1 1s    0.31148     2 1s    0.31148
    4.1     2.00000    -0.74467     1 1s    0.33149     2 1s   -0.33149
    5.1     2.00000    -0.61058     1 2py   0.31478     2 2py   0.31478
    6.1     2.00000    -0.58121     1 2pz   0.39055     2 2pz  -0.39055
    7.1     2.00000    -0.46483     1 2py   0.28157     2 2py  -0.28157
    8.1     1.00000    -0.23528     1 2px   0.36563     1 2px   0.30911     2 2px   0.36563     2 2px   0.30911
    9.1     1.00000     0.03821     1 2px   0.38480     1 2px   0.69606     2 2px  -0.38480     2 2px  -0.69606
   10.1    -0.00000     0.23119     1 1s   -1.16092     1 2pz  -0.57224     2 1s   -1.16092     2 2pz   0.57224     3 1s    0.85382
                                    4 1s    0.85382     5 1s    0.85382     6 1s    0.85382
   11.1    -0.00000     0.23184     1 2py   0.26746     1 2py   0.63686     2 2py   0.26746     2 2py   0.63686     3 1s   -0.84817
                                    4 1s    0.84817     5 1s   -0.84817     6 1s    0.84817
   12.1    -0.00000     0.25627     1 1s   -1.41966     2 1s    1.41966     3 1s    0.87476     4 1s    0.87476     5 1s   -0.87476
                                    6 1s   -0.87476
   13.1    -0.00000     0.37340     1 2py   0.28700     1 2py   1.61390     2 2py  -0.28700     2 2py  -1.61390     3 1s   -1.28213
                                    4 1s    1.28213     5 1s    1.28213     6 1s   -1.28213
   14.1    -0.00000     0.49404     1 1s   -3.65504     1 2pz   3.01009     2 1s    3.65504     2 2pz   3.01009     3 1s   -0.41322
                                    4 1s   -0.41322     5 1s    0.41322     6 1s    0.41322
   15.1    -0.00000     0.64820     1 1s    0.36148     1 2pz  -0.54247     1 2pz   0.98991     2 1s    0.36148     2 2pz   0.54247
                                    2 2pz  -0.98991
   16.1    -0.00000     0.75643     1 2px  -0.73739     1 2px   0.63649     2 2px  -0.73739     2 2px   0.63649
   17.1    -0.00000     0.80792     1 2py  -0.45333     1 2py   0.64929     2 2py  -0.45333     2 2py   0.64929     3 1s   -0.41258
                                    4 1s    0.41258     5 1s   -0.41258     6 1s    0.41258
   18.1    -0.00000     0.86653     1 2px  -0.80337     1 2px   1.12027     2 2px   0.80337     2 2px  -1.12027
   19.1    -0.00000     0.88214     1 1s   -0.74412     1 1s    1.04958     1 2pz   0.41889     2 1s   -0.74412     2 1s    1.04958
                                    2 2pz  -0.41889     3 1s   -0.46130     4 1s   -0.46130     5 1s   -0.46130     6 1s   -0.46130
   20.1    -0.00000     0.95403     1 2pz   0.51294     1 2pz  -0.30686     2 2pz   0.51294     2 2pz  -0.30686     3 1s    0.46994
                                    3 1s   -0.27186     4 1s    0.46994     4 1s   -0.27186     5 1s   -0.46994     5 1s    0.27186
                                    6 1s   -0.46994     6 1s    0.27186
   21.1    -0.00000     1.00847     1 2py  -0.64136     1 2py   1.01819     2 2py  -0.64136     2 2py   1.01819     3 1s    0.37891
                                    3 1s   -0.95808     4 1s   -0.37891     4 1s    0.95808     5 1s    0.37891     5 1s   -0.95808
                                    6 1s   -0.37891     6 1s    0.95808
   22.1    -0.00000     1.06219     1 2py   0.83651     1 2py  -2.00514     2 2py  -0.83651     2 2py   2.00514     3 1s   -0.30742
                                    3 1s    1.08840     4 1s    0.30742     4 1s   -1.08840     5 1s    0.30742     5 1s   -1.08840
                                    6 1s   -0.30742     6 1s    1.08840
   23.1    -0.00000     1.09499     1 1s    1.05444     1 1s   -1.63251     1 2pz   0.32432     1 2pz  -0.47129     2 1s    1.05444
                                    2 1s   -1.63251     2 2pz  -0.32432     2 2pz   0.47129     3 1s   -0.39250     3 1s    0.80145
                                    4 1s   -0.39250     4 1s    0.80145     5 1s   -0.39250     5 1s    0.80145     6 1s   -0.39250
                                    6 1s    0.80145
   24.1    -0.00000     1.11688     1 1s    0.62654     1 1s   -1.01916     1 2pz   0.69433     1 2pz  -0.98633     2 1s   -0.62654
                                    2 1s    1.01916     2 2pz   0.69433     2 2pz  -0.98633     3 1s   -0.34938     3 1s    0.87494
                                    4 1s   -0.34938     4 1s    0.87494     5 1s    0.34938     5 1s   -0.87494     6 1s    0.34938
                                    6 1s   -0.87494
   25.1    -0.00000     1.34597     1 1s   -1.53968     1 1s    5.33621     1 2pz   0.29976     1 2pz  -2.13395     2 1s    1.53968
                                    2 1s   -5.33621     2 2pz   0.29976     2 2pz  -2.13395
   26.1    -0.00000     1.45198     1 2py  -0.35743     1 2py   2.68349     2 2py   0.35743     2 2py  -2.68349     3 1s   -0.64191
                                    3 1s   -0.57334     4 1s    0.64191     4 1s    0.57334     5 1s    0.64191     5 1s    0.57334
                                    6 1s   -0.64191     6 1s   -0.57334
   27.1    -0.00000     1.72340     1 3d1+  0.61508     2 3d1+ -0.61508
   28.1    -0.00000     1.80803     1 3d2-  0.67858     2 3d2-  0.67858
   29.1    -0.00000     2.06716     1 1s   -0.47863     1 3d2+  0.69738     2 1s   -0.47863     2 3d2+  0.69738     3 1s    0.29126
                                    4 1s    0.29126     5 1s    0.29126     6 1s    0.29126
   30.1    -0.00000     2.12801     1 3d1-  0.64632     2 3d1- -0.64632     3 1s   -0.41079     4 1s    0.41079     5 1s   -0.41079
                                    6 1s    0.41079
   31.1    -0.00000     2.12888     1 3d2-  0.73957     2 3d2- -0.73957
   32.1    -0.00000     2.41337     1 1s   -0.50754     1 2pz   0.31588     1 2pz  -0.43711     1 3d0   0.71009     2 1s   -0.50754
                                    2 2pz  -0.31588     2 2pz   0.43711     2 3d0   0.71009
   33.1    -0.00000     2.46120     1 1s    0.33528     1 1s   -1.15252     1 3d2+  0.76496     2 1s   -0.33528     2 1s    1.15252
                                    2 3d2+ -0.76496     3 1s    0.33937     4 1s    0.33937     5 1s   -0.33937     6 1s   -0.33937
   34.1    -0.00000     2.71463     1 2px  -0.27061     1 3d1+  0.92080     2 2px   0.27061     2 3d1+  0.92080
   35.1    -0.00000     2.89680     1 3d1-  0.94086     2 3d1-  0.94086     3 1s   -0.32176     4 1s    0.32176     5 1s    0.32176
                                    6 1s   -0.32176
   36.1    -0.00000     3.07928     1 1s    0.39173     1 1s    2.13064     1 2pz  -0.86037     1 2pz  -1.20106     1 3d0   1.13343
                                    2 1s   -0.39173     2 1s   -2.13064     2 2pz  -0.86037     2 2pz  -1.20106     2 3d0  -1.13343


 EXTRA SYMMETRY OF MOS IN SYMMETRY 1:   1 1 1 1 1 1 1 2 2 1   1 1 1 1 1 2 1 2 1 1   1 1 1 1 1 1 2 3 1 1   3 1 1 2 1 1

 Natural orbital dump (state averaged) at molpro section  2140.2    (Orbital set 2)



 **********************************************************************************************************************************
 DATASETS  * FILE   NREC   LENGTH (MB)   RECORD NAMES
              1      20       31.35       500      610      700      900      950      970     1000      129      960     1100   
                                          VAR    BASINP    GEOM    SYMINP    ZMAT    AOBASIS   BASIS     P2S    ABASIS      S 
                                         1400     1410     1200     1210     1080     1600     1650     1300     1700     1380   
                                           T        V       H0       H01     AOSYM     SMH    MOLCAS    ERIS     OPER     JKOP   

              2       5        5.42       700     1000      520     2100     2140   
                                         GEOM     BASIS   MCVARS     RHF     MCSCF   

 PROGRAMS   *        TOTAL     MULTI    HF-SCF       INT
 CPU TIMES  *         0.62      0.17      0.09      0.26
 REAL TIME  *         0.88 SEC
 DISK USED  *        38.54 MB
 **********************************************************************************************************************************
 Molecular orbitals read from record     2140.2  Type=MCSCF/NATURAL (state averaged)
 Occupation numbers read from record     2140.2  Type=MCSCF/NATURAL (state averaged)
 Orbital energies read from record       2140.2  Type=MCSCF/NATURAL (state averaged)
 Redundancy group numbers read from rec  2140.2  Type=MCSCF/NATURAL (state averaged)

 MULTI/6-31G* energy=    -77.413002250621

           MULTI          HF-SCF
    -77.41300225    -77.98531373
 **********************************************************************************************************************************
 Molpro calculation terminated
