
 Primary working directories    : /scratch.local/johan406.molpro_temp/molpro.1VfsHUVQo3
 Secondary working directories  : /scratch.local/johan406.molpro_temp/molpro.1VfsHUVQo3
 Wavefunction directory         : /home/goodpast/johan406/wfu/
 Main file repository           : /scratch.local/johan406.molpro_temp/molpro.1VfsHUVQo3/

 id        : roweumn

 Nodes     nprocs
 cn0117       1

 Using customized tuning parameters: mindgm=1; mindgv=20; mindgc=4; mindgr=1; noblas=0; minvec=7
 default implementation of scratch files=df  


 Variables initialized (934), CPU time= 0.01 sec
                                                                                 !leave this line blank
 
 gprint, orbitals=30
 memory, 125., m
 symmetry, nosym
 nelect=16
 basis=6-31g*
 
 geometry={
 C -0.0 0.0 0.6533
 C 0.0 0.0 -0.6533
 H 0.0 1.0508 1.3169
 H -0.0 -1.0508 1.3169
 H 0.0 1.0508 -1.3169
 H 0.0 -1.0508 -1.3169
 }
 
 hf
 {multi,
 closed 7
 occ 9
 wf,spin=0;STATE,3
 }
 
 Commands  initialized (763), CPU time= 0.01 sec, 617 directives.
 Default parameters read. Elapsed time= 0.09 sec

 Checking input...
 Passed
1


                                         ***  PROGRAM SYSTEM MOLPRO  ***
                                       Copyright, TTI GmbH Stuttgart, 2015
                                    Version 2019.2 linked Oct 25 2019 22:50:27


 **********************************************************************************************************************************
 LABEL *                                                                                 
  64 bit serial version                                                                  DATE: 26-Jan-23          TIME: 20:57:45  
 **********************************************************************************************************************************

 SHA1:             8dbd9ae1082e4ce945b0f27595c9eb2d4aa09004
 **********************************************************************************************************************************


 Variable memory set to  125000000 words,  buffer space 

 SETTING NELECT         =        16.00000000                                  
 SETTING BASIS          =    6-31G*
 ZSYMEL=NOSYM


Geometry recognized as XYZ



 Recomputing integrals since basis changed


 Using spherical harmonics

 Library entry C      S 6-31G                selected for orbital group  1
 Library entry C      P 6-31G                selected for orbital group  1
 Library entry C      D 6-31G*               selected for orbital group  1
 Library entry H      S 6-31G                selected for orbital group  2


 PROGRAM * SEWARD (Integral evaluation for generally contracted gaussian basis sets)     Author: Roland Lindh, 1990

 Geometry written to block  1 of record 700


 Point group  C1  



 ATOMIC COORDINATES

 NR  ATOM    CHARGE       X              Y              Z

   1  C       6.00    0.000000000    0.000000000    1.234558077
   2  C       6.00    0.000000000    0.000000000   -1.234558077
   3  H       1.00    0.000000000    1.985724212    2.488580333
   4  H       1.00    0.000000000   -1.985724212    2.488580333
   5  H       1.00    0.000000000    1.985724212   -2.488580333
   6  H       1.00    0.000000000   -1.985724212   -2.488580333

 Bond lengths in Bohr (Angstrom)

 1-2  2.469116154  1-3  2.348546884  1-4  2.348546884  2-5  2.348546884  2-6  2.348546884
     ( 1.306600000)     ( 1.242797490)     ( 1.242797490)     ( 1.242797490)     ( 1.242797490)

 Bond angles

  1-2-5  122.27318249   1-2-6  122.27318249   2-1-3  122.27318249   2-1-4  122.27318249

  3-1-4  115.45363503   5-2-6  115.45363503

 NUCLEAR CHARGE:                   16
 NUMBER OF PRIMITIVE AOS:          72
 NUMBER OF SYMMETRY AOS:           70
 NUMBER OF CONTRACTIONS:           36   (   36A   )
 NUMBER OF CORE ORBITALS:           2   (    2A   )
 NUMBER OF VALENCE ORBITALS:       12   (   12A   )


 NUCLEAR REPULSION ENERGY   31.70649720

 EXTRA SYMMETRY OF AOS IN SYMMETRY 1:   1 1 1 2 1 1 2 1 1 1   3 2 1 1 1 1 1 2 1 1   2 1 1 1 3 2 1 1 1 1   1 1 1 1 1 1

 Eigenvalues of metric

         1 0.766E-02 0.272E-01 0.550E-01 0.678E-01 0.104E+00 0.173E+00 0.224E+00 0.235E+00


 Contracted 2-electron integrals neglected if value below      1.0D-11
 AO integral compression algorithm  1   Integral accuracy      1.0D-11

     0.786 MB (compressed) written to integral file ( 36.9%)


 NUMBER OF SORTED TWO-ELECTRON INTEGRALS:     222111.     BUFFER LENGTH:  32768
 NUMBER OF SEGMENTS:   1  SEGMENT LENGTH:     222111      RECORD LENGTH: 524288

 Memory used in sort:       0.78 MW

 SORT1 READ      284735. AND WROTE       98072. INTEGRALS IN      1 RECORDS. CPU TIME:     0.00 SEC, REAL TIME:     0.00 SEC
 SORT2 READ       98072. AND WROTE      222111. INTEGRALS IN      3 RECORDS. CPU TIME:     0.02 SEC, REAL TIME:     0.03 SEC

 FILE SIZES:   FILE 1:    30.9 MBYTE,  FILE 4:     4.2 MBYTE,   TOTAL:     35.1 MBYTE

 OPERATOR DM      FOR CENTER  0  COORDINATES:    0.000000    0.000000    0.000000


 **********************************************************************************************************************************
 DATASETS  * FILE   NREC   LENGTH (MB)   RECORD NAMES
              1      19       30.62       500      610      700      900      950      970     1000      129      960     1100   
                                          VAR    BASINP    GEOM    SYMINP    ZMAT    AOBASIS   BASIS     P2S    ABASIS      S 
                                         1400     1410     1200     1210     1080     1600     1650     1300     1700   
                                           T        V       H0       H01     AOSYM     SMH    MOLCAS    ERIS     OPER   

 PROGRAMS   *        TOTAL       INT
 CPU TIMES  *         0.34      0.24
 REAL TIME  *         0.57 SEC
 DISK USED  *        35.45 MB
 **********************************************************************************************************************************


 PROGRAM * RHF-SCF (CLOSED SHELL)       Authors: W. Meyer, H.-J. Werner


 NUMBER OF ELECTRONS:       8+    8-    SPACE SYMMETRY=1    SPIN SYMMETRY: Singlet 
 CONVERGENCE THRESHOLDS:    1.00E-05 (Density)    1.00E-07 (Energy)
 MAX. NUMBER OF ITERATIONS:       60
 INTERPOLATION TYPE:            DIIS
 INTERPOLATION STEPS:              2 (START)      1 (STEP)
 LEVEL SHIFTS:                  0.00 (CLOSED)  0.00 (OPEN) 



 Orbital guess generated from atomic densities. Full valence occupancy:    8

 Molecular orbital dump at record        2100.2

 Initial occupancy:   8

 ITERATION    DDIFF          GRAD             ENERGY        2-EL.EN.            DIPOLE MOMENTS         DIIS   ORB.
    1      0.000D+00      0.000D+00       -77.94800689    115.713935    0.00000   -0.00000   -0.00000    0    start
    2      0.000D+00      0.828D-02       -77.96862975    113.609863    0.00000    0.00000   -0.00000    1    diag
    3      0.768D-02      0.327D-02       -77.97131520    114.391216   -0.00000    0.00000   -0.00000    2    diag
    4      0.319D-02      0.756D-03       -77.97158460    114.272174   -0.00000   -0.00000   -0.00000    3    diag
    5      0.120D-02      0.981D-04       -77.97158975    114.278042   -0.00000   -0.00000   -0.00000    4    diag
    6      0.221D-03      0.163D-04       -77.97158991    114.277251    0.00000    0.00000   -0.00000    5    diag
    7      0.372D-04      0.227D-05       -77.97158991    114.277284   -0.00000    0.00000   -0.00000    6    diag
    8      0.425D-05      0.301D-06       -77.97158991    114.277269    0.00000   -0.00000   -0.00000    0    orth

 Final occupancy:   8

 !RHF STATE  1.1 Energy               -77.971589908319
 Nuclear energy                        31.70649720
 One-electron energy                 -166.81672149
 Two-electron energy                   57.13863439
 Virial quotient                       -1.00878683
 !RHF STATE  1.1 Dipole moment          0.00000000    -0.00000000    -0.00000000
 Dipole moment /Debye                   0.00000000    -0.00000000    -0.00000000

 ELECTRON ORBITALS
 =================

  Orbital  Occupation    Energy     Coefficients
    1.1     2.00000   -11.26204     1 1s    0.70421     2 1s    0.70421
    2.1     2.00000   -11.26017     1 1s    0.70468     2 1s   -0.70468
    3.1     2.00000    -1.02153     1 1s    0.30421     2 1s    0.30421
    4.1     2.00000    -0.72924     1 1s    0.28613     2 1s   -0.28613
    5.1     2.00000    -0.59192     1 2py   0.30595     2 2py   0.30595
    6.1     2.00000    -0.56648     1 2pz   0.38720     2 2pz  -0.38720
    7.1     2.00000    -0.45299     1 2py   0.26945     2 2py  -0.26945
    8.1     2.00000    -0.38534     1 2px   0.38248     1 2px   0.29576     2 2px   0.38248     2 2px   0.29576
    9.1     0.00000     0.18442     1 2px   0.34539     1 2px   0.74795     2 2px  -0.34539     2 2px  -0.74795
   10.1     0.00000     0.22677     1 1s   -1.11698     1 2pz  -0.55621     2 1s   -1.11698     2 2pz   0.55621     3 1s    0.82659
                                    4 1s    0.82659     5 1s    0.82659     6 1s    0.82659
   11.1     0.00000     0.23293     1 2py   0.27194     1 2py   0.62581     2 2py   0.27194     2 2py   0.62581     3 1s   -0.82310
                                    4 1s    0.82310     5 1s   -0.82310     6 1s    0.82310
   12.1     0.00000     0.25073     1 1s   -1.31231     2 1s    1.31231     3 1s    0.85056     4 1s    0.85056     5 1s   -0.85056
                                    6 1s   -0.85056
   13.1     0.00000     0.37698     1 2py   0.28810     1 2py   1.59499     2 2py  -0.28810     2 2py  -1.59499     3 1s   -1.24281
                                    4 1s    1.24281     5 1s    1.24281     6 1s   -1.24281
   14.1     0.00000     0.49754     1 1s   -3.77838     1 2pz   3.03787     2 1s    3.77838     2 2pz   3.03787     3 1s   -0.38033
                                    4 1s   -0.38033     5 1s    0.38033     6 1s    0.38033
   15.1     0.00000     0.65957     1 1s    0.34588     1 2pz  -0.55339     1 2pz   1.00559     2 1s    0.34588     2 2pz   0.55339
                                    2 2pz  -1.00559
   16.1     0.00000     0.75868     1 2px  -0.72907     1 2px   0.64196     2 2px  -0.72907     2 2px   0.64196
   17.1     0.00000     0.82650     1 2py  -0.44384     1 2py   0.61483     2 2py  -0.44384     2 2py   0.61483     3 1s   -0.42574
                                    4 1s    0.42574     5 1s   -0.42574     6 1s    0.42574
   18.1     0.00000     0.88269     1 2px  -0.81992     1 2px   1.09025     2 2px   0.81992     2 2px  -1.09025
   19.1     0.00000     0.88705     1 1s   -0.72697     1 1s    0.97776     1 2pz   0.39463     2 1s   -0.72697     2 1s    0.97776
                                    2 2pz  -0.39463     3 1s   -0.47188     4 1s   -0.47188     5 1s   -0.47188     6 1s   -0.47188
   20.1     0.00000     0.97209     1 2pz   0.45681     2 2pz   0.45681     3 1s    0.49805     3 1s   -0.35479     4 1s    0.49805
                                    4 1s   -0.35479     5 1s   -0.49805     5 1s    0.35479     6 1s   -0.49805     6 1s    0.35479
   21.1     0.00000     1.01053     1 2py  -0.65104     1 2py   1.01023     2 2py  -0.65104     2 2py   1.01023     3 1s    0.37303
                                    3 1s   -0.93329     4 1s   -0.37303     4 1s    0.93329     5 1s    0.37303     5 1s   -0.93329
                                    6 1s   -0.37303     6 1s    0.93329
   22.1     0.00000     1.05968     1 2py   0.82291     1 2py  -1.89184     2 2py  -0.82291     2 2py   1.89184     3 1s   -0.32284
                                    3 1s    1.03809     4 1s    0.32284     4 1s   -1.03809     5 1s    0.32284     5 1s   -1.03809
                                    6 1s   -0.32284     6 1s    1.03809
   23.1     0.00000     1.08335     1 1s    1.06545     1 1s   -1.62167     1 2pz   0.31274     1 2pz  -0.45788     2 1s    1.06545
                                    2 1s   -1.62167     2 2pz  -0.31274     2 2pz   0.45788     3 1s   -0.38251     3 1s    0.78909
                                    4 1s   -0.38251     4 1s    0.78909     5 1s   -0.38251     5 1s    0.78909     6 1s   -0.38251
                                    6 1s    0.78909
   24.1     0.00000     1.10775     1 1s    0.64004     1 1s   -1.13715     1 2pz   0.72050     1 2pz  -0.92543     2 1s   -0.64004
                                    2 1s    1.13715     2 2pz   0.72050     2 2pz  -0.92543     3 1s   -0.30616     3 1s    0.83607
                                    4 1s   -0.30616     4 1s    0.83607     5 1s    0.30616     5 1s   -0.83607     6 1s    0.30616
                                    6 1s   -0.83607
   25.1     0.00000     1.37048     1 1s   -1.52820     1 1s    5.32353     1 2pz   0.30796     1 2pz  -2.16719     2 1s    1.52820
                                    2 1s   -5.32353     2 2pz   0.30796     2 2pz  -2.16719
   26.1     0.00000     1.45936     1 2py  -0.39114     1 2py   2.65882     2 2py   0.39114     2 2py  -2.65882     3 1s   -0.63418
                                    3 1s   -0.54246     4 1s    0.63418     4 1s    0.54246     5 1s    0.63418     5 1s    0.54246
                                    6 1s   -0.63418     6 1s   -0.54246
   27.1     0.00000     1.75034     1 3d1+  0.61490     2 3d1+ -0.61490
   28.1     0.00000     1.82049     1 3d2-  0.67813     2 3d2-  0.67813
   29.1     0.00000     2.06281     1 1s   -0.46295     1 3d2+  0.69438     2 1s   -0.46295     2 3d2+  0.69438     3 1s    0.27694
                                    4 1s    0.27694     5 1s    0.27694     6 1s    0.27694
   30.1     0.00000     2.11737     1 3d1-  0.64243     2 3d1- -0.64243     3 1s   -0.39207     4 1s    0.39207     5 1s   -0.39207
                                    6 1s    0.39207
   31.1     0.00000     2.15460     1 3d2-  0.74014     2 3d2- -0.74014
   32.1     0.00000     2.43639     1 1s   -0.51046     1 2pz   0.31123     1 2pz  -0.43507     1 3d0   0.71226     2 1s   -0.51046
                                    2 2pz  -0.31123     2 2pz   0.43507     2 3d0   0.71226
   33.1     0.00000     2.46004     1 1s    0.33226     1 1s   -1.10373     1 3d2+  0.76192     2 1s   -0.33226     2 1s    1.10373
                                    2 3d2+ -0.76192     3 1s    0.32171     4 1s    0.32171     5 1s   -0.32171     6 1s   -0.32171
   34.1     0.00000     2.74044     1 2px  -0.27053     1 3d1+  0.92341     2 2px   0.27053     2 3d1+  0.92341
   35.1     0.00000     2.88979     1 3d1-  0.93942     2 3d1-  0.93942     3 1s   -0.29721     4 1s    0.29721     5 1s    0.29721
                                    6 1s   -0.29721
   36.1     0.00000     3.10230     1 1s    0.41343     1 1s    2.11565     1 2pz  -0.88062     1 2pz  -1.18760     1 3d0   1.13480
                                    2 1s   -0.41343     2 1s   -2.11565     2 2pz  -0.88062     2 2pz  -1.18760     2 3d0  -1.13480


 HOMO      8.1    -0.385344 =     -10.4858eV
 LUMO      9.1     0.184419 =       5.0183eV
 LUMO-HOMO         0.569763 =      15.5040eV


 **********************************************************************************************************************************
 DATASETS  * FILE   NREC   LENGTH (MB)   RECORD NAMES
              1      19       30.62       500      610      700      900      950      970     1000      129      960     1100   
                                          VAR    BASINP    GEOM    SYMINP    ZMAT    AOBASIS   BASIS     P2S    ABASIS      S 
                                         1400     1410     1200     1210     1080     1600     1650     1300     1700   
                                           T        V       H0       H01     AOSYM     SMH    MOLCAS    ERIS     OPER   

              2       4        2.86       700     1000      520     2100   
                                         GEOM     BASIS   MCVARS     RHF  

 PROGRAMS   *        TOTAL    HF-SCF       INT
 CPU TIMES  *         0.44      0.10      0.24
 REAL TIME  *         0.69 SEC
 DISK USED  *        35.45 MB
 **********************************************************************************************************************************


 PROGRAM * MULTI (Direct Multiconfiguration SCF)       Authors: P.J. Knowles, H.-J. Werner (1984)


 Number of closed-shell orbitals:   7 (   7 )
 Number of active  orbitals:        2 (   2 )
 Number of external orbitals:      27 (  27 )

 State symmetry 1

 Number of electrons:     2    Spin symmetry=Singlet   Space symmetry=1
 Number of states:        3
 Number of CSFs:          3   (4 determinants, 4 intermediate states)

 Molecular orbitals read from record     2100.2  Type=RHF/CANONICAL (state 1.1)

 EXTRA SYMMETRY OF MOS IN SYMMETRY 1:   1 1 1 1 1 1 1 2 2 1   1 1 1 1 1 2 1 2 1 1   1 1 1 1 1 1 2 3 1 1   3 1 1 2 1 1

 Wavefunction dump at record             2140.2

 Convergence thresholds  0.10E-01 (gradient)  0.10E-05 (energy)  0.10E-02 (step length)

 Weight factors for state symmetry  1:    0.33333   0.33333   0.33333

 Number of orbital rotations:      257   (    14 Core/Active    189 Core/Virtual   0 Active/Active     54 Active/Virtual)
 Total number of variables:        269

 Micro-Iterations solved by the two-step solver

 ITER. MIC  NCI  NEG     ENERGY(VAR)     ENERGY(PROJ)   ENERGY CHANGE     GRAD(0)  GRAD(ORB)   GRAD(CI)     STEP       TIME

   1    3    3    0     -77.65289489     -77.66006248   -0.00716759    0.13980670 0.00000260 0.00000000  0.67D-01      0.06
   2    2    3    0     -77.65992609     -77.65993223   -0.00000613    0.00381817 0.00000315 0.00000000  0.21D-02      0.09
   3    2    3    0     -77.65993223     -77.65993223   -0.00000000    0.00000379 0.00000000 0.00000000  0.23D-05      0.12

 ** WVFN ****  CONVERGENCE REACHED, FINAL GRADIENT:  0.43D-11



 Results for state 1.1
 =====================

 !MCSCF STATE  1.1 Energy             -77.987259319071
 Nuclear energy                        31.70649720
 Kinetic energy                        77.37456103
 One electron energy                 -167.00940370
 Two electron energy                   57.31564718
 Virial ratio                           2.00791860

 !MCSCF STATE  1.1 Dipole moment        0.00000000    -0.00000000     0.00000000
 Dipole moment /Debye                   0.00000000    -0.00000000     0.00000000

 Results for state 2.1
 =====================

 !MCSCF STATE  2.1 Energy             -77.597971321710
 Nuclear energy                        31.70649720
 Kinetic energy                        77.54349424
 One electron energy                 -166.36948487
 Two electron energy                   57.06501635
 Virial ratio                           2.00070254

 !MCSCF STATE  2.1 Dipole moment        0.00000000    -0.00000000     0.00000000
 Dipole moment /Debye                   0.00000000    -0.00000000     0.00000000

 Results for state 3.1
 =====================

 !MCSCF STATE  3.1 Energy             -77.394566047735
 Nuclear energy                        31.70649720
 Kinetic energy                        77.71242744
 One electron energy                 -165.72956604
 Two electron energy                   56.62850279
 Virial ratio                           1.99590977

 !MCSCF STATE  3.1 Dipole moment        0.00000000    -0.00000000     0.00000000
 Dipole moment /Debye                   0.00000000    -0.00000000     0.00000000

 State-averaged charge density matrix saved on record  2140.2 (density set 1)

 !MCSCF trans         <2.1|DMZ|1.1>    -1.500493629030 au =    -3.813624597669 Debye
 !MCSCF trans         <3.1|DMZ|2.1>    -2.199820428844 au =    -5.591019605542 Debye


 NATURAL ORBITALS (state averaged)
 =================================

  Orbital  Occupation    Energy     Coefficients
    1.1     2.00000   -11.27766     1 1s    0.70423     2 1s    0.70423
    2.1     2.00000   -11.27608     1 1s    0.70464     2 1s   -0.70464
    3.1     2.00000    -1.03896     1 1s    0.31174     2 1s    0.31174
    4.1     2.00000    -0.73646     1 1s    0.33769     2 1s   -0.33769
    5.1     2.00000    -0.60462     1 2py   0.31309     2 2py   0.31309
    6.1     2.00000    -0.57814     1 2pz   0.38764     2 2pz  -0.38764
    7.1     2.00000    -0.45785     1 2py   0.27674     2 2py  -0.27674
    8.1     1.00000    -0.23698     1 2px   0.36702     1 2px   0.30732     2 2px   0.36702     2 2px   0.30732
    9.1     1.00000     0.03892     1 2px   0.38588     1 2px   0.69715     2 2px  -0.38588     2 2px  -0.69715
   10.1    -0.00000     0.22276     1 2py   0.26976     1 2py   0.61379     2 2py   0.26976     2 2py   0.61379     3 1s   -0.81622
                                    4 1s    0.81622     5 1s   -0.81622     6 1s    0.81622
   11.1    -0.00000     0.22519     1 1s   -1.11553     1 2pz  -0.55828     2 1s   -1.11553     2 2pz   0.55828     3 1s    0.82742
                                    4 1s    0.82742     5 1s    0.82742     6 1s    0.82742
   12.1    -0.00000     0.24725     1 1s   -1.34791     2 1s    1.34791     3 1s    0.84594     4 1s    0.84594     5 1s   -0.84594
                                    6 1s   -0.84594
   13.1    -0.00000     0.37088     1 2py   0.29268     1 2py   1.57901     2 2py  -0.29268     2 2py  -1.57901     3 1s   -1.23609
                                    4 1s    1.23609     5 1s    1.23609     6 1s   -1.23609
   14.1    -0.00000     0.49546     1 1s   -3.75026     1 2pz   3.02342     2 1s    3.75026     2 2pz   3.02342     3 1s   -0.39227
                                    4 1s   -0.39227     5 1s    0.39227     6 1s    0.39227
   15.1    -0.00000     0.64607     1 1s    0.37272     1 2pz  -0.53913     1 2pz   0.98879     2 1s    0.37272     2 2pz   0.53913
                                    2 2pz  -0.98879
   16.1    -0.00000     0.75405     1 2px  -0.73573     1 2px   0.63690     2 2px  -0.73573     2 2px   0.63690
   17.1    -0.00000     0.81774     1 2py  -0.46308     1 2py   0.63901     2 2py  -0.46308     2 2py   0.63901     3 1s   -0.41568
                                    4 1s    0.41568     5 1s   -0.41568     6 1s    0.41568
   18.1    -0.00000     0.86555     1 2px  -0.80329     1 2px   1.12320     2 2px   0.80329     2 2px  -1.12320
   19.1    -0.00000     0.88729     1 1s   -0.71929     1 1s    0.98558     1 2pz   0.41999     2 1s   -0.71929     2 1s    0.98558
                                    2 2pz  -0.41999     3 1s   -0.47081     4 1s   -0.47081     5 1s   -0.47081     6 1s   -0.47081
   20.1    -0.00000     0.95656     1 2pz   0.48603     1 2pz  -0.26614     2 2pz   0.48603     2 2pz  -0.26614     3 1s    0.48617
                                    3 1s   -0.32919     4 1s    0.48617     4 1s   -0.32919     5 1s   -0.48617     5 1s    0.32919
                                    6 1s   -0.48617     6 1s    0.32919
   21.1    -0.00000     0.99701     1 2py  -0.63296     1 2py   1.00201     2 2py  -0.63296     2 2py   1.00201     3 1s    0.38093
                                    3 1s   -0.94283     4 1s   -0.38093     4 1s    0.94283     5 1s    0.38093     5 1s   -0.94283
                                    6 1s   -0.38093     6 1s    0.94283
   22.1    -0.00000     1.04822     1 2py   0.82036     1 2py  -1.91536     2 2py  -0.82036     2 2py   1.91536     3 1s   -0.32108
                                    3 1s    1.04987     4 1s    0.32108     4 1s   -1.04987     5 1s    0.32108     5 1s   -1.04987
                                    6 1s   -0.32108     6 1s    1.04987
   23.1    -0.00000     1.08042     1 1s    1.06071     1 1s   -1.62098     1 2pz   0.31904     1 2pz  -0.46788     2 1s    1.06071
                                    2 1s   -1.62098     2 2pz  -0.31904     2 2pz   0.46788     3 1s   -0.38332     3 1s    0.79018
                                    4 1s   -0.38332     4 1s    0.79018     5 1s   -0.38332     5 1s    0.79018     6 1s   -0.38332
                                    6 1s    0.79018
   24.1    -0.00000     1.10561     1 1s    0.62454     1 1s   -1.04433     1 2pz   0.71316     1 2pz  -0.96179     2 1s   -0.62454
                                    2 1s    1.04433     2 2pz   0.71316     2 2pz  -0.96179     3 1s   -0.32377     3 1s    0.84506
                                    4 1s   -0.32377     4 1s    0.84506     5 1s    0.32377     5 1s   -0.84506     6 1s    0.32377
                                    6 1s   -0.84506
   25.1    -0.00000     1.35075     1 1s   -1.53627     1 1s    5.33936     1 2pz   0.30000     1 2pz  -2.15648     2 1s    1.53627
                                    2 1s   -5.33936     2 2pz   0.30000     2 2pz  -2.15648
   26.1    -0.00000     1.45269     1 2py  -0.39029     1 2py   2.65038     2 2py   0.39029     2 2py  -2.65038     3 1s   -0.63517
                                    3 1s   -0.53802     4 1s    0.63517     4 1s    0.53802     5 1s    0.63517     5 1s    0.53802
                                    6 1s   -0.63517     6 1s   -0.53802
   27.1    -0.00000     1.72490     1 3d1+  0.61453     2 3d1+ -0.61453
   28.1    -0.00000     1.80740     1 3d2-  0.67813     2 3d2-  0.67813
   29.1    -0.00000     2.04853     1 1s   -0.46025     1 3d2+  0.69416     2 1s   -0.46025     2 3d2+  0.69416     3 1s    0.27824
                                    4 1s    0.27824     5 1s    0.27824     6 1s    0.27824
   30.1    -0.00000     2.10079     1 3d1-  0.64087     2 3d1- -0.64087     3 1s   -0.39554     4 1s    0.39554     5 1s   -0.39554
                                    6 1s    0.39554
   31.1    -0.00000     2.13217     1 3d2-  0.74014     2 3d2- -0.74014
   32.1    -0.00000     2.41774     1 1s   -0.50826     1 2pz   0.31732     1 2pz  -0.43730     1 3d0   0.71208     2 1s   -0.50826
                                    2 2pz  -0.31732     2 2pz   0.43730     2 3d0   0.71208
   33.1    -0.00000     2.44037     1 1s    0.33403     1 1s   -1.11600     1 3d2+  0.76123     2 1s   -0.33403     2 1s    1.11600
                                    2 3d2+ -0.76123     3 1s    0.32447     4 1s    0.32447     5 1s   -0.32447     6 1s   -0.32447
   34.1    -0.00000     2.71908     1 2px  -0.27141     1 3d1+  0.92379     2 2px   0.27141     2 3d1+  0.92379
   35.1    -0.00000     2.87729     1 3d1-  0.93934     2 3d1-  0.93934     3 1s   -0.29891     4 1s    0.29891     5 1s    0.29891
                                    6 1s   -0.29891
   36.1    -0.00000     3.08492     1 1s    0.40627     1 1s    2.14091     1 2pz  -0.87295     1 2pz  -1.20126     1 3d0   1.13661
                                    2 1s   -0.40627     2 1s   -2.14091     2 2pz  -0.87295     2 2pz  -1.20126     2 3d0  -1.13661


 Natural orbital dump (state averaged) at molpro section  2140.2    (Orbital set 2)



 **********************************************************************************************************************************
 DATASETS  * FILE   NREC   LENGTH (MB)   RECORD NAMES
              1      20       31.35       500      610      700      900      950      970     1000      129      960     1100   
                                          VAR    BASINP    GEOM    SYMINP    ZMAT    AOBASIS   BASIS     P2S    ABASIS      S 
                                         1400     1410     1200     1210     1080     1600     1650     1300     1700     1380   
                                           T        V       H0       H01     AOSYM     SMH    MOLCAS    ERIS     OPER     JKOP   

              2       5        5.42       700     1000      520     2100     2140   
                                         GEOM     BASIS   MCVARS     RHF     MCSCF   

 PROGRAMS   *        TOTAL     MULTI    HF-SCF       INT
 CPU TIMES  *         0.61      0.16      0.10      0.24
 REAL TIME  *         0.88 SEC
 DISK USED  *        38.54 MB
 **********************************************************************************************************************************
 Molecular orbitals read from record     2140.2  Type=MCSCF/NATURAL (state averaged)
 Occupation numbers read from record     2140.2  Type=MCSCF/NATURAL (state averaged)
 Orbital energies read from record       2140.2  Type=MCSCF/NATURAL (state averaged)
 Redundancy group numbers read from rec  2140.2  Type=MCSCF/NATURAL (state averaged)

 MULTI/6-31G* energy=    -77.394566047735

           MULTI          HF-SCF
    -77.39456605    -77.97158991
 **********************************************************************************************************************************
 Molpro calculation terminated
