
 Primary working directories    : /scratch.local/johan406.molpro_temp/molpro.ZdZJCT5WgI
 Secondary working directories  : /scratch.local/johan406.molpro_temp/molpro.ZdZJCT5WgI
 Wavefunction directory         : /home/goodpast/johan406/wfu/
 Main file repository           : /scratch.local/johan406.molpro_temp/molpro.ZdZJCT5WgI/

 id        : roweumn

 Nodes     nprocs
 cn0117       1

 Using customized tuning parameters: mindgm=1; mindgv=20; mindgc=4; mindgr=1; noblas=0; minvec=7
 default implementation of scratch files=df  


 Variables initialized (934), CPU time= 0.00 sec
                                                                                 !leave this line blank
 
 gprint, orbitals=30
 memory, 125., m
 symmetry, nosym
 nelect=16
 basis=6-31g*
 
 geometry={
 C -0.0 0.0 0.6509
 C 0.0 0.0 -0.6509
 H 0.0 1.0714 1.3294
 H -0.0 -1.0714 1.3294
 H 0.0 1.0714 -1.3294
 H 0.0 -1.0714 -1.3294
 }
 
 hf
 {multi,
 closed 7
 occ 9
 wf,spin=0;STATE,3
 }
 
 Commands  initialized (763), CPU time= 0.01 sec, 617 directives.
 Default parameters read. Elapsed time= 0.08 sec

 Checking input...
 Passed
1


                                         ***  PROGRAM SYSTEM MOLPRO  ***
                                       Copyright, TTI GmbH Stuttgart, 2015
                                    Version 2019.2 linked Oct 25 2019 22:50:27


 **********************************************************************************************************************************
 LABEL *                                                                                 
  64 bit serial version                                                                  DATE: 26-Jan-23          TIME: 20:58:55  
 **********************************************************************************************************************************

 SHA1:             8dbd9ae1082e4ce945b0f27595c9eb2d4aa09004
 **********************************************************************************************************************************


 Variable memory set to  125000000 words,  buffer space 

 SETTING NELECT         =        16.00000000                                  
 SETTING BASIS          =    6-31G*
 ZSYMEL=NOSYM


Geometry recognized as XYZ



 Recomputing integrals since basis changed


 Using spherical harmonics

 Library entry C      S 6-31G                selected for orbital group  1
 Library entry C      P 6-31G                selected for orbital group  1
 Library entry C      D 6-31G*               selected for orbital group  1
 Library entry H      S 6-31G                selected for orbital group  2


 PROGRAM * SEWARD (Integral evaluation for generally contracted gaussian basis sets)     Author: Roland Lindh, 1990

 Geometry written to block  1 of record 700


 Point group  C1  



 ATOMIC COORDINATES

 NR  ATOM    CHARGE       X              Y              Z

   1  C       6.00    0.000000000    0.000000000    1.230022734
   2  C       6.00    0.000000000    0.000000000   -1.230022734
   3  H       1.00    0.000000000    2.024652570    2.512201910
   4  H       1.00    0.000000000   -2.024652570    2.512201910
   5  H       1.00    0.000000000    2.024652570   -2.512201910
   6  H       1.00    0.000000000   -2.024652570   -2.512201910

 Bond lengths in Bohr (Angstrom)

 1-2  2.460045469  1-3  2.396497750  1-4  2.396497750  2-5  2.396497750  2-6  2.396497750
     ( 1.301800000)     ( 1.268171995)     ( 1.268171995)     ( 1.268171995)     ( 1.268171995)

 Bond angles

  1-2-5  122.34540783   1-2-6  122.34540783   2-1-3  122.34540783   2-1-4  122.34540783

  3-1-4  115.30918434   5-2-6  115.30918434

 NUCLEAR CHARGE:                   16
 NUMBER OF PRIMITIVE AOS:          72
 NUMBER OF SYMMETRY AOS:           70
 NUMBER OF CONTRACTIONS:           36   (   36A   )
 NUMBER OF CORE ORBITALS:           2   (    2A   )
 NUMBER OF VALENCE ORBITALS:       12   (   12A   )


 NUCLEAR REPULSION ENERGY   31.49105754

 EXTRA SYMMETRY OF AOS IN SYMMETRY 1:   1 1 1 2 1 1 2 1 1 1   3 2 1 1 1 1 1 2 1 1   2 1 1 1 3 2 1 1 1 1   1 1 1 1 1 1

 Eigenvalues of metric

         1 0.755E-02 0.290E-01 0.578E-01 0.714E-01 0.109E+00 0.171E+00 0.223E+00 0.234E+00


 Contracted 2-electron integrals neglected if value below      1.0D-11
 AO integral compression algorithm  1   Integral accuracy      1.0D-11

     0.786 MB (compressed) written to integral file ( 36.8%)


 NUMBER OF SORTED TWO-ELECTRON INTEGRALS:     222111.     BUFFER LENGTH:  32768
 NUMBER OF SEGMENTS:   1  SEGMENT LENGTH:     222111      RECORD LENGTH: 524288

 Memory used in sort:       0.78 MW

 SORT1 READ      284735. AND WROTE       98052. INTEGRALS IN      1 RECORDS. CPU TIME:     0.01 SEC, REAL TIME:     0.00 SEC
 SORT2 READ       98052. AND WROTE      222111. INTEGRALS IN      3 RECORDS. CPU TIME:     0.02 SEC, REAL TIME:     0.03 SEC

 FILE SIZES:   FILE 1:    30.9 MBYTE,  FILE 4:     4.2 MBYTE,   TOTAL:     35.1 MBYTE

 OPERATOR DM      FOR CENTER  0  COORDINATES:    0.000000    0.000000    0.000000


 **********************************************************************************************************************************
 DATASETS  * FILE   NREC   LENGTH (MB)   RECORD NAMES
              1      19       30.62       500      610      700      900      950      970     1000      129      960     1100   
                                          VAR    BASINP    GEOM    SYMINP    ZMAT    AOBASIS   BASIS     P2S    ABASIS      S 
                                         1400     1410     1200     1210     1080     1600     1650     1300     1700   
                                           T        V       H0       H01     AOSYM     SMH    MOLCAS    ERIS     OPER   

 PROGRAMS   *        TOTAL       INT
 CPU TIMES  *         0.37      0.26
 REAL TIME  *         0.57 SEC
 DISK USED  *        35.45 MB
 **********************************************************************************************************************************


 PROGRAM * RHF-SCF (CLOSED SHELL)       Authors: W. Meyer, H.-J. Werner


 NUMBER OF ELECTRONS:       8+    8-    SPACE SYMMETRY=1    SPIN SYMMETRY: Singlet 
 CONVERGENCE THRESHOLDS:    1.00E-05 (Density)    1.00E-07 (Energy)
 MAX. NUMBER OF ITERATIONS:       60
 INTERPOLATION TYPE:            DIIS
 INTERPOLATION STEPS:              2 (START)      1 (STEP)
 LEVEL SHIFTS:                  0.00 (CLOSED)  0.00 (OPEN) 



 Orbital guess generated from atomic densities. Full valence occupancy:    8

 Molecular orbital dump at record        2100.2

 Initial occupancy:   8

 ITERATION    DDIFF          GRAD             ENERGY        2-EL.EN.            DIPOLE MOMENTS         DIIS   ORB.
    1      0.000D+00      0.000D+00       -77.93154118    115.330635    0.00000    0.00000    0.00000    0    start
    2      0.000D+00      0.827D-02       -77.95214504    113.164928    0.00000   -0.00000    0.00000    1    diag
    3      0.768D-02      0.336D-02       -77.95498005    113.976783   -0.00000   -0.00000    0.00000    2    diag
    4      0.330D-02      0.766D-03       -77.95526546    113.854573    0.00000   -0.00000    0.00000    3    diag
    5      0.124D-02      0.105D-03       -77.95527159    113.861011   -0.00000    0.00000   -0.00000    4    diag
    6      0.241D-03      0.177D-04       -77.95527178    113.860149    0.00000    0.00000    0.00000    5    diag
    7      0.409D-04      0.249D-05       -77.95527178    113.860191    0.00000    0.00000   -0.00000    6    diag
    8      0.474D-05      0.328D-06       -77.95527178    113.860174    0.00000   -0.00000   -0.00000    0    orth

 Final occupancy:   8

 !RHF STATE  1.1 Energy               -77.955271780916
 Nuclear energy                        31.49105754
 One-electron energy                 -166.37641637
 Two-electron energy                   56.93008705
 Virial quotient                       -1.00965966
 !RHF STATE  1.1 Dipole moment          0.00000000    -0.00000000    -0.00000000
 Dipole moment /Debye                   0.00000000    -0.00000000    -0.00000000

 ELECTRON ORBITALS
 =================

  Orbital  Occupation    Energy     Coefficients
    1.1     2.00000   -11.26719     1 1s    0.70421     2 1s    0.70421
    2.1     2.00000   -11.26528     1 1s    0.70469     2 1s   -0.70469
    3.1     2.00000    -1.02202     1 1s    0.30462     2 1s    0.30462
    4.1     2.00000    -0.72062     1 1s    0.29169     2 1s   -0.29169
    5.1     2.00000    -0.58562     1 2py   0.30398     2 2py   0.30398
    6.1     2.00000    -0.56358     1 2pz   0.38421     2 2pz  -0.38421
    7.1     2.00000    -0.44584     1 2py   0.26409     2 2py  -0.26409
    8.1     2.00000    -0.38796     1 2px   0.38405     1 2px   0.29374     2 2px   0.38405     2 2px   0.29374
    9.1     0.00000     0.18530     1 2px   0.34624     1 2px   0.74968     2 2px  -0.34624     2 2px  -0.74968
   10.1     0.00000     0.21987     1 1s   -1.06942     1 2pz  -0.54147     2 1s   -1.06942     2 2pz   0.54147     3 1s    0.79880
                                    4 1s    0.79880     5 1s    0.79880     6 1s    0.79880
   11.1     0.00000     0.22318     1 2py   0.27440     1 2py   0.60185     2 2py   0.27440     2 2py   0.60185     3 1s   -0.78994
                                    4 1s    0.78994     5 1s   -0.78994     6 1s    0.78994
   12.1     0.00000     0.24071     1 1s   -1.23781     2 1s    1.23781     3 1s    0.82001     4 1s    0.82001     5 1s   -0.82001
                                    6 1s   -0.82001
   13.1     0.00000     0.37444     1 2py   0.29408     1 2py   1.55874     2 2py  -0.29408     2 2py  -1.55874     3 1s   -1.19493
                                    4 1s    1.19493     5 1s    1.19493     6 1s   -1.19493
   14.1     0.00000     0.49910     1 1s   -3.87896     1 2pz   3.05294     2 1s    3.87896     2 2pz   3.05294     3 1s   -0.36004
                                    4 1s   -0.36004     5 1s    0.36004     6 1s    0.36004
   15.1     0.00000     0.65724     1 1s    0.35813     1 2pz  -0.54965     1 2pz   1.00404     2 1s    0.35813     2 2pz   0.54965
                                    2 2pz  -1.00404
   16.1     0.00000     0.75588     1 2px  -0.72722     1 2px   0.64238     2 2px  -0.72722     2 2px   0.64238
   17.1     0.00000     0.83719     1 2py  -0.45415     1 2py   0.60403     2 2py  -0.45415     2 2py   0.60403     3 1s   -0.42941
                                    4 1s    0.42941     5 1s   -0.42941     6 1s    0.42941
   18.1     0.00000     0.88157     1 2px  -0.81999     1 2px   1.09317     2 2px   0.81999     2 2px  -1.09317
   19.1     0.00000     0.89277     1 1s   -0.69954     1 1s    0.91227     1 2pz   0.39756     2 1s   -0.69954     2 1s    0.91227
                                    2 2pz  -0.39756     3 1s   -0.48197     4 1s   -0.48197     5 1s   -0.48197     6 1s   -0.48197
   20.1     0.00000     0.97357     1 2pz   0.41512     2 2pz   0.41512     3 1s    0.51754     3 1s   -0.42338     4 1s    0.51754
                                    4 1s   -0.42338     5 1s   -0.51754     5 1s    0.42338     6 1s   -0.51754     6 1s    0.42338
   21.1     0.00000     0.99867     1 2py  -0.64238     1 2py   0.99345     2 2py  -0.64238     2 2py   0.99345     3 1s    0.37501
                                    3 1s   -0.91751     4 1s   -0.37501     4 1s    0.91751     5 1s    0.37501     5 1s   -0.91751
                                    6 1s   -0.37501     6 1s    0.91751
   22.1     0.00000     1.04467     1 2py   0.80565     1 2py  -1.80727     2 2py  -0.80565     2 2py   1.80727     3 1s   -0.33575
                                    3 1s    1.00245     4 1s    0.33575     4 1s   -1.00245     5 1s    0.33575     5 1s   -1.00245
                                    6 1s   -0.33575     6 1s    1.00245
   23.1     0.00000     1.06866     1 1s    1.07247     1 1s   -1.60865     1 2pz   0.30729     1 2pz  -0.45375     2 1s    1.07247
                                    2 1s   -1.60865     2 2pz  -0.30729     2 2pz   0.45375     3 1s   -0.37234     3 1s    0.77618
                                    4 1s   -0.37234     4 1s    0.77618     5 1s   -0.37234     5 1s    0.77618     6 1s   -0.37234
                                    6 1s    0.77618
   24.1     0.00000     1.09775     1 1s    0.63101     1 1s   -1.15519     1 2pz   0.74512     1 2pz  -0.89569     2 1s   -0.63101
                                    2 1s    1.15519     2 2pz   0.74512     2 2pz  -0.89569     3 1s   -0.26980     3 1s    0.79219
                                    4 1s   -0.26980     4 1s    0.79219     5 1s    0.26980     5 1s   -0.79219     6 1s    0.26980
                                    6 1s   -0.79219
   25.1     0.00000     1.37546     1 1s   -1.52556     1 1s    5.33109     1 2pz   0.30722     1 2pz  -2.18919     2 1s    1.52556
                                    2 1s   -5.33109     2 2pz   0.30722     2 2pz  -2.18919
   26.1     0.00000     1.45981     1 2py  -0.42316     1 2py   2.61403     2 2py   0.42316     2 2py  -2.61403     3 1s   -0.62722
                                    3 1s   -0.50220     4 1s    0.62722     4 1s    0.50220     5 1s    0.62722     5 1s    0.50220
                                    6 1s   -0.62722     6 1s   -0.50220
   27.1     0.00000     1.75188     1 3d1+  0.61432     2 3d1+ -0.61432
   28.1     0.00000     1.81946     1 3d2-  0.67764     2 3d2-  0.67764
   29.1     0.00000     2.04289     1 1s   -0.44333     1 3d2+  0.69106     2 1s   -0.44333     2 3d2+  0.69106     3 1s    0.26321
                                    4 1s    0.26321     5 1s    0.26321     6 1s    0.26321
   30.1     0.00000     2.08877     1 3d1-  0.63698     2 3d1- -0.63698     3 1s   -0.37599     4 1s    0.37599     5 1s   -0.37599
                                    6 1s    0.37599
   31.1     0.00000     2.15786     1 3d2-  0.74078     2 3d2- -0.74078
   32.1     0.00000     2.43815     1 1s    0.32870     1 1s   -1.06120     1 3d2+  0.75836     2 1s   -0.32870     2 1s    1.06120
                                    2 3d2+ -0.75836     3 1s    0.30602     4 1s    0.30602     5 1s   -0.30602     6 1s   -0.30602
   33.1     0.00000     2.44084     1 1s   -0.51143     1 2pz   0.31240     1 2pz  -0.43566     1 3d0   0.71436     2 1s   -0.51143
                                    2 2pz  -0.31240     2 2pz   0.43566     2 3d0   0.71436
   34.1     0.00000     2.74501     1 2px  -0.27139     1 3d1+  0.92671     2 2px   0.27139     2 3d1+  0.92671
   35.1     0.00000     2.87043     1 3d1-  0.93862     2 3d1-  0.93862     3 1s   -0.27316     4 1s    0.27316     5 1s    0.27316
                                    6 1s   -0.27316
   36.1     0.00000     3.10835     1 1s    0.42967     1 1s    2.12618     1 2pz  -0.89465     1 2pz  -1.18749     1 3d0   1.13823
                                    2 1s   -0.42967     2 1s   -2.12618     2 2pz  -0.89465     2 2pz  -1.18749     2 3d0  -1.13823


 HOMO      8.1    -0.387961 =     -10.5570eV
 LUMO      9.1     0.185297 =       5.0422eV
 LUMO-HOMO         0.573259 =      15.5992eV


 **********************************************************************************************************************************
 DATASETS  * FILE   NREC   LENGTH (MB)   RECORD NAMES
              1      19       30.62       500      610      700      900      950      970     1000      129      960     1100   
                                          VAR    BASINP    GEOM    SYMINP    ZMAT    AOBASIS   BASIS     P2S    ABASIS      S 
                                         1400     1410     1200     1210     1080     1600     1650     1300     1700   
                                           T        V       H0       H01     AOSYM     SMH    MOLCAS    ERIS     OPER   

              2       4        2.86       700     1000      520     2100   
                                         GEOM     BASIS   MCVARS     RHF  

 PROGRAMS   *        TOTAL    HF-SCF       INT
 CPU TIMES  *         0.47      0.10      0.26
 REAL TIME  *         0.69 SEC
 DISK USED  *        35.45 MB
 **********************************************************************************************************************************


 PROGRAM * MULTI (Direct Multiconfiguration SCF)       Authors: P.J. Knowles, H.-J. Werner (1984)


 Number of closed-shell orbitals:   7 (   7 )
 Number of active  orbitals:        2 (   2 )
 Number of external orbitals:      27 (  27 )

 State symmetry 1

 Number of electrons:     2    Spin symmetry=Singlet   Space symmetry=1
 Number of states:        3
 Number of CSFs:          3   (4 determinants, 4 intermediate states)

 Molecular orbitals read from record     2100.2  Type=RHF/CANONICAL (state 1.1)

 EXTRA SYMMETRY OF MOS IN SYMMETRY 1:   1 1 1 1 1 1 1 2 2 1   1 1 1 1 1 2 1 2 1 1   1 1 1 1 1 1 2 3 1 1   3 1 1 2 1 1

 Wavefunction dump at record             2140.2

 Convergence thresholds  0.10E-01 (gradient)  0.10E-05 (energy)  0.10E-02 (step length)

 Weight factors for state symmetry  1:    0.33333   0.33333   0.33333

 Number of orbital rotations:      257   (    14 Core/Active    189 Core/Virtual   0 Active/Active     54 Active/Virtual)
 Total number of variables:        269

 Micro-Iterations solved by the two-step solver

 ITER. MIC  NCI  NEG     ENERGY(VAR)     ENERGY(PROJ)   ENERGY CHANGE     GRAD(0)  GRAD(ORB)   GRAD(CI)     STEP       TIME

   1    3    3    0     -77.63377687     -77.64108942   -0.00731255    0.14089583 0.00000281 0.00000000  0.68D-01      0.06
   2    2    3    0     -77.64094657     -77.64095314   -0.00000657    0.00394391 0.00000340 0.00000000  0.21D-02      0.09
   3    2    3    0     -77.64095314     -77.64095314   -0.00000000    0.00000410 0.00000000 0.00000000  0.25D-05      0.13

 ** WVFN ****  CONVERGENCE REACHED, FINAL GRADIENT:  0.51D-11



 Results for state 1.1
 =====================

 !MCSCF STATE  1.1 Energy             -77.970664019576
 Nuclear energy                        31.49105754
 Kinetic energy                        77.29354864
 One electron energy                 -166.57814341
 Two electron energy                   57.11642185
 Virial ratio                           2.00876031

 !MCSCF STATE  1.1 Dipole moment        0.00000000    -0.00000000     0.00000000
 Dipole moment /Debye                   0.00000000    -0.00000000     0.00000000

 Results for state 2.1
 =====================

 !MCSCF STATE  2.1 Energy             -77.579147601148
 Nuclear energy                        31.49105754
 Kinetic energy                        77.46109841
 One electron energy                 -165.92863881
 Two electron energy                   56.85843367
 Virial ratio                           2.00152398

 !MCSCF STATE  2.1 Dipole moment        0.00000000    -0.00000000     0.00000000
 Dipole moment /Debye                   0.00000000    -0.00000000     0.00000000

 Results for state 3.1
 =====================

 !MCSCF STATE  3.1 Energy             -77.373047811336
 Nuclear energy                        31.49105754
 Kinetic energy                        77.62864819
 One electron energy                 -165.27913420
 Two electron energy                   56.41502885
 Virial ratio                           1.99670740

 !MCSCF STATE  3.1 Dipole moment        0.00000000    -0.00000000     0.00000000
 Dipole moment /Debye                   0.00000000    -0.00000000     0.00000000

 State-averaged charge density matrix saved on record  2140.2 (density set 1)

 !MCSCF trans         <2.1|DMZ|1.1>    -1.498509308498 au =    -3.808581288292 Debye
 !MCSCF trans         <3.1|DMZ|2.1>    -2.188831476751 au =    -5.563090304682 Debye


 NATURAL ORBITALS (state averaged)
 =================================

  Orbital  Occupation    Energy     Coefficients
    1.1     2.00000   -11.28275     1 1s    0.70423     2 1s    0.70423
    2.1     2.00000   -11.28113     1 1s    0.70465     2 1s   -0.70465
    3.1     2.00000    -1.03977     1 1s    0.31204     2 1s    0.31204
    4.1     2.00000    -0.72773     1 1s    0.34413     2 1s   -0.34413
    5.1     2.00000    -0.59829     1 2py   0.31136     2 2py   0.31136
    6.1     2.00000    -0.57472     1 2pz   0.38452     2 2pz  -0.38452
    7.1     2.00000    -0.45042     1 2py   0.27147     2 2py  -0.27147
    8.1     1.00000     0.03971     1 2px   0.38712     1 2px   0.69826     2 2px  -0.38712     2 2px  -0.69826
    9.1     1.00000    -0.23886     1 2px   0.36857     1 2px   0.30534     2 2px   0.36857     2 2px   0.30534
   10.1    -0.00000     0.21282     1 2py   0.27210     1 2py   0.58964     2 2py   0.27210     2 2py   0.58964     3 1s   -0.78347
                                    4 1s    0.78347     5 1s   -0.78347     6 1s    0.78347
   11.1    -0.00000     0.21847     1 1s   -1.06835     1 2pz  -0.54299     2 1s   -1.06835     2 2pz   0.54299     3 1s    0.79976
                                    4 1s    0.79976     5 1s    0.79976     6 1s    0.79976
   12.1    -0.00000     0.23723     1 1s   -1.27442     2 1s    1.27442     3 1s    0.81568     4 1s    0.81568     5 1s   -0.81568
                                    6 1s   -0.81568
   13.1    -0.00000     0.36806     1 2py   0.29880     1 2py   1.54250     2 2py  -0.29880     2 2py  -1.54250     3 1s   -1.18823
                                    4 1s    1.18823     5 1s    1.18823     6 1s   -1.18823
   14.1    -0.00000     0.49713     1 1s   -3.85054     1 2pz   3.03867     2 1s    3.85054     2 2pz   3.03867     3 1s   -0.37184
                                    4 1s   -0.37184     5 1s    0.37184     6 1s    0.37184
   15.1    -0.00000     0.64367     1 1s    0.38340     1 2pz  -0.53498     1 2pz   0.98835     2 1s    0.38340     2 2pz   0.53498
                                    2 2pz  -0.98835
   16.1    -0.00000     0.75148     1 2px  -0.73391     1 2px   0.63735     2 2px  -0.73391     2 2px   0.63735
   17.1    -0.00000     0.82859     1 2py  -0.47568     1 2py   0.63251     2 2py  -0.47568     2 2py   0.63251     3 1s   -0.41765
                                    4 1s    0.41765     5 1s   -0.41765     6 1s    0.41765
   18.1    -0.00000     0.86454     1 2px  -0.80317     1 2px   1.12649     2 2px   0.80317     2 2px  -1.12649
   19.1    -0.00000     0.89326     1 1s   -0.69138     1 1s    0.91765     1 2pz   0.41984     2 1s   -0.69138     2 1s    0.91765
                                    2 2pz  -0.41984     3 1s   -0.48107     4 1s   -0.48107     5 1s   -0.48107     6 1s   -0.48107
   20.1    -0.00000     0.95904     1 2pz   0.45163     2 2pz   0.45163     3 1s    0.50410     3 1s   -0.39150     4 1s    0.50410
                                    4 1s   -0.39150     5 1s   -0.50410     5 1s    0.39150     6 1s   -0.50410     6 1s    0.39150
   21.1    -0.00000     0.98551     1 2py  -0.62204     1 2py   0.98238     2 2py  -0.62204     2 2py   0.98238     3 1s    0.38493
                                    3 1s   -0.92744     4 1s   -0.38493     4 1s    0.92744     5 1s    0.38493     5 1s   -0.92744
                                    6 1s   -0.38493     6 1s    0.92744
   22.1    -0.00000     1.03351     1 2py   0.80334     1 2py  -1.83188     2 2py  -0.80334     2 2py   1.83188     3 1s   -0.33375
                                    3 1s    1.01416     4 1s    0.33375     4 1s   -1.01416     5 1s    0.33375     5 1s   -1.01416
                                    6 1s   -0.33375     6 1s    1.01416
   23.1    -0.00000     1.06580     1 1s    1.06815     1 1s   -1.60896     1 2pz   0.31413     1 2pz  -0.46477     2 1s    1.06815
                                    2 1s   -1.60896     2 2pz  -0.31413     2 2pz   0.46477     3 1s   -0.37281     3 1s    0.77739
                                    4 1s   -0.37281     4 1s    0.77739     5 1s   -0.37281     5 1s    0.77739     6 1s   -0.37281
                                    6 1s    0.77739
   24.1    -0.00000     1.09505     1 1s    0.61813     1 1s   -1.05968     1 2pz   0.73539     1 2pz  -0.93635     2 1s   -0.61813
                                    2 1s    1.05968     2 2pz   0.73539     2 2pz  -0.93635     3 1s   -0.29277     3 1s    0.80714
                                    4 1s   -0.29277     4 1s    0.80714     5 1s    0.29277     5 1s   -0.80714     6 1s    0.29277
                                    6 1s   -0.80714
   25.1    -0.00000     1.35591     1 1s   -1.53323     1 1s    5.34574     1 2pz   0.29954     1 2pz  -2.17924     2 1s    1.53323
                                    2 1s   -5.34574     2 2pz   0.29954     2 2pz  -2.17924
   26.1    -0.00000     1.45332     1 2py  -0.42179     1 2py   2.60536     2 2py   0.42179     2 2py  -2.60536     3 1s   -0.62847
                                    3 1s   -0.49761     4 1s    0.62847     4 1s    0.49761     5 1s    0.62847     5 1s    0.49761
                                    6 1s   -0.62847     6 1s   -0.49761
   27.1    -0.00000     1.72652     1 3d1+  0.61394     2 3d1+ -0.61394
   28.1    -0.00000     1.80654     1 3d2-  0.67764     2 3d2-  0.67764
   29.1    -0.00000     2.02884     1 1s   -0.44073     1 3d2+  0.69084     2 1s   -0.44073     2 3d2+  0.69084     3 1s    0.26443
                                    4 1s    0.26443     5 1s    0.26443     6 1s    0.26443
   30.1    -0.00000     2.07219     1 3d1-  0.63545     2 3d1- -0.63545     3 1s   -0.37944     4 1s    0.37944     5 1s   -0.37944
                                    6 1s    0.37944
   31.1    -0.00000     2.13559     1 3d2-  0.74078     2 3d2- -0.74078
   32.1    -0.00000     2.41853     1 1s    0.33055     1 1s   -1.07430     1 3d2+  0.75767     2 1s   -0.33055     2 1s    1.07430
                                    2 3d2+ -0.75767     3 1s    0.30874     4 1s    0.30874     5 1s   -0.30874     6 1s   -0.30874
   33.1    -0.00000     2.42246     1 1s   -0.50921     1 2pz   0.31849     1 2pz  -0.43788     1 3d0   0.71417     2 1s   -0.50921
                                    2 2pz  -0.31849     2 2pz   0.43788     2 3d0   0.71417
   34.1    -0.00000     2.72387     1 2px  -0.27229     1 3d1+  0.92709     2 2px   0.27229     2 3d1+  0.92709
   35.1    -0.00000     2.85804     1 3d1-  0.93859     2 3d1-  0.93859     3 1s   -0.27474     4 1s    0.27474     5 1s    0.27474
                                    6 1s   -0.27474
   36.1    -0.00000     3.09111     1 1s    0.42251     1 1s    2.15147     1 2pz  -0.88695     1 2pz  -1.20119     1 3d0   1.14006
                                    2 1s   -0.42251     2 1s   -2.15147     2 2pz  -0.88695     2 2pz  -1.20119     2 3d0  -1.14006


 Natural orbital dump (state averaged) at molpro section  2140.2    (Orbital set 2)



 **********************************************************************************************************************************
 DATASETS  * FILE   NREC   LENGTH (MB)   RECORD NAMES
              1      20       31.35       500      610      700      900      950      970     1000      129      960     1100   
                                          VAR    BASINP    GEOM    SYMINP    ZMAT    AOBASIS   BASIS     P2S    ABASIS      S 
                                         1400     1410     1200     1210     1080     1600     1650     1300     1700     1380   
                                           T        V       H0       H01     AOSYM     SMH    MOLCAS    ERIS     OPER     JKOP   

              2       5        5.42       700     1000      520     2100     2140   
                                         GEOM     BASIS   MCVARS     RHF     MCSCF   

 PROGRAMS   *        TOTAL     MULTI    HF-SCF       INT
 CPU TIMES  *         0.64      0.16      0.10      0.26
 REAL TIME  *         0.89 SEC
 DISK USED  *        38.54 MB
 **********************************************************************************************************************************
 Molecular orbitals read from record     2140.2  Type=MCSCF/NATURAL (state averaged)
 Occupation numbers read from record     2140.2  Type=MCSCF/NATURAL (state averaged)
 Orbital energies read from record       2140.2  Type=MCSCF/NATURAL (state averaged)
 Redundancy group numbers read from rec  2140.2  Type=MCSCF/NATURAL (state averaged)

 MULTI/6-31G* energy=    -77.373047811336

           MULTI          HF-SCF
    -77.37304781    -77.95527178
 **********************************************************************************************************************************
 Molpro calculation terminated
