
 Primary working directories    : /scratch.local/johan406.molpro_temp/molpro.EX9XvUsqDv
 Secondary working directories  : /scratch.local/johan406.molpro_temp/molpro.EX9XvUsqDv
 Wavefunction directory         : /home/goodpast/johan406/wfu/
 Main file repository           : /scratch.local/johan406.molpro_temp/molpro.EX9XvUsqDv/

 id        : roweumn

 Nodes     nprocs
 acn06        1

 Using customized tuning parameters: mindgm=1; mindgv=20; mindgc=4; mindgr=1; noblas=0; minvec=7
 default implementation of scratch files=df  


 Variables initialized (934), CPU time= 0.00 sec
                                                                                 !leave this line blank
 
 gprint, orbitals=30
 memory, 125., m
 symmetry, nosym
 nelect=16
 basis=6-31g*
 
 geometry={
 C -0.630 0.138 0.298
 C 0.639 -0.188 -0.358
 H -1.262 0.893 -0.144
 H -0.965 -0.866 -0.130
 H 0.974 0.816 0.070
 H 1.271 -0.943 0.083
 }
 
 hf
 {multi,
 closed 7
 occ 9
 wf,spin=0;STATE,3
 }
 
 Commands  initialized (763), CPU time= 0.01 sec, 617 directives.
 Default parameters read. Elapsed time= 0.07 sec

 Checking input...
 Passed
1


                                         ***  PROGRAM SYSTEM MOLPRO  ***
                                       Copyright, TTI GmbH Stuttgart, 2015
                                    Version 2019.2 linked Oct 25 2019 22:50:27


 **********************************************************************************************************************************
 LABEL *                                                                                 
  64 bit serial version                                                                  DATE: 15-Mar-23          TIME: 16:12:41  
 **********************************************************************************************************************************

 SHA1:             8dbd9ae1082e4ce945b0f27595c9eb2d4aa09004
 **********************************************************************************************************************************


 Variable memory set to  125000000 words,  buffer space 

 SETTING NELECT         =        16.00000000                                  
 SETTING BASIS          =    6-31G*
 ZSYMEL=NOSYM


Geometry recognized as XYZ



 Recomputing integrals since basis changed


 Using spherical harmonics

 Library entry C      S 6-31G                selected for orbital group  1
 Library entry C      P 6-31G                selected for orbital group  1
 Library entry C      D 6-31G*               selected for orbital group  1
 Library entry H      S 6-31G                selected for orbital group  2


 PROGRAM * SEWARD (Integral evaluation for generally contracted gaussian basis sets)     Author: Roland Lindh, 1990

 Geometry written to block  1 of record 700


 Point group  C1  



 ATOMIC COORDINATES

 NR  ATOM    CHARGE       X              Y              Z

   1  C       6.00   -1.190527458    0.260782205    0.563138385
   2  C       6.00    1.207534994   -0.355268511   -0.676521953
   3  H       1.00   -2.384834369    1.687525429   -0.272120562
   4  H       1.00   -1.823585710   -1.636502824   -0.245664396
   5  H       1.00    1.840593245    1.542016518    0.132280829
   6  H       1.00    2.401841904   -1.782011735    0.156847268

 Bond lengths in Bohr (Angstrom)

 1-2  2.768931159  1-3  2.039515318  1-4  2.157455717  2-5  2.157455717  2-6  2.038742132
     ( 1.465255268)     ( 1.079265028)     ( 1.141676399)     ( 1.141676399)     ( 1.078855875)

 Bond angles

  1-2-5   83.72107967   1-2-6  118.68781312   2-1-3  118.64884115   2-1-4   83.72107967

  3-1-4  106.84796133   5-2-6  106.87534598

 NUCLEAR CHARGE:                   16
 NUMBER OF PRIMITIVE AOS:          72
 NUMBER OF SYMMETRY AOS:           70
 NUMBER OF CONTRACTIONS:           36   (   36A   )
 NUMBER OF CORE ORBITALS:           2   (    2A   )
 NUMBER OF VALENCE ORBITALS:       12   (   12A   )


 NUCLEAR REPULSION ENERGY   32.39237630

 Eigenvalues of metric

         1 0.937E-02 0.267E-01 0.583E-01 0.638E-01 0.787E-01 0.217E+00 0.238E+00 0.274E+00


 Contracted 2-electron integrals neglected if value below      1.0D-11
 AO integral compression algorithm  1   Integral accuracy      1.0D-11

     1.573 MB (compressed) written to integral file ( 59.2%)


 NUMBER OF SORTED TWO-ELECTRON INTEGRALS:     222111.     BUFFER LENGTH:  32768
 NUMBER OF SEGMENTS:   1  SEGMENT LENGTH:     222111      RECORD LENGTH: 524288

 Memory used in sort:       0.78 MW

 SORT1 READ      284735. AND WROTE      212531. INTEGRALS IN      1 RECORDS. CPU TIME:     0.00 SEC, REAL TIME:     0.01 SEC
 SORT2 READ      212531. AND WROTE      222111. INTEGRALS IN      6 RECORDS. CPU TIME:     0.02 SEC, REAL TIME:     0.02 SEC

 FILE SIZES:   FILE 1:    31.7 MBYTE,  FILE 4:     4.2 MBYTE,   TOTAL:     35.9 MBYTE

 OPERATOR DM      FOR CENTER  0  COORDINATES:    0.000000    0.000000    0.000000


 **********************************************************************************************************************************
 DATASETS  * FILE   NREC   LENGTH (MB)   RECORD NAMES
              1      19       31.13       500      610      700      900      950      970     1000      129      960     1100   
                                          VAR    BASINP    GEOM    SYMINP    ZMAT    AOBASIS   BASIS     P2S    ABASIS      S 
                                         1400     1410     1200     1210     1080     1600     1650     1300     1700   
                                           T        V       H0       H01     AOSYM     SMH    MOLCAS    ERIS     OPER   

 PROGRAMS   *        TOTAL       INT
 CPU TIMES  *         0.26      0.17
 REAL TIME  *         0.42 SEC
 DISK USED  *        36.24 MB
 **********************************************************************************************************************************


 PROGRAM * RHF-SCF (CLOSED SHELL)       Authors: W. Meyer, H.-J. Werner


 NUMBER OF ELECTRONS:       8+    8-    SPACE SYMMETRY=1    SPIN SYMMETRY: Singlet 
 CONVERGENCE THRESHOLDS:    1.00E-05 (Density)    1.00E-07 (Energy)
 MAX. NUMBER OF ITERATIONS:       60
 INTERPOLATION TYPE:            DIIS
 INTERPOLATION STEPS:              2 (START)      1 (STEP)
 LEVEL SHIFTS:                  0.00 (CLOSED)  0.00 (OPEN) 



 Orbital guess generated from atomic densities. Full valence occupancy:    8

 Molecular orbital dump at record        2100.2

 Initial occupancy:   8

 ITERATION    DDIFF          GRAD             ENERGY        2-EL.EN.            DIPOLE MOMENTS         DIIS   ORB.
    1      0.000D+00      0.000D+00       -77.83086930    115.974426    0.00007    0.00006   -0.00037    0    start
    2      0.000D+00      0.706D-02       -77.84897471    114.962957    0.00042   -0.00019   -0.00052    1    diag
    3      0.756D-02      0.227D-02       -77.85107882    115.375033    0.00036   -0.00014   -0.00040    2    diag
    4      0.295D-02      0.830D-03       -77.85153400    115.248250    0.00051   -0.00021   -0.00055    3    diag
    5      0.161D-02      0.301D-03       -77.85168237    115.255954    0.00042   -0.00014   -0.00039    4    diag
    6      0.102D-02      0.133D-03       -77.85173035    115.257641    0.00073   -0.00033   -0.00083    5    diag
    7      0.630D-03      0.440D-04       -77.85173522    115.258913    0.00014    0.00005    0.00003    6    diag
    8      0.206D-03      0.171D-04       -77.85173561    115.259254    0.00075   -0.00034   -0.00087    7    diag
    9      0.514D-04      0.897D-05       -77.85173569    115.259360    0.00048   -0.00017   -0.00048    8    diag
   10      0.235D-04      0.232D-05       -77.85173570    115.259329    0.00051   -0.00019   -0.00052    9    orth
   11      0.615D-05      0.472D-06       -77.85173570    115.259334    0.00051   -0.00019   -0.00051    0    orth

 Final occupancy:   8

 !RHF STATE  1.1 Energy               -77.851735697057
 Nuclear energy                        32.39237630
 One-electron energy                 -167.87377898
 Two-electron energy                   57.62966698
 Virial quotient                       -1.00089646
 !RHF STATE  1.1 Dipole moment          0.00050568    -0.00018622    -0.00051286
 Dipole moment /Debye                   0.00128522    -0.00047329    -0.00130346

 ELECTRON ORBITALS
 =================

  Orbital  Occupation    Energy     Coefficients
    1.1     2.00000   -11.25842     1 1s    0.69797     2 1s    0.71086
    2.1     2.00000   -11.25758     1 1s    0.71096     2 1s   -0.69807
    3.1     2.00000    -1.03575     1 1s    0.28313     2 1s    0.28323
    4.1     2.00000    -0.78842     1 1s   -0.28819     2 1s    0.28808
    5.1     2.00000    -0.62318     1 2py   0.30829     2 2py   0.30887
    6.1     2.00000    -0.56496     1 2px   0.29644     2 2px  -0.29644
    7.1     2.00000    -0.38959     1 2pz   0.31284     1 2pz   0.28937     2 2pz   0.30534     2 2pz   0.28514
    8.1     2.00000    -0.38932     1 2px   0.28162     2 2px  -0.27237     4 1s   -0.28312     5 1s   -0.28123
    9.1     0.00000     0.06462     1 1s   -0.39301     1 2pz  -0.33190     1 2pz  -0.47261     2 1s   -0.39279     2 2pz   0.33204
                                    2 2pz   0.47286
   10.1     0.00000     0.23264     1 1s   -1.11730     1 2px   0.48484     1 2py   0.36237     1 2pz   0.43068     2 1s   -1.11661
                                    2 2px  -0.48532     2 2py  -0.36237     2 2pz  -0.43024     3 1s    0.58976     4 1s    1.09290
                                    5 1s    1.09308     6 1s    0.58961
   11.1     0.00000     0.28577     1 1s   -1.60465     1 2py  -0.36402     1 2pz   0.46683     2 1s    1.60437     2 2py  -0.36225
                                    2 2pz   0.46546     3 1s    1.46867     6 1s   -1.46641
   12.1     0.00000     0.31559     1 1s   -0.77172     1 2px   0.39997     1 2py  -1.03215     1 2pz   0.44781     2 1s   -0.77477
                                    2 2px  -0.39954     2 2py   1.03413     2 2pz  -0.44807     3 1s    1.59245     4 1s   -0.44069
                                    5 1s   -0.44283     6 1s    1.59646
   13.1     0.00000     0.33618     1 1s   -1.06340     1 2px   0.28245     1 2py   0.76506     1 2pz   0.31533     2 1s    1.06409
                                    2 2px   0.28281     2 2py   0.76374     2 2pz   0.31579     4 1s    1.70346     5 1s   -1.70274
   14.1     0.00000     0.42239     1 1s    1.96033     1 2px   1.77364     1 2py  -0.63865     1 2pz  -0.76834     2 1s   -1.95917
                                    2 2px   1.77406     2 2py  -0.63963     2 2pz  -0.76827     3 1s    0.66603     6 1s   -0.66793
   15.1     0.00000     0.70427     1 2px  -0.55041     1 2px   0.93062     2 2px   0.55043     2 2px  -0.93122     4 1s   -0.42292
                                    5 1s   -0.42283
   16.1     0.00000     0.75454     1 1s   -0.27844     1 2py  -0.37168     1 2px  -0.63944     1 2py   0.79656     2 1s    0.27653
                                    2 2py  -0.37152     2 2px  -0.64027     2 2py   0.79743     3 1s   -0.48496     6 1s    0.48509
   17.1     0.00000     0.78959     1 1s   -0.25100     1 2py   0.58373     1 2pz   0.26136     1 2py  -1.25274     2 1s   -0.25034
                                    2 2py  -0.58379     2 2pz  -0.26355     2 2py   1.25369     4 1s   -0.28005     5 1s   -0.28046
   18.1     0.00000     0.79989     1 2pz  -0.73478     1 2pz   0.71376     2 2pz  -0.73439     2 2pz   0.71348
   19.1     0.00000     0.86486     1 1s   -0.35049     1 2pz  -0.68832     1 2px   0.45550     1 2py  -0.54014     1 2pz   0.96568
                                    2 1s   -0.35047     2 2pz   0.68795     2 2px  -0.45617     2 2py   0.54039     2 2pz  -0.96508
   20.1     0.00000     0.97220     1 2px   0.71794     1 2py   0.36564     1 2px  -1.14830     1 2py  -0.76778     2 2px   0.71769
                                    2 2py   0.36590     2 2px  -1.14830     2 2py  -0.76796     4 1s   -1.02875     5 1s    1.02937
   21.1     0.00000     1.12269     1 1s   -0.68657     1 1s    1.25998     1 2px   0.25069     1 2py   0.40227     1 2px  -0.36251
                                    1 2py  -0.38420     2 1s   -0.68707     2 1s    1.26161     2 2px  -0.25047     2 2py  -0.40203
                                    2 2px   0.36197     2 2py   0.38387     4 1s    0.64912     4 1s   -1.19356     5 1s    0.64879
                                    5 1s   -1.19304
   22.1     0.00000     1.14504     1 1s    0.25181     1 2px  -0.36502     1 2py   0.62474     1 2px   0.64872     1 2py  -0.98268
                                    2 1s   -0.25571     2 2px  -0.36333     2 2py   0.62330     2 2px   0.64759     2 2py  -0.98192
                                    3 1s   -0.47668     3 1s    1.16102     4 1s    0.37969     4 1s   -0.78764     5 1s   -0.38016
                                    5 1s    0.78790     6 1s    0.47213     6 1s   -1.15596
   23.1     0.00000     1.18611     1 1s    0.31031     1 2pz  -0.25570     1 2px   0.87533     2 1s   -0.30339     2 2pz  -0.25454
                                    2 2px   0.87253     3 1s   -0.43061     3 1s    0.74291     4 1s   -0.71163     4 1s    0.82299
                                    5 1s    0.71379     5 1s   -0.82165     6 1s    0.43018     6 1s   -0.73602
   24.1     0.00000     1.20298     1 1s   -0.55601     1 1s    0.87232     1 2px   0.29682     1 2py  -0.31449     1 2px  -0.26435
                                    1 2py   0.28742     2 1s   -0.55139     2 1s    0.85390     2 2px  -0.29972     2 2py   0.31804
                                    2 2px   0.27450     2 2py  -0.29549     3 1s    0.78516     3 1s   -1.03669     6 1s    0.78905
                                    6 1s   -1.04331
   25.1     0.00000     1.24801     1 1s   -1.19354     1 1s    2.15572     1 2px  -0.54427     1 2py   0.57668     1 2pz  -0.97279
                                    2 1s   -1.21494     2 1s    2.21692     2 2px   0.53365     2 2py  -0.56867     2 2pz   0.98639
                                    3 1s   -0.36256     3 1s   -0.99260     4 1s   -0.42999     4 1s   -0.33095     5 1s   -0.42916
                                    5 1s   -0.34281     6 1s   -0.36070     6 1s   -1.00272
   26.1     0.00000     1.28454     1 1s   -1.62103     1 1s    5.10550     1 2px   1.20272     1 2py  -0.74249     1 2pz  -1.21397
                                    2 1s    1.60754     2 1s   -5.08066     2 2px   1.20866     2 2py  -0.74834     2 2pz  -1.20156
                                    3 1s   -0.51590     4 1s   -0.68841     5 1s    0.68370     6 1s    0.50706
   27.1     0.00000     1.69435     1 1s    0.57258     1 3d0   0.34521     1 3d2- -0.29903     1 3d2+ -0.32730     2 1s   -0.57275
                                    2 3d0  -0.34527     2 3d2-  0.29902     2 3d2+  0.32730
   28.1     0.00000     1.92748     1 1s    0.32263     1 1s   -0.69547     1 2pz   0.35780     1 3d0   0.35600     1 3d1+  0.34354
                                    1 3d2+  0.33988     1 3d1-  0.31666     2 1s    0.31851     2 1s   -0.67732     2 2pz  -0.35286
                                    2 3d0   0.35482     2 3d1+  0.34804     2 3d2+  0.34192     2 3d1-  0.32091     3 1s    0.29348
                                    6 1s    0.29357
   29.1     0.00000     1.93885     1 1s   -0.28931     1 1s    1.30367     1 2px   0.30544     1 2pz  -0.33511     1 3d2- -0.30183
                                    1 3d1+  0.40064     1 3d1-  0.39020     2 1s    0.29240     2 1s   -1.31101     2 2px   0.30310
                                    2 2pz  -0.33887     2 3d2-  0.30102     2 3d1+ -0.39659     2 3d1- -0.38654     3 1s   -0.32112
                                    6 1s    0.32394
   30.1     0.00000     2.19257     1 1s    0.34872     1 1s   -1.67764     1 2px  -0.39099     1 2py   0.28360     1 2pz   0.44692
                                    1 3d0   0.57357     1 3d2+  0.35101     2 1s   -0.34775     2 1s    1.67740     2 2px  -0.39031
                                    2 2py   0.28299     2 2pz   0.44681     2 3d0  -0.57353     2 3d2+ -0.35191     3 1s    0.36524
                                    4 1s    0.34532     5 1s   -0.34591     6 1s   -0.36561
   31.1     0.00000     2.24333     1 1s   -0.49386     1 1s    0.31358     1 2px  -0.26148     1 2px   0.29996     1 3d2- -0.29365
                                    1 3d1+ -0.37706     1 3d2+  0.39089     2 1s   -0.49477     2 1s    0.31843     2 2px   0.26132
                                    2 2px  -0.30153     2 3d2- -0.29374     2 3d1+ -0.37746     2 3d2+  0.39036
   32.1     0.00000     2.35220     1 2py   0.36261     1 3d0   0.51531     1 3d2- -0.36883     1 3d1- -0.35389     2 2py  -0.36304
                                    2 3d0   0.51492     2 3d2- -0.36916     2 3d1- -0.35411     3 1s   -0.26956     4 1s    0.40009
                                    5 1s    0.40016     6 1s   -0.26986
   33.1     0.00000     2.59237     1 1s   -0.29297     1 2py   0.30295     1 3d2- -0.48963     1 3d1- -0.59634     2 1s    0.29388
                                    2 2py   0.30427     2 3d2-  0.48645     2 3d1-  0.59792     3 1s   -0.50580     4 1s    0.41064
                                    5 1s   -0.41198     6 1s    0.50441
   34.1     0.00000     2.63976     1 2py   0.32715     1 3d2-  0.42330     1 3d2+  0.52611     1 3d1- -0.51074     2 2py  -0.32587
                                    2 3d2-  0.42573     2 3d2+  0.52585     2 3d1- -0.50787     4 1s    0.37121     5 1s    0.36934
   35.1     0.00000     2.73028     1 3d0  -0.39654     1 3d2- -0.50739     1 3d1+  0.49268     1 3d1- -0.26785     2 3d0  -0.39683
                                    2 3d2- -0.50892     2 3d1+  0.49339     2 3d1- -0.26935     3 1s   -0.49923     6 1s   -0.50151
   36.1     0.00000     2.95641     1 1s   -1.70731     1 2px  -0.42771     1 2px  -0.87240     1 2pz   0.43537     1 3d2-  0.34714
                                    1 3d1+  0.69064     1 3d2+ -0.64592     2 1s    1.70720     2 2px  -0.42773     2 2px  -0.87234
                                    2 2pz   0.43537     2 3d2- -0.34733     2 3d1+ -0.69041     2 3d2+  0.64589


 HOMO      8.1    -0.389324 =     -10.5941eV
 LUMO      9.1     0.064619 =       1.7584eV
 LUMO-HOMO         0.453943 =      12.3524eV


 **********************************************************************************************************************************
 DATASETS  * FILE   NREC   LENGTH (MB)   RECORD NAMES
              1      19       31.13       500      610      700      900      950      970     1000      129      960     1100   
                                          VAR    BASINP    GEOM    SYMINP    ZMAT    AOBASIS   BASIS     P2S    ABASIS      S 
                                         1400     1410     1200     1210     1080     1600     1650     1300     1700   
                                           T        V       H0       H01     AOSYM     SMH    MOLCAS    ERIS     OPER   

              2       4        2.86       700     1000      520     2100   
                                         GEOM     BASIS   MCVARS     RHF  

 PROGRAMS   *        TOTAL    HF-SCF       INT
 CPU TIMES  *         0.35      0.09      0.17
 REAL TIME  *         0.57 SEC
 DISK USED  *        36.24 MB
 **********************************************************************************************************************************


 PROGRAM * MULTI (Direct Multiconfiguration SCF)       Authors: P.J. Knowles, H.-J. Werner (1984)


 Number of closed-shell orbitals:   7 (   7 )
 Number of active  orbitals:        2 (   2 )
 Number of external orbitals:      27 (  27 )

 State symmetry 1

 Number of electrons:     2    Spin symmetry=Singlet   Space symmetry=1
 Number of states:        3
 Number of CSFs:          3   (4 determinants, 4 intermediate states)

 Molecular orbitals read from record     2100.2  Type=RHF/CANONICAL (state 1.1)

 Wavefunction dump at record             2140.2

 Convergence thresholds  0.10E-01 (gradient)  0.10E-05 (energy)  0.10E-02 (step length)

 Weight factors for state symmetry  1:    0.33333   0.33333   0.33333

 Number of orbital rotations:      257   (    14 Core/Active    189 Core/Virtual   0 Active/Active     54 Active/Virtual)
 Total number of variables:        269

 Micro-Iterations solved by the two-step solver

 ITER. MIC  NCI  NEG     ENERGY(VAR)     ENERGY(PROJ)   ENERGY CHANGE     GRAD(0)  GRAD(ORB)   GRAD(CI)     STEP       TIME

   1    8    5    0     -77.69255446     -77.71243025   -0.01987579    0.16792995 0.00185494 0.00000000  0.14D+00      0.11
   2    7    5    0     -77.71212415     -77.71214458   -0.00002043    0.00666277 0.00000492 0.00000000  0.47D-02      0.21
   3    5    4    0     -77.71214461     -77.71214461   -0.00000000    0.00001343 0.00000000 0.00000000  0.18D-04      0.28

 ** WVFN ****  CONVERGENCE REACHED, FINAL GRADIENT:  0.18D-09



 Results for state 1.1
 =====================

 !MCSCF STATE  1.1 Energy             -77.845278679288
 Nuclear energy                        32.39237630
 Kinetic energy                        77.84076257
 One electron energy                 -167.95454387
 Two electron energy                   57.71688889
 Virial ratio                           2.00005802

 !MCSCF STATE  1.1 Dipole moment        0.00051105    -0.00015207    -0.00054929
 Dipole moment /Debye                   0.00129889    -0.00038649    -0.00139607

 Results for state 2.1
 =====================

 !MCSCF STATE  2.1 Energy             -77.739799403953
 Nuclear energy                        32.39237630
 Kinetic energy                        77.91484798
 One electron energy                 -167.64127618
 Two electron energy                   57.50910048
 Virial ratio                           1.99775333

 !MCSCF STATE  2.1 Dipole moment        0.00049602    -0.00030013    -0.00043621
 Dipole moment /Debye                   0.00126067    -0.00076279    -0.00110866

 Results for state 3.1
 =====================

 !MCSCF STATE  3.1 Energy             -77.551355748995
 Nuclear energy                        32.39237630
 Kinetic energy                        77.97582089
 One electron energy                 -167.37161232
 Two electron energy                   57.42788028
 Virial ratio                           1.99455645

 !MCSCF STATE  3.1 Dipole moment        0.00041929    -0.00042625    -0.00022981
 Dipole moment /Debye                   0.00106567    -0.00108335    -0.00058408

 State-averaged charge density matrix saved on record  2140.2 (density set 1)

 !MCSCF expec         <1.1|DMX|1.1>     0.000511054730 au =     0.001298886481 Debye
 !MCSCF trans         <2.1|DMX|1.1>    -0.000146717443 au =    -0.000372894119 Debye
 !MCSCF expec         <2.1|DMX|2.1>     0.000496017282 au =     0.001260667603 Debye
 !MCSCF trans         <3.1|DMX|1.1>    -0.000006070416 au =    -0.000015428448 Debye
 !MCSCF trans         <3.1|DMX|2.1>    -0.000157763401 au =    -0.000400968305 Debye
 !MCSCF expec         <3.1|DMX|3.1>     0.000419293747 au =     0.001065668602 Debye

 !MCSCF expec         <1.1|DMY|1.1>    -0.000152066468 au =    -0.000386489094 Debye
 !MCSCF trans         <2.1|DMY|1.1>     0.000046745354 au =     0.000118807057 Debye
 !MCSCF expec         <2.1|DMY|2.1>    -0.000300125051 au =    -0.000762791827 Debye
 !MCSCF trans         <3.1|DMY|1.1>     0.000016384372 au =     0.000041642192 Debye
 !MCSCF trans         <3.1|DMY|2.1>     0.000061035987 au =     0.000155127844 Debye
 !MCSCF expec         <3.1|DMY|3.1>    -0.000426250607 au =    -0.001083350019 Debye

 !MCSCF expec         <1.1|DMZ|1.1>    -0.000549290785 au =    -0.001396066473 Debye
 !MCSCF trans         <2.1|DMZ|1.1>     0.000225147598 au =     0.000572230632 Debye
 !MCSCF expec         <2.1|DMZ|2.1>    -0.000436210441 au =    -0.001108663733 Debye
 !MCSCF trans         <3.1|DMZ|1.1>     0.000000806507 au =     0.000002049803 Debye
 !MCSCF trans         <3.1|DMZ|2.1>     0.000235755747 au =     0.000599192092 Debye
 !MCSCF expec         <3.1|DMZ|3.1>    -0.000229810903 au =    -0.000584082796 Debye


 NATURAL ORBITALS (state averaged)
 =================================

  Orbital  Occupation    Energy     Coefficients
    1.1     2.00000   -11.25340     1 1s    0.71392     2 1s    0.69481
    2.1     2.00000   -11.25268     1 1s    0.69487     2 1s   -0.71397
    3.1     2.00000    -1.04846     1 1s    0.27814     2 1s    0.27821
    4.1     2.00000    -0.78909     1 1s   -0.31369     2 1s    0.31362
    5.1     2.00000    -0.62649     1 2py   0.30210     2 2py   0.30264
    6.1     2.00000    -0.56369     1 2px   0.25650     2 2px  -0.25646
    7.1     2.00000    -0.41764     1 2pz   0.32601     1 2pz   0.28232     2 2pz   0.32591     2 2pz   0.28227
    8.1     1.00000    -0.23220     1 2px   0.31303     2 2px  -0.31302     4 1s   -0.29055     5 1s   -0.29050
    9.1     1.00000    -0.08611     1 1s   -0.26232     1 2pz  -0.40613     1 2pz  -0.43147     2 1s   -0.26215     2 2pz   0.40628
                                    2 2pz   0.43164
   10.1    -0.00000     0.22054     1 1s   -1.12268     1 2px   0.48012     1 2py   0.37977     1 2pz   0.37234     2 1s   -1.12197
                                    2 2px  -0.48056     2 2py  -0.37971     2 2pz  -0.37189     3 1s    0.55352     4 1s    1.10368
                                    5 1s    1.10370     6 1s    0.55340
   11.1    -0.00000     0.28475     1 1s   -1.70576     1 2py  -0.28898     1 2pz   0.48645     2 1s    1.70526     2 2py  -0.28720
                                    2 2pz   0.48513     3 1s    1.45613     6 1s   -1.45371
   12.1    -0.00000     0.31793     1 1s   -0.82931     1 2px   0.40254     1 2py  -1.02228     1 2pz   0.42596     2 1s   -0.82930
                                    2 2px  -0.40184     2 2py   1.02701     2 2pz  -0.42520     3 1s    1.61152     4 1s   -0.39416
                                    5 1s   -0.40150     6 1s    1.61642
   13.1    -0.00000     0.32054     1 1s   -1.03733     1 2py   0.85520     1 2pz   0.31919     2 1s    1.04067     2 2py   0.85076
                                    2 2pz   0.32106     4 1s    1.71385     5 1s   -1.71202
   14.1    -0.00000     0.42836     1 1s    1.81830     1 2px   1.78539     1 2py  -0.52928     1 2pz  -0.71014     2 1s   -1.81716
                                    2 2px   1.78578     2 2py  -0.53025     2 2pz  -0.71008     3 1s    0.66512     6 1s   -0.66699
   15.1    -0.00000     0.70066     1 2px  -0.53496     1 2px   0.90632     2 2px   0.53496     2 2px  -0.90678     4 1s    0.25543
                                    4 1s   -0.47895     5 1s    0.25555     5 1s   -0.47890
   16.1    -0.00000     0.75179     1 1s   -0.38059     1 2py  -0.36233     1 2px  -0.68641     1 2py   0.81358     2 1s    0.37878
                                    2 2py  -0.36188     2 2px  -0.68715     2 2py   0.81381     3 1s   -0.48232     6 1s    0.48236
   17.1    -0.00000     0.78874     1 2py   0.55848     1 2pz   0.26042     1 2py  -1.23255     1 2pz  -0.29504     2 2py  -0.55870
                                    2 2pz  -0.26275     2 2py   1.23397     2 2pz   0.29775     4 1s   -0.28209     5 1s   -0.28267
   18.1    -0.00000     0.79944     1 1s   -0.39257     1 2pz  -0.73065     1 2pz   0.77970     2 1s    0.39356     2 2pz  -0.73016
                                    2 2pz   0.77915
   19.1    -0.00000     0.86263     1 1s   -0.30776     1 2px  -0.25077     1 2pz  -0.66229     1 2px   0.49290     1 2py  -0.55025
                                    1 2pz   1.02073     2 1s   -0.30776     2 2px   0.25093     2 2pz   0.66197     2 2px  -0.49358
                                    2 2py   0.55050     2 2pz  -1.02018     3 1s    0.28700     6 1s    0.28733
   20.1    -0.00000     0.97869     1 2px   0.71603     1 2py   0.36948     1 2px  -1.06868     1 2py  -0.78285     2 2px   0.71579
                                    2 2py   0.36975     2 2px  -1.06874     2 2py  -0.78303     4 1s   -0.98710     5 1s    0.98774
   21.1    -0.00000     1.09689     1 1s   -0.64975     1 1s    1.18078     1 2px   0.27818     1 2py   0.42109     1 2px  -0.36102
                                    1 2py  -0.42884     2 1s   -0.64985     2 1s    1.18126     2 2px  -0.27797     2 2py  -0.42081
                                    2 2px   0.36071     2 2py   0.42836     4 1s    0.66122     4 1s   -1.16266     5 1s    0.66091
                                    5 1s   -1.16198
   22.1    -0.00000     1.12685     1 1s    0.26638     1 2py   0.59980     1 2py  -0.80932     2 1s   -0.26580     2 2py   0.59920
                                    2 2py  -0.80961     3 1s    0.61238     4 1s    0.68190     4 1s   -1.12888     5 1s   -0.68277
                                    5 1s    1.12863     6 1s   -0.61073
   23.1    -0.00000     1.16816     1 1s    0.30834     1 2px  -0.39487     1 2px   1.13496     1 2py  -0.60204     2 1s   -0.31880
                                    2 2px  -0.39384     2 2px   1.13249     2 2py  -0.59944     3 1s   -0.61178     3 1s    1.22050
                                    4 1s   -0.42272     4 1s    0.34170     5 1s    0.42404     5 1s   -0.34071     6 1s    0.60885
                                    6 1s   -1.21281
   24.1    -0.00000     1.20690     1 1s   -0.42337     1 1s    0.62076     1 2px   0.28687     1 2py  -0.31068     2 1s   -0.41629
                                    2 1s    0.59508     2 2px  -0.28973     2 2py   0.31386     3 1s    0.82128     3 1s   -0.92885
                                    6 1s    0.82486     6 1s   -0.93392
   25.1    -0.00000     1.23932     1 1s   -1.27730     1 1s    2.29653     1 2px  -0.57752     1 2py   0.60532     1 2pz  -0.97400
                                    2 1s   -1.29541     2 1s    2.34797     2 2px   0.56908     2 2py  -0.60006     2 2pz   0.98498
                                    3 1s   -0.29299     3 1s   -1.09186     4 1s   -0.38845     4 1s   -0.38827     5 1s   -0.38841
                                    5 1s   -0.39678     6 1s   -0.29085     6 1s   -1.10187
   26.1    -0.00000     1.27857     1 1s   -1.62547     1 1s    5.10364     1 2px   1.20741     1 2py  -0.70105     1 2pz  -1.19558
                                    2 1s    1.61365     2 1s   -5.08173     2 2px   1.21260     2 2py  -0.70604     2 2pz  -1.18460
                                    3 1s   -0.54061     4 1s   -0.64850     5 1s    0.64379     6 1s    0.53350
   27.1    -0.00000     1.68866     1 1s    0.59781     1 3d0   0.33925     1 3d2- -0.30276     1 3d2+ -0.32922     2 1s   -0.59795
                                    2 3d0  -0.33930     2 3d2-  0.30274     2 3d2+  0.32921
   28.1    -0.00000     1.92457     1 1s    0.31210     1 1s   -0.68320     1 2pz   0.35180     1 3d0   0.35355     1 3d1+  0.33904
                                    1 3d2+  0.34739     1 3d1-  0.31619     2 1s    0.30824     2 1s   -0.66620     2 2pz  -0.34717
                                    2 3d0   0.35238     2 3d1+  0.34331     2 3d2+  0.34930     2 3d1-  0.32018     3 1s    0.29029
                                    6 1s    0.29046
   29.1    -0.00000     1.93552     1 1s   -0.28235     1 1s    1.27264     1 2px   0.29517     1 2pz  -0.32667     1 3d2- -0.29946
                                    1 3d1+  0.40334     1 3d1-  0.38879     2 1s    0.28511     2 1s   -1.27941     2 2px   0.29292
                                    2 2pz  -0.33014     2 3d2-  0.29859     2 3d1+ -0.39958     2 3d1- -0.38533     3 1s   -0.32290
                                    6 1s    0.32557
   30.1    -0.00000     2.19253     1 1s    0.35245     1 1s   -1.66546     1 2px  -0.38543     1 2py   0.28604     1 2pz   0.44105
                                    1 3d0   0.57659     1 3d2+  0.35375     2 1s   -0.35124     2 1s    1.66506     2 2px  -0.38460
                                    2 2py   0.28535     2 2pz   0.44087     2 3d0  -0.57649     2 3d2+ -0.35486     3 1s    0.36403
                                    4 1s    0.33998     5 1s   -0.34065     6 1s   -0.36439
   31.1    -0.00000     2.23846     1 1s   -0.49012     1 1s    0.31933     1 2px  -0.26837     1 2px   0.29276     1 3d2- -0.30538
                                    1 3d1+ -0.38624     1 3d2+  0.39010     2 1s   -0.49122     2 1s    0.32496     2 2px   0.26824
                                    2 2px  -0.29447     2 3d2- -0.30554     2 3d1+ -0.38667     2 3d2+  0.38935
   32.1    -0.00000     2.34592     1 2py   0.37884     1 3d0   0.51525     1 3d2- -0.36498     1 3d1- -0.36755     2 2py  -0.37928
                                    2 3d0   0.51484     2 3d2- -0.36529     2 3d1- -0.36774     3 1s   -0.28362     4 1s    0.38971
                                    5 1s    0.38976     6 1s   -0.28390
   33.1    -0.00000     2.58668     1 1s   -0.27756     1 2py   0.30278     1 3d2- -0.49242     1 3d1- -0.59719     2 1s    0.27854
                                    2 2py   0.30429     2 3d2-  0.48915     2 3d1-  0.59904     3 1s   -0.50946     4 1s    0.40131
                                    5 1s   -0.40282     6 1s    0.50811
   34.1    -0.00000     2.63109     1 2py   0.33262     1 3d2-  0.43047     1 3d2+  0.52109     1 3d1- -0.51212     2 2py  -0.33123
                                    2 3d2-  0.43313     2 3d2+  0.52079     2 3d1- -0.50902     4 1s    0.36167     5 1s    0.35970
   35.1    -0.00000     2.73452     1 3d0  -0.40476     1 3d2- -0.49594     1 3d1+  0.49748     1 3d1- -0.26866     2 3d0  -0.40507
                                    2 3d2- -0.49740     2 3d1+  0.49819     2 3d1- -0.27011     3 1s   -0.49723     6 1s   -0.49944
   36.1    -0.00000     2.95145     1 1s   -1.73845     1 2px  -0.42147     1 2px  -0.88489     1 2pz   0.44350     1 3d2-  0.34483
                                    1 3d1+  0.69362     1 3d2+ -0.64314     2 1s    1.73835     2 2px  -0.42150     2 2px  -0.88484
                                    2 2pz   0.44350     2 3d2- -0.34503     2 3d1+ -0.69337     2 3d2+  0.64311


 Natural orbital dump (state averaged) at molpro section  2140.2    (Orbital set 2)



 **********************************************************************************************************************************
 DATASETS  * FILE   NREC   LENGTH (MB)   RECORD NAMES
              1      20       31.86       500      610      700      900      950      970     1000      129      960     1100   
                                          VAR    BASINP    GEOM    SYMINP    ZMAT    AOBASIS   BASIS     P2S    ABASIS      S 
                                         1400     1410     1200     1210     1080     1600     1650     1300     1700     1380   
                                           T        V       H0       H01     AOSYM     SMH    MOLCAS    ERIS     OPER     JKOP   

              2       5        5.42       700     1000      520     2100     2140   
                                         GEOM     BASIS   MCVARS     RHF     MCSCF   

 PROGRAMS   *        TOTAL     MULTI    HF-SCF       INT
 CPU TIMES  *         0.67      0.32      0.09      0.17
 REAL TIME  *         0.96 SEC
 DISK USED  *        39.04 MB
 **********************************************************************************************************************************
 Molecular orbitals read from record     2140.2  Type=MCSCF/NATURAL (state averaged)
 Occupation numbers read from record     2140.2  Type=MCSCF/NATURAL (state averaged)
 Orbital energies read from record       2140.2  Type=MCSCF/NATURAL (state averaged)
 Redundancy group numbers read from rec  2140.2  Type=MCSCF/NATURAL (state averaged)

 MULTI/6-31G* energy=    -77.551355748995

           MULTI          HF-SCF
    -77.55135575    -77.85173570
 **********************************************************************************************************************************
 Molpro calculation terminated
