
 Primary working directories    : /scratch.local/johan406.molpro_temp/molpro.bYDywlYElZ
 Secondary working directories  : /scratch.local/johan406.molpro_temp/molpro.bYDywlYElZ
 Wavefunction directory         : /home/goodpast/johan406/wfu/
 Main file repository           : /scratch.local/johan406.molpro_temp/molpro.bYDywlYElZ/

 id        : roweumn

 Nodes     nprocs
 acn06        1

 Using customized tuning parameters: mindgm=1; mindgv=20; mindgc=4; mindgr=1; noblas=0; minvec=7
 default implementation of scratch files=df  


 Variables initialized (934), CPU time= 0.00 sec
                                                                                 !leave this line blank
 
 gprint, orbitals=30
 memory, 125., m
 symmetry, nosym
 nelect=16
 basis=6-31g*
 
 geometry={
 C -0.840 0.058 0.302
 C 0.849 -0.108 -0.363
 H -1.074 1.127 0.013
 H -1.379 -0.672 0.286
 H 1.388 0.622 -0.346
 H 1.083 -1.177 -0.073
 }
 
 hf
 {multi,
 closed 7
 occ 9
 wf,spin=0;STATE,3
 }
 
 Commands  initialized (763), CPU time= 0.01 sec, 617 directives.
 Default parameters read. Elapsed time= 0.07 sec

 Checking input...
 Passed
1


                                         ***  PROGRAM SYSTEM MOLPRO  ***
                                       Copyright, TTI GmbH Stuttgart, 2015
                                    Version 2019.2 linked Oct 25 2019 22:50:27


 **********************************************************************************************************************************
 LABEL *                                                                                 
  64 bit serial version                                                                  DATE: 15-Mar-23          TIME: 16:23:24  
 **********************************************************************************************************************************

 SHA1:             8dbd9ae1082e4ce945b0f27595c9eb2d4aa09004
 **********************************************************************************************************************************


 Variable memory set to  125000000 words,  buffer space 

 SETTING NELECT         =        16.00000000                                  
 SETTING BASIS          =    6-31G*
 ZSYMEL=NOSYM


Geometry recognized as XYZ



 Recomputing integrals since basis changed


 Using spherical harmonics

 Library entry C      S 6-31G                selected for orbital group  1
 Library entry C      P 6-31G                selected for orbital group  1
 Library entry C      D 6-31G*               selected for orbital group  1
 Library entry H      S 6-31G                selected for orbital group  2


 PROGRAM * SEWARD (Integral evaluation for generally contracted gaussian basis sets)     Author: Roland Lindh, 1990

 Geometry written to block  1 of record 700


 Point group  C1  



 ATOMIC COORDINATES

 NR  ATOM    CHARGE       X              Y              Z

   1  C       6.00   -1.587369945    0.109604115    0.570697290
   2  C       6.00    1.604377480   -0.204090421   -0.685970583
   3  H       1.00   -2.029565858    2.129721342    0.024566440
   4  H       1.00   -2.605932326   -1.269895956    0.540461672
   5  H       1.00    2.622939861    1.175409649   -0.653845239
   6  H       1.00    2.046573393   -2.224207649   -0.137950007

 Bond lengths in Bohr (Angstrom)

 1-2  3.444542063  1-3  2.138847760  1-4  1.715052175  2-5  1.715086531  2-6  2.139331061
     ( 1.822773162)     ( 1.131829492)     ( 0.907566526)     ( 0.907584707)     ( 1.132085244)

 Bond angles

  1-2-5  118.04823116   1-2-6  100.60678022   2-1-3  100.62799497   2-1-4  118.07494312

  3-1-4  129.22828001   5-2-6  129.19475552

 NUCLEAR CHARGE:                   16
 NUMBER OF PRIMITIVE AOS:          72
 NUMBER OF SYMMETRY AOS:           70
 NUMBER OF CONTRACTIONS:           36   (   36A   )
 NUMBER OF CORE ORBITALS:           2   (    2A   )
 NUMBER OF VALENCE ORBITALS:       12   (   12A   )


 NUCLEAR REPULSION ENERGY   29.78668480

 Eigenvalues of metric

         1 0.190E-01 0.197E-01 0.421E-01 0.506E-01 0.842E-01 0.192E+00 0.215E+00 0.286E+00


 Contracted 2-electron integrals neglected if value below      1.0D-11
 AO integral compression algorithm  1   Integral accuracy      1.0D-11

     1.311 MB (compressed) written to integral file ( 66.3%)


 NUMBER OF SORTED TWO-ELECTRON INTEGRALS:     222111.     BUFFER LENGTH:  32768
 NUMBER OF SEGMENTS:   1  SEGMENT LENGTH:     222111      RECORD LENGTH: 524288

 Memory used in sort:       0.78 MW

 SORT1 READ      284735. AND WROTE      212343. INTEGRALS IN      1 RECORDS. CPU TIME:     0.00 SEC, REAL TIME:     0.01 SEC
 SORT2 READ      212343. AND WROTE      222111. INTEGRALS IN      5 RECORDS. CPU TIME:     0.03 SEC, REAL TIME:     0.03 SEC

 FILE SIZES:   FILE 1:    31.4 MBYTE,  FILE 4:     4.2 MBYTE,   TOTAL:     35.6 MBYTE

 OPERATOR DM      FOR CENTER  0  COORDINATES:    0.000000    0.000000    0.000000


 **********************************************************************************************************************************
 DATASETS  * FILE   NREC   LENGTH (MB)   RECORD NAMES
              1      19       31.09       500      610      700      900      950      970     1000      129      960     1100   
                                          VAR    BASINP    GEOM    SYMINP    ZMAT    AOBASIS   BASIS     P2S    ABASIS      S 
                                         1400     1410     1200     1210     1080     1600     1650     1300     1700   
                                           T        V       H0       H01     AOSYM     SMH    MOLCAS    ERIS     OPER   

 PROGRAMS   *        TOTAL       INT
 CPU TIMES  *         0.29      0.19
 REAL TIME  *         0.45 SEC
 DISK USED  *        35.97 MB
 **********************************************************************************************************************************


 PROGRAM * RHF-SCF (CLOSED SHELL)       Authors: W. Meyer, H.-J. Werner


 NUMBER OF ELECTRONS:       8+    8-    SPACE SYMMETRY=1    SPIN SYMMETRY: Singlet 
 CONVERGENCE THRESHOLDS:    1.00E-05 (Density)    1.00E-07 (Energy)
 MAX. NUMBER OF ITERATIONS:       60
 INTERPOLATION TYPE:            DIIS
 INTERPOLATION STEPS:              2 (START)      1 (STEP)
 LEVEL SHIFTS:                  0.00 (CLOSED)  0.00 (OPEN) 



 Orbital guess generated from atomic densities. Full valence occupancy:    8

 Molecular orbital dump at record        2100.2

 Initial occupancy:   8

 ITERATION    DDIFF          GRAD             ENERGY        2-EL.EN.            DIPOLE MOMENTS         DIIS   ORB.
    1      0.000D+00      0.000D+00       -77.77654296    110.167850   -0.00077    0.00011    0.00103    0    start
    2      0.000D+00      0.706D-02       -77.79750730    109.633548   -0.00035    0.00024    0.00073    1    diag
    3      0.784D-02      0.222D-02       -77.80065586    109.874801   -0.00118    0.00029    0.00128    2    diag
    4      0.341D-02      0.839D-03       -77.80143945    109.793393   -0.00036    0.00030    0.00074    3    diag
    5      0.156D-02      0.533D-03       -77.80214964    109.810624   -0.00222    0.00033    0.00194    4    diag
    6      0.220D-02      0.232D-03       -77.80230003    109.812641    0.00263    0.00032   -0.00120    5    diag
    7      0.133D-02      0.638D-04       -77.80230249    109.812888   -0.00257    0.00034    0.00217    6    diag
    8      0.109D-03      0.304D-04       -77.80230304    109.813192   -0.00077    0.00033    0.00101    7    diag
    9      0.489D-04      0.652D-05       -77.80230310    109.813354   -0.00090    0.00033    0.00109    8    diag
   10      0.175D-04      0.161D-05       -77.80230310    109.813343   -0.00089    0.00033    0.00108    9    orth
   11      0.395D-05      0.373D-06       -77.80230310    109.813343   -0.00089    0.00033    0.00108    0    orth

 Final occupancy:   8

 !RHF STATE  1.1 Energy               -77.802303101639
 Nuclear energy                        29.78668480
 One-electron energy                 -162.49565937
 Two-electron energy                   54.90667147
 Virial quotient                       -0.99943685
 !RHF STATE  1.1 Dipole moment         -0.00088994     0.00033337     0.00108308
 Dipole moment /Debye                  -0.00226185     0.00084729     0.00275275

 ELECTRON ORBITALS
 =================

  Orbital  Occupation    Energy     Coefficients
    1.1     2.00000   -11.26872     1 1s    0.79528     2 1s    0.59998
    2.1     2.00000   -11.26841     1 1s   -0.60011     2 1s    0.79538
    3.1     2.00000    -0.96133     1 1s    0.28294     1 1s    0.25009     2 1s    0.28264
    4.1     2.00000    -0.86376     1 1s    0.26854     2 1s   -0.26879
    5.1     2.00000    -0.63661     1 2py   0.31364     2 2py   0.31178
    6.1     2.00000    -0.60510     1 2py  -0.29496     2 2py   0.29679
    7.1     2.00000    -0.43599     1 2px  -0.34610     2 2px   0.34604
    8.1     2.00000    -0.30123     1 2pz   0.31184     1 2pz   0.33451     2 2pz   0.31211     2 2pz   0.33471
    9.1     0.00000     0.07224     1 2pz   0.35758     1 2pz   0.49864     2 2pz  -0.35737     2 2pz  -0.49829
   10.1     0.00000     0.25189     1 1s   -1.39948     1 2px   0.42604     1 2py  -0.27185     2 1s   -1.39801     2 2px  -0.42618
                                    2 2py   0.27198     3 1s    1.12122     4 1s    0.84437     5 1s    0.84350     6 1s    1.12065
   11.1     0.00000     0.27630     1 1s    1.42212     1 2px   0.69145     1 2pz  -0.40921     2 1s   -1.42342     2 2px   0.69119
                                    2 2pz  -0.40984     3 1s   -0.30076     4 1s   -0.59970     5 1s    0.60060     6 1s    0.30190
   12.1     0.00000     0.31200     1 1s   -0.80669     1 2px   0.28625     1 2py  -0.73236     2 1s    0.80638     2 2px   0.28639
                                    2 2py  -0.73164     3 1s    1.49782     6 1s   -1.49704
   13.1     0.00000     0.35797     1 1s   -0.97011     1 2px   0.47850     1 2py   1.44208     2 1s   -0.94915     2 2px  -0.45820
                                    2 2py  -1.42611     3 1s   -1.01046     4 1s    2.20973     5 1s    2.16396     6 1s   -1.00443
   14.1     0.00000     0.36017     1 1s    0.97668     1 2px  -0.90873     1 2py  -0.70262     2 1s   -0.99786     2 2px  -0.91916
                                    2 2py  -0.73367     4 1s   -2.05106     5 1s    2.09881     6 1s   -0.25552
   15.1     0.00000     0.67382     1 1s   -0.41389     1 2px  -0.35279     1 2py  -0.25360     1 2px   0.96386     1 2py   0.87099
                                    2 1s    0.41243     2 2px  -0.35247     2 2py  -0.25394     2 2px   0.96303     2 2py   0.87057
                                    4 1s    0.42287     4 1s    0.72643     5 1s   -0.42257     5 1s   -0.72545
   16.1     0.00000     0.75001     1 1s    0.40901     1 1s   -1.13081     1 2px  -0.44548     1 2px   0.89129     2 1s    0.40925
                                    2 1s   -1.13202     2 2px   0.44380     2 2px  -0.88896     3 1s    0.33479     4 1s    0.27006
                                    4 1s    0.54709     5 1s    0.27048     5 1s    0.54840     6 1s    0.33284
   17.1     0.00000     0.79383     1 1s   -0.25058     1 2px   0.51000     1 2py  -0.33997     1 2px  -0.74332     1 2py   0.70831
                                    2 2px   0.51217     2 2py  -0.34119     2 2px  -0.74701     2 2py   0.70850     3 1s   -0.40069
                                    6 1s    0.40213
   18.1     0.00000     0.80649     1 2pz   0.78194     1 2pz  -0.70517     2 2pz   0.78133     2 2pz  -0.70422
   19.1     0.00000     0.85522     1 2pz   0.75523     1 2pz  -0.88843     2 2pz  -0.75603     2 2pz   0.88933
   20.1     0.00000     0.93253     1 1s    0.30736     1 1s   -1.03000     1 2py  -0.61070     1 2px   0.35239     1 2py   2.00964
                                    2 1s    0.30620     2 1s   -1.02793     2 2py   0.61043     2 2px  -0.35375     2 2py  -2.00821
                                    3 1s   -0.69379     4 1s    0.33831     4 1s    1.32007     5 1s    0.33806     5 1s    1.31926
                                    6 1s   -0.69248
   21.1     0.00000     1.01621     1 1s   -0.55373     1 1s    0.29131     1 2px  -0.52621     1 2py  -0.29625     1 2px   0.59606
                                    1 2py   1.26229     1 2pz  -0.33975     2 1s   -0.55277     2 1s    0.28938     2 2px   0.52575
                                    2 2py   0.29625     2 2px  -0.59403     2 2py  -1.26117     2 2pz   0.33898     3 1s   -0.39588
                                    3 1s   -0.44515     4 1s    0.69701     5 1s    0.69532     6 1s   -0.39560     6 1s   -0.44433
   22.1     0.00000     1.14232     1 2px  -0.31828     1 2py   0.40344     1 2px   0.78885     1 2py  -0.57747     2 2px  -0.31874
                                    2 2py   0.40458     2 2px   0.79015     2 2py  -0.57721     3 1s   -0.73947     3 1s    1.16766
                                    6 1s    0.74273     6 1s   -1.17214
   23.1     0.00000     1.17069     1 1s   -0.98091     1 1s    1.82361     1 2px  -0.35911     2 1s   -0.97895     2 1s    1.82063
                                    2 2px   0.35606     3 1s    0.63426     3 1s   -0.99300     4 1s   -0.69579     5 1s   -0.69431
                                    6 1s    0.63092     6 1s   -0.98756
   24.1     0.00000     1.22669     1 1s    1.36321     1 1s   -3.18704     1 2py   0.32896     1 2px  -0.97597     1 2py  -0.44854
                                    1 2pz   0.58080     2 1s   -1.36516     2 1s    3.19075     2 2py   0.32865     2 2px  -0.97518
                                    2 2py  -0.44629     2 2pz   0.58173     3 1s    0.79544     4 1s    0.25801     5 1s   -0.25844
                                    6 1s   -0.79526
   25.1     0.00000     1.41377     1 1s   -0.87744     1 1s    1.84603     1 2px   0.34657     1 2py   0.51296     1 2px  -0.39381
                                    1 2py  -0.72459     2 1s    0.87468     2 1s   -1.84160     2 2px   0.34543     2 2py   0.51074
                                    2 2px  -0.39258     2 2py  -0.72271     4 1s    0.64692     4 1s   -1.62580     5 1s   -0.64356
                                    5 1s    1.62065
   26.1     0.00000     1.41990     1 1s   -0.70683     1 1s    1.14199     1 2px   0.26303     1 2py   0.46088     1 2px  -0.30162
                                    1 2py  -0.36827     2 1s   -0.71053     2 1s    1.14957     2 2px  -0.26480     2 2py  -0.46305
                                    2 2px   0.30410     2 2py   0.37150     4 1s    0.73618     4 1s   -1.17138     5 1s    0.73923
                                    5 1s   -1.17895
   27.1     0.00000     1.80614     1 3d0  -0.31242     1 3d1+  0.53054     1 3d2+  0.26235     2 3d0   0.31198     2 3d1+ -0.53030
                                    2 3d2+ -0.26276
   28.1     0.00000     1.87755     1 1s    0.30189     1 3d0   0.31936     1 3d1+  0.41799     1 3d2+ -0.35356     2 1s    0.30177
                                    2 3d0   0.31924     2 3d1+  0.41806     2 3d2+ -0.35377
   29.1     0.00000     1.91565     1 3d1-  0.61722     2 3d1- -0.61508
   30.1     0.00000     2.09561     1 1s    0.41172     1 2py  -0.67555     1 3d0  -0.25945     1 3d1-  0.57881     2 1s    0.41279
                                    2 2py   0.67426     2 3d0  -0.26019     2 3d1-  0.57936     4 1s   -0.52682     5 1s   -0.52604
   31.1     0.00000     2.24672     1 3d0  -0.30961     1 3d1+  0.55070     1 3d2+  0.35512     2 3d0  -0.30922     2 3d1+  0.55085
                                    2 3d2+  0.35515
   32.1     0.00000     2.35266     1 2py  -0.56363     1 3d0   0.39342     1 3d2+  0.44156     1 3d1-  0.40654     2 2py   0.56336
                                    2 3d0   0.39512     2 3d2+  0.44200     2 3d1-  0.40830     3 1s    0.59484     6 1s    0.59606
   33.1     0.00000     2.41252     1 1s    0.35461     1 1s   -1.00503     1 2px  -0.42289     1 2py  -0.30662     1 2pz   0.25581
                                    1 3d0   0.44595     1 3d2-  0.39087     1 3d2+  0.27971     1 3d1-  0.33024     2 1s   -0.35465
                                    2 1s    1.00514     2 2px  -0.42265     2 2py  -0.30467     2 2pz   0.25580     2 3d0  -0.44483
                                    2 3d2- -0.38884     2 3d2+ -0.27818     2 3d1- -0.33039     3 1s    0.58473     6 1s   -0.58283
   34.1     0.00000     2.63374     1 1s   -1.11809     1 2px  -0.36239     1 2py   0.29020     1 3d0   0.52028     1 3d2- -0.49574
                                    1 3d1+  0.32829     2 1s    1.11829     2 2px  -0.36226     2 2py   0.29127     2 3d0  -0.52008
                                    2 3d2-  0.49562     2 3d1+ -0.32752     4 1s    0.73046     5 1s   -0.73027
   35.1     0.00000     2.75358     1 1s    0.39504     1 2px  -0.29184     1 2py  -0.53509     1 3d0  -0.39149     1 3d2-  0.75472
                                    2 1s    0.41108     2 2px   0.27757     2 2py   0.53206     2 3d0  -0.38915     2 3d2-  0.74421
                                    4 1s   -0.94973     5 1s   -0.93589
   36.1     0.00000     2.76191     1 1s    0.32190     1 1s   -0.67691     1 2px  -0.59269     1 3d2-  0.44564     1 3d1+  0.37153
                                    1 3d2+ -0.63616     2 1s   -0.32573     2 1s    0.66744     2 2px  -0.59949     2 3d2- -0.46337
                                    2 3d1+ -0.37276     2 3d2+  0.63855     4 1s   -0.57593     5 1s    0.59838


 HOMO      8.1    -0.301226 =      -8.1968eV
 LUMO      9.1     0.072236 =       1.9657eV
 LUMO-HOMO         0.373462 =      10.1624eV


 **********************************************************************************************************************************
 DATASETS  * FILE   NREC   LENGTH (MB)   RECORD NAMES
              1      19       31.09       500      610      700      900      950      970     1000      129      960     1100   
                                          VAR    BASINP    GEOM    SYMINP    ZMAT    AOBASIS   BASIS     P2S    ABASIS      S 
                                         1400     1410     1200     1210     1080     1600     1650     1300     1700   
                                           T        V       H0       H01     AOSYM     SMH    MOLCAS    ERIS     OPER   

              2       4        2.86       700     1000      520     2100   
                                         GEOM     BASIS   MCVARS     RHF  

 PROGRAMS   *        TOTAL    HF-SCF       INT
 CPU TIMES  *         0.40      0.11      0.19
 REAL TIME  *         0.73 SEC
 DISK USED  *        35.97 MB
 **********************************************************************************************************************************


 PROGRAM * MULTI (Direct Multiconfiguration SCF)       Authors: P.J. Knowles, H.-J. Werner (1984)


 Number of closed-shell orbitals:   7 (   7 )
 Number of active  orbitals:        2 (   2 )
 Number of external orbitals:      27 (  27 )

 State symmetry 1

 Number of electrons:     2    Spin symmetry=Singlet   Space symmetry=1
 Number of states:        3
 Number of CSFs:          3   (4 determinants, 4 intermediate states)

 Molecular orbitals read from record     2100.2  Type=RHF/CANONICAL (state 1.1)

 Wavefunction dump at record             2140.2

 Convergence thresholds  0.10E-01 (gradient)  0.10E-05 (energy)  0.10E-02 (step length)

 Weight factors for state symmetry  1:    0.33333   0.33333   0.33333

 Number of orbital rotations:      257   (    14 Core/Active    189 Core/Virtual   0 Active/Active     54 Active/Virtual)
 Total number of variables:        269

 Micro-Iterations solved by the two-step solver

 ITER. MIC  NCI  NEG     ENERGY(VAR)     ENERGY(PROJ)   ENERGY CHANGE     GRAD(0)  GRAD(ORB)   GRAD(CI)     STEP       TIME

   1   20   10    0     -77.63191059     -77.64082040   -0.00890981    0.08249958 0.00008972 0.00000000  0.25D+00      0.39
   2   15    7    0     -77.64185004     -77.64443428   -0.00258424    0.04351571 0.00008139 0.00000000  0.12D+00      0.60
   3    7    6    0     -77.64455369     -77.64458781   -0.00003412    0.00731864 0.00000114 0.00000000  0.84D-02      0.70
   4   11    6    0     -77.64458794     -77.64458794   -0.00000000    0.00004167 0.00000000 0.00000000  0.80D-04      0.84
   5    3    3    0     -77.64458794     -77.64458794    0.00000000    0.00000000 0.00000000 0.00000000  0.37D-08      0.89

 ** WVFN ****  CONVERGENCE REACHED, FINAL GRADIENT:  0.16D-12



 Results for state 1.1
 =====================

 !MCSCF STATE  1.1 Energy             -77.811039125664
 Nuclear energy                        29.78668480
 Kinetic energy                        77.90667562
 One electron energy                 -162.49522966
 Two electron energy                   54.89750573
 Virial ratio                           1.99877242

 !MCSCF STATE  1.1 Dipole moment       -0.10621049     0.02220709     0.00882429
 Dipole moment /Debye                  -0.26994246     0.05644111     0.02242763

 Results for state 2.1
 =====================

 !MCSCF STATE  2.1 Energy             -77.621254719657
 Nuclear energy                        29.78668480
 Kinetic energy                        78.12178550
 One electron energy                 -162.36726841
 Two electron energy                   54.95932889
 Virial ratio                           1.99359294

 !MCSCF STATE  2.1 Dipole moment        0.13699915     0.01292190     0.08054983
 Dipole moment /Debye                   0.34819431     0.03284205     0.20472383

 Results for state 3.1
 =====================

 !MCSCF STATE  3.1 Energy             -77.501469980972
 Nuclear energy                        29.78668480
 Kinetic energy                        78.34625752
 One electron energy                 -162.27032006
 Two electron energy                   54.98216528
 Virial ratio                           1.98921726

 !MCSCF STATE  3.1 Dipole moment        0.05224702     0.05044546     0.35268342
 Dipole moment /Debye                   0.13278998     0.12821116     0.89637314

 State-averaged charge density matrix saved on record  2140.2 (density set 1)

 !MCSCF expec         <1.1|DMX|1.1>    -0.106210490243 au =    -0.269942457792 Debye
 !MCSCF trans         <2.1|DMX|1.1>     1.074535411955 au =     2.731017712317 Debye
 !MCSCF expec         <2.1|DMX|2.1>     0.136999154048 au =     0.348194309946 Debye
 !MCSCF trans         <3.1|DMX|1.1>    -0.097949843694 au =    -0.248947363735 Debye
 !MCSCF trans         <3.1|DMX|2.1>     1.702808811467 au =     4.327824819049 Debye
 !MCSCF expec         <3.1|DMX|3.1>     0.052247019490 au =     0.132789979795 Debye

 !MCSCF expec         <1.1|DMY|1.1>     0.022207094534 au =     0.056441107325 Debye
 !MCSCF trans         <2.1|DMY|1.1>    -0.154009066670 au =    -0.391426363666 Debye
 !MCSCF expec         <2.1|DMY|2.1>     0.012921903170 au =     0.032842050659 Debye
 !MCSCF trans         <3.1|DMY|1.1>     0.001950918869 au =     0.004958416380 Debye
 !MCSCF trans         <3.1|DMY|2.1>    -0.242627263687 au =    -0.616656600842 Debye
 !MCSCF expec         <3.1|DMY|3.1>     0.050445456957 au =     0.128211164492 Debye

 !MCSCF expec         <1.1|DMZ|1.1>     0.008824288232 au =     0.022427634486 Debye
 !MCSCF trans         <2.1|DMZ|1.1>    -0.662204507164 au =    -1.683045731317 Debye
 !MCSCF expec         <2.1|DMZ|2.1>     0.080549827355 au =     0.204723830209 Debye
 !MCSCF trans         <3.1|DMZ|1.1>    -0.044385915348 au =    -0.112810354731 Debye
 !MCSCF trans         <3.1|DMZ|2.1>    -1.037000389646 au =    -2.635619450317 Debye
 !MCSCF expec         <3.1|DMZ|3.1>     0.352683424890 au =     0.896373139032 Debye


 NATURAL ORBITALS (state averaged)
 =================================

  Orbital  Occupation    Energy     Coefficients
    1.1     2.00000   -11.26184     1 1s    0.99621
    2.1     2.00000   -11.24944     2 1s    0.99623
    3.1     2.00000    -0.95784     1 1s    0.28761     2 1s    0.28022
    4.1     2.00000    -0.86035     1 1s    0.26827     2 1s   -0.26978     2 1s   -0.25302
    5.1     2.00000    -0.63844     1 2py   0.33905     2 2py   0.27641
    6.1     2.00000    -0.60435     1 2py  -0.26752     2 2py   0.33133
    7.1     2.00000    -0.40958     2 2px   0.36888
    8.1     1.00000    -0.19636     1 2px   0.32765     1 2pz   0.25753     1 2px   0.25605     1 2pz   0.30001     2 2pz   0.26028
    9.1     1.00000    -0.05706     1 2pz   0.44161     1 2pz   0.49347     2 1s    0.25509     2 2pz  -0.32967     2 2pz  -0.38856
   10.1    -0.00000     0.24937     1 1s   -1.33071     1 2px   0.46785     1 2py  -0.31688     2 1s   -1.44849     2 2px  -0.38133
                                    2 2py   0.26724     3 1s    1.14804     4 1s    0.78311     5 1s    0.84722     6 1s    1.12040
   11.1    -0.00000     0.26529     1 1s    1.48669     1 2px   0.64708     1 2pz  -0.29519     2 1s   -1.27603     2 2px   0.69627
                                    2 2pz  -0.51828     3 1s   -0.40302     4 1s   -0.58928     5 1s    0.48521     6 1s    0.28902
   12.1    -0.00000     0.30970     1 1s   -0.66216     1 2py  -0.81274     2 1s    0.82877     2 2px   0.28920     2 2py  -0.72223
                                    3 1s    1.51498     4 1s   -0.29745     6 1s   -1.48324
   13.1    -0.00000     0.35744     1 1s   -1.39181     1 2px   0.86251     1 2py   1.57754     2 1s   -0.33325     2 2py  -0.96121
                                    3 1s   -0.91076     4 1s    2.92207     5 1s    0.96502     6 1s   -0.84487
   14.1    -0.00000     0.36068     1 1s    0.46640     1 2px  -0.56509     2 1s   -1.40676     2 2px  -1.00776     2 2py  -1.29520
                                    3 1s   -0.27991     4 1s   -0.81931     5 1s    2.88195     6 1s   -0.64998
   15.1    -0.00000     0.67145     1 1s   -0.38663     1 2px  -0.35677     1 2py  -0.27387     1 2px   0.96753     1 2py   0.89913
                                    2 1s    0.38536     2 2px  -0.32989     2 2py  -0.25314     2 2px   0.93939     2 2py   0.84607
                                    4 1s    0.43249     4 1s    0.70886     5 1s   -0.41738     5 1s   -0.69848
   16.1    -0.00000     0.75208     1 1s    0.38425     1 1s   -1.03410     1 2px  -0.46462     1 2px   0.93669     2 1s    0.39969
                                    2 1s   -1.14846     2 2px   0.41977     2 2px  -0.81641     3 1s    0.36146     4 1s    0.26360
                                    4 1s    0.50741     5 1s    0.27507     5 1s    0.53664     6 1s    0.31508
   17.1    -0.00000     0.79051     1 1s   -0.39990     1 2px   0.48284     1 2py  -0.34669     1 2px  -0.68755     1 2py   0.75880
                                    2 2px   0.52765     2 2py  -0.32675     2 2px  -0.84056     2 2py   0.61905     3 1s   -0.38973
                                    6 1s    0.42986
   18.1    -0.00000     0.80127     1 2pz   0.86058     1 2pz  -0.85947     2 2pz   0.67580     2 2px   0.34710     2 2pz  -0.55479
   19.1    -0.00000     0.85193     1 1s   -0.28087     1 2pz   0.60827     1 2px  -0.30440     1 2pz  -0.77885     2 2pz  -0.86558
                                    2 2pz   1.01240
   20.1    -0.00000     0.93318     1 1s    0.32516     1 1s   -1.04417     1 2py  -0.59334     1 2px   0.33917     1 2py   1.94171
                                    2 1s    0.34368     2 1s   -1.06667     2 2px  -0.26230     2 2py   0.60661     2 2px  -0.31941
                                    2 2py  -1.98086     3 1s   -0.68083     4 1s    0.33525     4 1s    1.29511     5 1s    0.34174
                                    5 1s    1.30743     6 1s   -0.65855
   21.1    -0.00000     1.01230     1 1s   -0.57792     1 1s    0.35659     1 2px  -0.50988     1 2py  -0.31939     1 2px   0.61107
                                    1 2py   1.31864     1 2pz  -0.35950     2 1s   -0.54695     2 2px   0.51618     2 2py   0.31949
                                    2 2px  -0.58591     2 2py  -1.33805     2 2pz   0.31798     3 1s   -0.39983     3 1s   -0.48241
                                    4 1s    0.71426     5 1s    0.72461     6 1s   -0.37023     6 1s   -0.49358
   22.1    -0.00000     1.13847     1 2px  -0.32184     1 2py   0.41457     1 2px   0.84558     1 2py  -0.56421     2 2px  -0.33745
                                    2 2py   0.38646     2 2px   0.81618     2 2py  -0.58281     3 1s   -0.76954     3 1s    1.20022
                                    6 1s    0.70325     6 1s   -1.08015
   23.1    -0.00000     1.16803     1 1s   -1.00398     1 1s    1.92014     1 2px  -0.29242     2 1s   -0.93244     2 1s    1.70865
                                    2 2px   0.45240     3 1s    0.58486     3 1s   -0.94220     4 1s   -0.67849     5 1s   -0.72018
                                    6 1s    0.68588     6 1s   -1.01661
   24.1    -0.00000     1.21957     1 1s    1.31735     1 1s   -3.10749     1 2py   0.33469     1 2px  -0.93588     1 2py  -0.45227
                                    1 2pz   0.57938     2 1s   -1.41367     2 1s    3.25226     2 2py   0.35683     2 2px  -0.94103
                                    2 2py  -0.48760     2 2pz   0.55670     3 1s    0.79457     4 1s    0.25424     5 1s   -0.25205
                                    6 1s   -0.87825
   25.1    -0.00000     1.41367     1 1s   -1.11974     1 1s    2.19046     1 2px   0.43873     1 2py   0.65067     1 2px  -0.51095
                                    1 2py  -0.80267     1 3d2-  0.25781     2 1s    0.43596     2 1s   -1.07880     2 2py  -0.46409
                                    4 1s    0.90848     4 1s   -1.99299     5 1s    0.88404
   26.1    -0.00000     1.42312     2 1s   -1.02984     2 1s    1.85874     2 2px  -0.39718     2 2py  -0.65188     2 2px   0.45270
                                    2 2py   0.67171     4 1s    0.34901     4 1s   -0.28424     5 1s    0.95411     5 1s   -1.79479
   27.1    -0.00000     1.80409     1 3d0  -0.31009     1 3d1+  0.54284     1 3d2+  0.27251     2 3d0   0.31336     2 3d1+ -0.51632
                                    2 3d2+ -0.25463
   28.1    -0.00000     1.87314     1 1s    0.29944     1 3d0   0.32317     1 3d1+  0.41887     1 3d2+ -0.35794     2 1s    0.29245
                                    2 3d0   0.31044     2 3d1+  0.41673     2 3d2+ -0.35586
   29.1    -0.00000     1.91310     1 3d1-  0.62046     2 3d1- -0.61099
   30.1    -0.00000     2.09473     1 1s    0.42118     1 2py  -0.66872     1 3d0  -0.26461     1 3d1-  0.57166     2 1s    0.40234
                                    2 2py   0.67451     2 3d0  -0.25181     2 3d1-  0.58484     4 1s   -0.52394     5 1s   -0.53032
   31.1    -0.00000     2.23903     1 3d0  -0.29407     1 3d1+  0.53696     1 3d2+  0.36374     2 3d0  -0.32526     2 3d1+  0.56396
                                    2 3d2+  0.34349
   32.1    -0.00000     2.34964     1 1s   -0.26214     1 2py  -0.59878     1 3d0   0.44542     1 3d2-  0.26372     1 3d2+  0.46740
                                    1 3d1-  0.44733     2 2py   0.52535     2 3d0   0.33873     2 3d2+  0.40140     2 3d1-  0.36590
                                    3 1s    0.66112     6 1s    0.51698
   33.1    -0.00000     2.41061     1 1s    0.34967     1 1s   -0.97116     1 2px  -0.41981     1 3d0   0.39038     1 3d2-  0.37191
                                    1 3d1-  0.28039     2 1s   -0.35696     2 1s    1.01836     2 2px  -0.41405     2 2py  -0.37010
                                    2 2pz   0.26604     2 3d0  -0.48584     2 3d2- -0.40935     2 3d2+ -0.33985     2 3d1- -0.37705
                                    3 1s    0.50632     6 1s   -0.65105
   34.1    -0.00000     2.63042     1 1s   -1.15612     1 2px  -0.35733     1 2py   0.31030     1 3d0   0.54434     1 3d2- -0.53071
                                    1 3d1+  0.32920     2 1s    1.11386     2 2px  -0.39124     2 2py   0.25805     2 3d0  -0.49833
                                    2 3d2-  0.43976     2 3d1+ -0.33701     4 1s    0.78295     5 1s   -0.66302
   35.1    -0.00000     2.75104     1 1s    0.27210     1 2px  -0.49179     1 2py  -0.52165     1 3d0  -0.37794     1 3d2-  0.82784
                                    1 3d2+ -0.34122     2 1s    0.66664     2 2py   0.47328     2 3d0  -0.36006     2 3d2-  0.56742
                                    4 1s   -1.05253     5 1s   -0.71257
   36.1    -0.00000     2.75755     1 1s   -0.74098     1 2px  -0.44644     1 3d1+  0.33637     1 3d2+ -0.54226     2 1s   -0.35953
                                    2 1s    0.45781     2 2px  -0.64966     2 2py  -0.31111     2 3d2- -0.70711     2 3d1+ -0.33962
                                    2 3d2+  0.63420     5 1s    0.90691


 Natural orbital dump (state averaged) at molpro section  2140.2    (Orbital set 2)



 **********************************************************************************************************************************
 DATASETS  * FILE   NREC   LENGTH (MB)   RECORD NAMES
              1      20       31.82       500      610      700      900      950      970     1000      129      960     1100   
                                          VAR    BASINP    GEOM    SYMINP    ZMAT    AOBASIS   BASIS     P2S    ABASIS      S 
                                         1400     1410     1200     1210     1080     1600     1650     1300     1700     1380   
                                           T        V       H0       H01     AOSYM     SMH    MOLCAS    ERIS     OPER     JKOP   

              2       5        5.42       700     1000      520     2100     2140   
                                         GEOM     BASIS   MCVARS     RHF     MCSCF   

 PROGRAMS   *        TOTAL     MULTI    HF-SCF       INT
 CPU TIMES  *         1.35      0.94      0.11      0.19
 REAL TIME  *         1.77 SEC
 DISK USED  *        39.01 MB
 **********************************************************************************************************************************
 Molecular orbitals read from record     2140.2  Type=MCSCF/NATURAL (state averaged)
 Occupation numbers read from record     2140.2  Type=MCSCF/NATURAL (state averaged)
 Orbital energies read from record       2140.2  Type=MCSCF/NATURAL (state averaged)
 Redundancy group numbers read from rec  2140.2  Type=MCSCF/NATURAL (state averaged)

 MULTI/6-31G* energy=    -77.501469980972

           MULTI          HF-SCF
    -77.50146998    -77.80230310
 **********************************************************************************************************************************
 Molpro calculation terminated
