
 Primary working directories    : /scratch.local/johan406.molpro_temp/molpro.JvJryjGTnI
 Secondary working directories  : /scratch.local/johan406.molpro_temp/molpro.JvJryjGTnI
 Wavefunction directory         : /home/goodpast/johan406/wfu/
 Main file repository           : /scratch.local/johan406.molpro_temp/molpro.JvJryjGTnI/

 id        : roweumn

 Nodes     nprocs
 acn06        1

 Using customized tuning parameters: mindgm=1; mindgv=20; mindgc=4; mindgr=1; noblas=0; minvec=7
 default implementation of scratch files=df  


 Variables initialized (934), CPU time= 0.00 sec
                                                                                 !leave this line blank
 
 gprint, orbitals=30
 memory, 125., m
 symmetry, nosym
 nelect=16
 basis=6-31g*
 
 geometry={
 C -0.824 0.031 0.301
 C 0.832 -0.081 -0.361
 H -0.938 1.182 -0.059
 H -1.358 -0.633 0.297
 H 1.367 0.583 -0.358
 H 0.946 -1.232 -0.001
 }
 
 hf
 {multi,
 closed 7
 occ 9
 wf,spin=0;STATE,3
 }
 
 Commands  initialized (763), CPU time= 0.01 sec, 617 directives.
 Default parameters read. Elapsed time= 0.07 sec

 Checking input...
 Passed
1


                                         ***  PROGRAM SYSTEM MOLPRO  ***
                                       Copyright, TTI GmbH Stuttgart, 2015
                                    Version 2019.2 linked Oct 25 2019 22:50:27


 **********************************************************************************************************************************
 LABEL *                                                                                 
  64 bit serial version                                                                  DATE: 15-Mar-23          TIME: 16:24:59  
 **********************************************************************************************************************************

 SHA1:             8dbd9ae1082e4ce945b0f27595c9eb2d4aa09004
 **********************************************************************************************************************************


 Variable memory set to  125000000 words,  buffer space 

 SETTING NELECT         =        16.00000000                                  
 SETTING BASIS          =    6-31G*
 ZSYMEL=NOSYM


Geometry recognized as XYZ



 Recomputing integrals since basis changed


 Using spherical harmonics

 Library entry C      S 6-31G                selected for orbital group  1
 Library entry C      P 6-31G                selected for orbital group  1
 Library entry C      D 6-31G*               selected for orbital group  1
 Library entry H      S 6-31G                selected for orbital group  2


 PROGRAM * SEWARD (Integral evaluation for generally contracted gaussian basis sets)     Author: Roland Lindh, 1990

 Geometry written to block  1 of record 700


 Point group  C1  



 ATOMIC COORDINATES

 NR  ATOM    CHARGE       X              Y              Z

   1  C       6.00   -1.557134327    0.058581510    0.568807563
   2  C       6.00    1.572252136   -0.153067816   -0.682191131
   3  H       1.00   -1.772563105    2.233656279   -0.111493841
   4  H       1.00   -2.566248077   -1.196196637    0.561248659
   5  H       1.00    2.583255612    1.101710331   -0.676521953
   6  H       1.00    1.787680914   -2.328142585   -0.001889726

 Bond lengths in Bohr (Angstrom)

 1-2  3.376811040  1-3  2.289141720  1-4  1.610228523  2-5  1.611405711  2-6  2.289141720
     ( 1.786931448)     ( 1.211361631)     ( 0.852096239)     ( 0.852719180)     ( 1.211361631)

 Bond angles

  1-2-5  122.09498576   1-2-6   92.10149091   2-1-3   92.10149091   2-1-4  122.01832828

  3-1-4  132.84775034   5-2-6  132.82754050

 NUCLEAR CHARGE:                   16
 NUMBER OF PRIMITIVE AOS:          72
 NUMBER OF SYMMETRY AOS:           70
 NUMBER OF CONTRACTIONS:           36   (   36A   )
 NUMBER OF CORE ORBITALS:           2   (    2A   )
 NUMBER OF VALENCE ORBITALS:       12   (   12A   )


 NUCLEAR REPULSION ENERGY   30.28905222

 Eigenvalues of metric

         1 0.150E-01 0.182E-01 0.324E-01 0.657E-01 0.912E-01 0.164E+00 0.179E+00 0.288E+00


 Contracted 2-electron integrals neglected if value below      1.0D-11
 AO integral compression algorithm  1   Integral accuracy      1.0D-11

     1.311 MB (compressed) written to integral file ( 66.6%)


 NUMBER OF SORTED TWO-ELECTRON INTEGRALS:     222111.     BUFFER LENGTH:  32768
 NUMBER OF SEGMENTS:   1  SEGMENT LENGTH:     222111      RECORD LENGTH: 524288

 Memory used in sort:       0.78 MW

 SORT1 READ      284735. AND WROTE      212382. INTEGRALS IN      1 RECORDS. CPU TIME:     0.00 SEC, REAL TIME:     0.01 SEC
 SORT2 READ      212382. AND WROTE      222111. INTEGRALS IN      5 RECORDS. CPU TIME:     0.02 SEC, REAL TIME:     0.02 SEC

 FILE SIZES:   FILE 1:    31.4 MBYTE,  FILE 4:     4.2 MBYTE,   TOTAL:     35.6 MBYTE

 OPERATOR DM      FOR CENTER  0  COORDINATES:    0.000000    0.000000    0.000000


 **********************************************************************************************************************************
 DATASETS  * FILE   NREC   LENGTH (MB)   RECORD NAMES
              1      19       31.10       500      610      700      900      950      970     1000      129      960     1100   
                                          VAR    BASINP    GEOM    SYMINP    ZMAT    AOBASIS   BASIS     P2S    ABASIS      S 
                                         1400     1410     1200     1210     1080     1600     1650     1300     1700   
                                           T        V       H0       H01     AOSYM     SMH    MOLCAS    ERIS     OPER   

 PROGRAMS   *        TOTAL       INT
 CPU TIMES  *         0.27      0.18
 REAL TIME  *         0.44 SEC
 DISK USED  *        35.97 MB
 **********************************************************************************************************************************


 PROGRAM * RHF-SCF (CLOSED SHELL)       Authors: W. Meyer, H.-J. Werner


 NUMBER OF ELECTRONS:       8+    8-    SPACE SYMMETRY=1    SPIN SYMMETRY: Singlet 
 CONVERGENCE THRESHOLDS:    1.00E-05 (Density)    1.00E-07 (Energy)
 MAX. NUMBER OF ITERATIONS:       60
 INTERPOLATION TYPE:            DIIS
 INTERPOLATION STEPS:              2 (START)      1 (STEP)
 LEVEL SHIFTS:                  0.00 (CLOSED)  0.00 (OPEN) 



 Orbital guess generated from atomic densities. Full valence occupancy:    8

 Molecular orbital dump at record        2100.2

 Initial occupancy:   8

 ITERATION    DDIFF          GRAD             ENERGY        2-EL.EN.            DIPOLE MOMENTS         DIIS   ORB.
    1      0.000D+00      0.000D+00       -77.69253897    111.053740    0.00274    0.00025   -0.00167    0    start
    2      0.000D+00      0.728D-02       -77.71478845    110.374209   -0.00106   -0.00021    0.00061    1    diag
    3      0.826D-02      0.233D-02       -77.71792642    110.643490    0.00344    0.00025   -0.00243    2    diag
    4      0.336D-02      0.846D-03       -77.71867182    110.548902   -0.00191   -0.00029    0.00112    3    diag
    5      0.165D-02      0.492D-03       -77.71919431    110.562203    0.00756    0.00069   -0.00522    4    diag
    6      0.169D-02      0.279D-03       -77.71936107    110.564988   -0.00817   -0.00100    0.00536    5    diag
    7      0.985D-03      0.187D-03       -77.71941603    110.565936    0.00182    0.00006   -0.00136    6    diag
    8      0.709D-03      0.434D-04       -77.71941921    110.567111    0.00079   -0.00005   -0.00067    7    diag
    9      0.152D-03      0.118D-04       -77.71941944    110.567445    0.00084   -0.00004   -0.00070    8    diag
   10      0.391D-04      0.271D-05       -77.71941944    110.567442    0.00084   -0.00004   -0.00070    9    orth
   11      0.702D-05      0.671D-06       -77.71941945    110.567436    0.00084   -0.00004   -0.00070    0    orth

 Final occupancy:   8

 !RHF STATE  1.1 Energy               -77.719419445154
 Nuclear energy                        30.28905222
 One-electron energy                 -163.29218946
 Two-electron energy                   55.28371780
 Virial quotient                       -0.99692016
 !RHF STATE  1.1 Dipole moment          0.00083718    -0.00004356    -0.00069814
 Dipole moment /Debye                   0.00212775    -0.00011071    -0.00177437

 ELECTRON ORBITALS
 =================

  Orbital  Occupation    Energy     Coefficients
    1.1     2.00000   -11.27257     1 1s   -0.57819     2 1s   -0.81125
    2.1     2.00000   -11.27223     1 1s   -0.81133     2 1s    0.57830
    3.1     2.00000    -0.97645     1 1s    0.28337     2 1s    0.28299
    4.1     2.00000    -0.88087     1 1s   -0.26230     2 1s    0.26273
    5.1     2.00000    -0.62083     1 2py  -0.27138
    6.1     2.00000    -0.62027     1 2py   0.28593     2 2py   0.30499
    7.1     2.00000    -0.41056     1 2px   0.31664     2 2px  -0.31670
    8.1     2.00000    -0.30859     1 2pz   0.31446     1 2pz   0.33042     2 2pz   0.31418     2 2pz   0.33022
    9.1     0.00000     0.07309     1 2pz  -0.35721     1 2pz  -0.49569     2 2pz   0.35732     2 2pz   0.49597
   10.1     0.00000     0.22858     1 1s   -1.18199     1 2px   0.32502     1 2py  -0.34814     2 1s   -1.18281     2 2px  -0.32507
                                    2 2py   0.34852     3 1s    1.03393     4 1s    0.64029     5 1s    0.64065     6 1s    1.03479
   11.1     0.00000     0.28007     1 1s    0.96381     1 2px   0.25880     1 2px   0.68012     1 2py  -0.53643     1 2pz  -0.27162
                                    2 1s   -0.96392     2 2px   0.25848     2 2px   0.67936     2 2py  -0.53783     2 2pz  -0.27121
                                    3 1s    0.44586     4 1s   -0.65042     5 1s    0.65130     6 1s   -0.44705
   12.1     0.00000     0.29638     1 1s   -1.37648     1 2py  -0.50250     1 2pz   0.35546     2 1s    1.37690     2 2py  -0.50066
                                    2 2pz   0.35497     3 1s    1.32401     6 1s   -1.32221
   13.1     0.00000     0.35530     1 1s   -1.47628     1 2px   0.62581     1 2py   1.36958     2 1s   -1.48070     2 2px  -0.63909
                                    2 2py  -1.37627     3 1s   -0.73410     4 1s    2.53017     5 1s    2.55020     6 1s   -0.73839
   14.1     0.00000     0.36457     1 1s    1.08342     1 2px  -1.06451     1 2py  -0.74871     2 1s   -1.06589     2 2px  -1.05799
                                    2 2py  -0.73324     3 1s    0.27913     4 1s   -2.30682     5 1s    2.27813     6 1s   -0.27126
   15.1     0.00000     0.66021     1 1s   -0.54785     1 2px  -0.39622     1 2px   1.18245     1 2py   0.88447     2 1s    0.54574
                                    2 2px  -0.39596     2 2px   1.18168     2 2py   0.88156     3 1s   -0.31587     4 1s    0.41560
                                    4 1s    0.96806     5 1s   -0.41585     5 1s   -0.96417     6 1s    0.31485
   16.1     0.00000     0.75198     1 1s   -0.35631     1 1s    1.13132     1 2px   0.45008     1 2px  -0.92602     2 1s   -0.35632
                                    2 1s    1.12931     2 2px  -0.45026     2 2px   0.92762     3 1s   -0.34207     3 1s    0.29086
                                    4 1s   -0.73591     5 1s   -0.73502     6 1s   -0.34243     6 1s    0.29051
   17.1     0.00000     0.80278     1 2pz   0.77850     1 2pz  -0.71011     2 2pz   0.77882     2 2pz  -0.71063
   18.1     0.00000     0.85205     1 1s   -0.29450     1 2pz   0.75270     1 2pz  -0.89685     2 1s   -0.31073     2 2pz  -0.75336
                                    2 2pz   0.89727
   19.1     0.00000     0.85377     1 1s    0.26266     1 1s   -0.68554     1 2px   0.50636     1 2py  -0.41605     1 2px  -0.59677
                                    1 2py   0.90101     2 1s   -0.25885     2 1s    0.67913     2 2px   0.50135     2 2py  -0.41508
                                    2 2px  -0.59182     2 2py   0.89587     3 1s   -0.34119     3 1s   -0.29748     4 1s    0.36821
                                    5 1s   -0.36355     6 1s    0.34117     6 1s    0.29516
   20.1     0.00000     0.90505     1 1s   -0.26623     1 1s    1.37251     1 2py   0.59899     1 2px  -0.58419     1 2py  -2.01178
                                    2 1s   -0.26682     2 1s    1.36955     2 2py  -0.59907     2 2px   0.58564     2 2py   2.00988
                                    3 1s    0.63264     4 1s   -0.33744     4 1s   -1.59530     5 1s   -0.33746     5 1s   -1.59268
                                    6 1s    0.63232
   21.1     0.00000     1.03395     1 1s    0.65912     1 2px   0.51840     1 2py   0.29689     1 2px  -0.68317     1 2py  -1.14543
                                    1 2pz   0.32513     2 1s    0.65970     2 2px  -0.51845     2 2py  -0.29776     2 2px   0.68518
                                    2 2py   1.14763     2 2pz  -0.32650     3 1s    0.35675     3 1s    0.39242     4 1s   -0.72612
                                    5 1s   -0.72844     6 1s    0.35627     6 1s    0.39442
   22.1     0.00000     1.09135     1 1s   -0.38458     1 1s    0.70022     1 2py  -0.42215     1 2px  -0.54756     1 2py   0.57360
                                    2 1s    0.38463     2 1s   -0.70156     2 2py  -0.42189     2 2px  -0.54876     2 2py   0.57193
                                    3 1s    0.73467     3 1s   -1.26911     4 1s   -0.25887     5 1s    0.26056     6 1s   -0.73542
                                    6 1s    1.26924
   23.1     0.00000     1.12455     1 1s   -0.92257     1 1s    2.02927     1 2px  -0.50575     1 2py  -0.46488     2 1s   -0.92432
                                    2 1s    2.03152     2 2px   0.50431     2 2py   0.46353     3 1s    0.65538     3 1s   -0.89893
                                    4 1s   -1.01881     5 1s   -1.01723     6 1s    0.65437     6 1s   -0.89899
   24.1     0.00000     1.23108     1 1s   -1.28495     1 1s    3.05751     1 2py  -0.29965     1 2px   1.29941     1 2py   0.51426
                                    1 2pz  -0.66708     2 1s    1.28186     2 1s   -3.05026     2 2py  -0.30005     2 2px   1.30141
                                    2 2py   0.51728     2 2pz  -0.66685     3 1s   -0.29936     3 1s   -0.49032     6 1s    0.29995
                                    6 1s    0.48954
   25.1     0.00000     1.48837     1 1s    0.86311     1 1s   -1.87286     1 2px  -0.37508     1 2py  -0.47607     1 2px   0.46171
                                    1 2py   0.70653     2 1s   -0.90045     2 1s    1.93196     2 2px  -0.38986     2 2py  -0.49827
                                    2 2px   0.47833     2 2py   0.72572     4 1s   -0.62175     4 1s    1.68323     5 1s    0.65859
                                    5 1s   -1.74313
   26.1     0.00000     1.50988     1 1s   -0.77973     1 1s    1.27877     1 2px   0.30955     1 2py   0.47211     1 2px  -0.35198
                                    1 2py  -0.43925     2 1s   -0.73730     2 1s    1.18723     2 2px  -0.29079     2 2py  -0.44743
                                    2 2px   0.32717     2 2py   0.40273     4 1s    0.76022     4 1s   -1.29774     5 1s    0.72860
                                    5 1s   -1.21204
   27.1     0.00000     1.77788     1 3d0  -0.35784     1 3d1+  0.49640     2 3d0   0.35831     2 3d1+ -0.49647
   28.1     0.00000     1.88093     1 1s   -0.30186     1 3d0  -0.25139     1 3d1+ -0.40713     1 3d2+  0.40236     2 1s   -0.30163
                                    2 3d0  -0.25137     2 3d1+ -0.40787     2 3d2+  0.40127
   29.1     0.00000     1.92179     1 3d2+  0.27213     1 3d1- -0.57876     2 3d2+ -0.27426     2 3d1-  0.58020
   30.1     0.00000     2.09303     1 1s    0.58703     1 2px  -0.25838     1 2py  -0.53258     1 3d0  -0.35384     1 3d2+ -0.32310
                                    1 3d1-  0.44054     2 1s    0.58485     2 2px   0.25986     2 2py   0.53293     2 3d0  -0.35426
                                    2 3d2+ -0.32319     2 3d1-  0.44034     4 1s   -0.54406     5 1s   -0.54375
   31.1     0.00000     2.24645     1 2py  -0.53870     1 3d0   0.41175     1 3d1+ -0.26116     1 3d1-  0.44581     2 2py   0.53859
                                    2 3d0   0.41165     2 3d1+ -0.26116     2 3d1-  0.44545     3 1s    0.41120     4 1s   -0.34730
                                    5 1s   -0.34688     6 1s    0.41119
   32.1     0.00000     2.28888     1 2py  -0.48125     1 3d1+  0.46351     1 3d2+  0.43123     1 3d1-  0.31121     2 2py   0.48132
                                    2 3d1+  0.46326     2 3d2+  0.43097     2 3d1-  0.31084     3 1s    0.34803     4 1s   -0.25836
                                    5 1s   -0.25840     6 1s    0.34777
   33.1     0.00000     2.33433     1 1s   -0.34263     1 1s    0.83822     1 2px   0.48841     1 2py   0.37297     1 2pz  -0.26556
                                    1 3d0  -0.37739     1 3d2- -0.33290     1 3d2+ -0.32302     1 3d1- -0.38998     2 1s    0.34255
                                    2 1s   -0.83821     2 2px   0.48858     2 2py   0.37316     2 2pz  -0.26588     2 3d0   0.37738
                                    2 3d2-  0.33317     2 3d2+  0.32351     2 3d1-  0.38985     3 1s   -0.53568     6 1s    0.53591
   34.1     0.00000     2.70445     1 1s   -1.35678     1 2px  -0.62324     1 2pz   0.28954     1 3d0   0.48995     1 3d2- -0.29754
                                    1 3d1+  0.46224     1 3d2+ -0.43342     2 1s    1.35561     2 2px  -0.62367     2 2pz   0.28938
                                    2 3d0  -0.48977     2 3d2-  0.29790     2 3d1+ -0.46269     2 3d2+  0.43406     4 1s    0.56050
                                    5 1s   -0.56028
   35.1     0.00000     2.78157     1 1s   -0.36095     1 1s    0.38992     1 2px   0.29179     1 2px   0.52569     1 2py   0.26901
                                    1 3d0   0.25108     1 3d2- -0.63465     1 3d1+ -0.25007     1 3d2+  0.48586     2 1s    0.36347
                                    2 1s   -0.38325     2 2px   0.29439     2 2px   0.53022     2 2py   0.27411     2 3d0  -0.25729
                                    2 3d2-  0.64710     2 3d2+ -0.48662     4 1s    0.91828     5 1s   -0.93255
   36.1     0.00000     2.88002     1 1s    0.26305     1 1s    0.45321     1 2py  -0.28203     1 2px  -0.31515     1 2py  -0.43394
                                    1 3d0  -0.42396     1 3d2-  0.78332     2 1s    0.25691     2 1s    0.45638     2 2py   0.27693
                                    2 2px   0.30908     2 2py   0.42963     2 3d0  -0.41940     2 3d2-  0.77319     4 1s   -1.08266
                                    5 1s   -1.06634


 HOMO      8.1    -0.308590 =      -8.3972eV
 LUMO      9.1     0.073092 =       1.9889eV
 LUMO-HOMO         0.381682 =      10.3861eV


 **********************************************************************************************************************************
 DATASETS  * FILE   NREC   LENGTH (MB)   RECORD NAMES
              1      19       31.10       500      610      700      900      950      970     1000      129      960     1100   
                                          VAR    BASINP    GEOM    SYMINP    ZMAT    AOBASIS   BASIS     P2S    ABASIS      S 
                                         1400     1410     1200     1210     1080     1600     1650     1300     1700   
                                           T        V       H0       H01     AOSYM     SMH    MOLCAS    ERIS     OPER   

              2       4        2.86       700     1000      520     2100   
                                         GEOM     BASIS   MCVARS     RHF  

 PROGRAMS   *        TOTAL    HF-SCF       INT
 CPU TIMES  *         0.37      0.10      0.18
 REAL TIME  *         0.60 SEC
 DISK USED  *        35.97 MB
 **********************************************************************************************************************************


 PROGRAM * MULTI (Direct Multiconfiguration SCF)       Authors: P.J. Knowles, H.-J. Werner (1984)


 Number of closed-shell orbitals:   7 (   7 )
 Number of active  orbitals:        2 (   2 )
 Number of external orbitals:      27 (  27 )

 State symmetry 1

 Number of electrons:     2    Spin symmetry=Singlet   Space symmetry=1
 Number of states:        3
 Number of CSFs:          3   (4 determinants, 4 intermediate states)

 Molecular orbitals read from record     2100.2  Type=RHF/CANONICAL (state 1.1)

 Wavefunction dump at record             2140.2

 Convergence thresholds  0.10E-01 (gradient)  0.10E-05 (energy)  0.10E-02 (step length)

 Weight factors for state symmetry  1:    0.33333   0.33333   0.33333

 Number of orbital rotations:      257   (    14 Core/Active    189 Core/Virtual   0 Active/Active     54 Active/Virtual)
 Total number of variables:        269

 Micro-Iterations solved by the two-step solver

 ITER. MIC  NCI  NEG     ENERGY(VAR)     ENERGY(PROJ)   ENERGY CHANGE     GRAD(0)  GRAD(ORB)   GRAD(CI)     STEP       TIME

   1   16    8    1     -77.54193212     -77.55429034   -0.01235822    0.08427579 0.00074284 0.00000000  0.29D+00      0.66
   2   13    6    0     -77.56101253     -77.56673342   -0.00572090    0.07086690 0.00060911 0.00000000  0.13D+00      0.82
   3   13    6    0     -77.56717004     -77.56772268   -0.00055264    0.01248994 0.00000436 0.00000000  0.86D-01      0.97
   4   17    7    0     -77.56777384     -77.56788912   -0.00011529    0.00482786 0.00000245 0.00000000  0.57D-01      1.13
   5   16    6    0     -77.56789903     -77.56792627   -0.00002724    0.00219278 0.00000140 0.00000000  0.39D-01      1.29
   6   18    6    0     -77.56792839     -77.56793474   -0.00000634    0.00103614 0.00000085 0.00000000  0.26D-01      1.46
   7   18    6    0     -77.56793517     -77.56793641   -0.00000123    0.00046974 0.00000078 0.00000000  0.16D-01      1.64
   8   14    7    0     -77.56793647     -77.56793660   -0.00000012    0.00017379 0.00000085 0.00000000  0.63D-02      1.76
   9   12    6    0     -77.56793660     -77.56793660   -0.00000000    0.00002397 0.00000000 0.00000000  0.41D-03      1.86
  10    3    3    0     -77.56793660     -77.56793660    0.00000000    0.00000006 0.00000000 0.00000000  0.38D-06      1.91

 ** WVFN ****  CONVERGENCE REACHED, FINAL GRADIENT:  0.15D-10



 Results for state 1.1
 =====================

 !MCSCF STATE  1.1 Energy             -77.712350862220
 Nuclear energy                        30.28905222
 Kinetic energy                        78.02827677
 One electron energy                 -163.40704744
 Two electron energy                   55.40564436
 Virial ratio                           1.99595114

 !MCSCF STATE  1.1 Dipole moment       -0.00283869     0.00258004    -0.01486588
 Dipole moment /Debye                  -0.00721475     0.00655738    -0.03778281

 Results for state 2.1
 =====================

 !MCSCF STATE  2.1 Energy             -77.589234380263
 Nuclear energy                        30.28905222
 Kinetic energy                        78.20660398
 One electron energy                 -163.11255389
 Two electron energy                   55.23426729
 Virial ratio                           1.99210591

 !MCSCF STATE  2.1 Dipole moment       -0.00491320     0.01097612     0.02580103
 Dipole moment /Debye                  -0.01248730     0.02789668     0.06557539

 Results for state 3.1
 =====================

 !MCSCF STATE  3.1 Energy             -77.402224552822
 Nuclear energy                        30.28905222
 Kinetic energy                        78.38639684
 One electron energy                 -162.81334965
 Two electron energy                   55.12207287
 Virial ratio                           1.98744460

 !MCSCF STATE  3.1 Dipole moment        0.00197482     0.01790279     0.06059490
 Dipole moment /Debye                   0.00501917     0.04550138     0.15400677

 State-averaged charge density matrix saved on record  2140.2 (density set 1)

 !MCSCF expec         <1.1|DMX|1.1>    -0.002838686922 au =    -0.007214749907 Debye
 !MCSCF trans         <2.1|DMX|1.1>    -0.183703539921 au =    -0.466897242992 Debye
 !MCSCF expec         <2.1|DMX|2.1>    -0.004913204614 au =    -0.012487302584 Debye
 !MCSCF trans         <3.1|DMX|1.1>     0.001295983787 au =     0.003293846472 Debye
 !MCSCF trans         <3.1|DMX|2.1>    -0.199838676141 au =    -0.507905982506 Debye
 !MCSCF expec         <3.1|DMX|3.1>     0.001974824239 au =     0.005019173791 Debye

 !MCSCF expec         <1.1|DMY|1.1>     0.002580039596 au =     0.006557377038 Debye
 !MCSCF trans         <2.1|DMY|1.1>     0.030085278458 au =     0.076464142024 Debye
 !MCSCF expec         <2.1|DMY|2.1>     0.010976117798 au =     0.027896681473 Debye
 !MCSCF trans         <3.1|DMY|1.1>    -0.000892238487 au =    -0.002267695495 Debye
 !MCSCF trans         <3.1|DMY|2.1>     0.032793479517 au =     0.083347251671 Debye
 !MCSCF expec         <3.1|DMY|3.1>     0.017902794461 au =     0.045501384347 Debye

 !MCSCF expec         <1.1|DMZ|1.1>    -0.014865875087 au =    -0.037782810804 Debye
 !MCSCF trans         <2.1|DMZ|1.1>     0.120218793610 au =     0.305545681464 Debye
 !MCSCF expec         <2.1|DMZ|2.1>     0.025801031904 au =     0.065575386667 Debye
 !MCSCF trans         <3.1|DMZ|1.1>    -0.004166013437 au =    -0.010588256430 Debye
 !MCSCF trans         <3.1|DMZ|2.1>     0.131098656738 au =     0.333197723993 Debye
 !MCSCF expec         <3.1|DMZ|3.1>     0.060594895398 au =     0.154006774244 Debye


 NATURAL ORBITALS (state averaged)
 =================================

  Orbital  Occupation    Energy     Coefficients
    1.1     2.00000   -11.26129     1 1s   -0.99586
    2.1     2.00000   -11.25782     2 1s   -0.99586
    3.1     2.00000    -0.97518     1 1s    0.28309     2 1s    0.27974
    4.1     2.00000    -0.87307     1 1s   -0.26174     2 1s    0.26379
    5.1     2.00000    -0.62621     1 2py   0.37815
    6.1     2.00000    -0.62332     2 2py   0.37542
    7.1     2.00000    -0.34838     1 2pz  -0.34356     1 2pz  -0.32317     2 2pz  -0.33947     2 2pz  -0.32581
    8.1     1.00000    -0.08853     1 2pz  -0.43637     1 2pz  -0.42543     2 2pz   0.42254     2 2pz   0.41823
    9.1     1.00000    -0.24075     1 2px   0.35273     2 2px  -0.32137
   10.1    -0.00000     0.22011     1 1s   -1.15546     1 2px   0.31570     1 2py  -0.40114     2 1s   -1.15000     2 2px  -0.31307
                                    2 2py   0.39014     3 1s    1.06466     4 1s    0.56412     5 1s    0.57000     6 1s    1.04535
   11.1    -0.00000     0.27967     1 1s   -1.55268     1 2px  -0.44514     1 2py  -0.33353     1 2pz   0.39792     2 1s    1.56955
                                    2 2px  -0.43924     2 2py  -0.32583     2 2pz   0.41520     3 1s    1.12025     4 1s    0.33163
                                    5 1s   -0.35185     6 1s   -1.12635
   12.1    -0.00000     0.29109     1 1s    0.58107     1 2px   0.51468     1 2py  -0.74101     2 1s   -0.54071     2 2px   0.52386
                                    2 2py  -0.73572     3 1s    0.86014     4 1s   -0.73878     5 1s    0.70030     6 1s   -0.86202
   13.1    -0.00000     0.35661     1 1s   -1.55924     1 2px   0.67725     1 2py   1.37596     2 1s   -1.49441     2 2px  -0.61546
                                    2 2py  -1.34887     3 1s   -0.69848     4 1s    2.62194     5 1s    2.50822     6 1s   -0.70705
   14.1    -0.00000     0.36823     1 1s    1.06911     1 2px  -1.09754     1 2py  -0.64598     2 1s   -1.14760     2 2px  -1.12763
                                    2 2py  -0.70996     4 1s   -2.20852     5 1s    2.33472
   15.1    -0.00000     0.65965     1 1s   -0.51022     1 2px  -0.40004     1 2px   1.15140     1 2py   0.89740     2 1s    0.50307
                                    2 2px  -0.39132     2 2px   1.13904     2 2py   0.88132     3 1s   -0.34952     4 1s    0.42044
                                    4 1s    0.92490     5 1s   -0.41641     5 1s   -0.91340     6 1s    0.33848
   16.1    -0.00000     0.75040     1 1s   -0.33885     1 1s    1.06474     1 2px   0.43917     1 2px  -0.90954     2 1s   -0.34159
                                    2 1s    1.09475     2 2px  -0.43646     2 2px   0.90065     3 1s   -0.37530     3 1s    0.33541
                                    4 1s   -0.70109     5 1s   -0.71444     6 1s   -0.37012     6 1s    0.33688
   17.1    -0.00000     0.79299     1 2pz   0.78787     1 2px   0.26424     1 2pz  -0.77998     2 2pz   0.74595     2 2px   0.33468
                                    2 2pz  -0.70550
   18.1    -0.00000     0.84339     1 2pz   0.69097     1 2pz  -0.91861     2 2pz  -0.75694     2 2pz   0.98109
   19.1    -0.00000     0.85501     1 1s    0.29401     1 1s   -0.75044     1 2px   0.51107     1 2py  -0.40879     1 2px  -0.52292
                                    1 2py   0.90476     2 1s   -0.25434     2 1s    0.65026     2 2px   0.48769     2 2py  -0.38638
                                    2 2px  -0.53376     2 2py   0.81241     3 1s   -0.37683     4 1s    0.43701     5 1s   -0.35371
                                    6 1s    0.38658
   20.1    -0.00000     0.90652     1 1s   -0.26510     1 1s    1.30510     1 2py   0.59526     1 2px  -0.52149     1 2py  -1.94248
                                    2 1s   -0.28152     2 1s    1.34105     2 2py  -0.60849     2 2px   0.50739     2 2py   1.97173
                                    3 1s    0.63547     4 1s   -0.32501     4 1s   -1.52696     5 1s   -0.33081     5 1s   -1.54333
                                    6 1s    0.63062
   21.1    -0.00000     1.02629     1 1s    0.66451     1 2px   0.51749     1 2py   0.31153     1 2px  -0.71533     1 2py  -1.21014
                                    1 2pz   0.32090     2 1s    0.65636     2 2px  -0.51587     2 2py  -0.31399     2 2px   0.70355
                                    2 2py   1.21725     2 2pz  -0.30962     3 1s    0.34650     3 1s    0.42919     4 1s   -0.77077
                                    5 1s   -0.77279     6 1s    0.33319     6 1s    0.44107
   22.1    -0.00000     1.07407     1 1s   -0.37066     1 1s    0.66184     1 2py  -0.44658     1 2px  -0.62548     1 2py   0.58494
                                    2 1s    0.32044     2 1s   -0.55516     2 2py  -0.44088     2 2px  -0.60405     2 2py   0.61072
                                    3 1s    0.73454     3 1s   -1.28652     4 1s   -0.27612     6 1s   -0.71136     6 1s    1.24744
   23.1    -0.00000     1.11247     1 1s   -0.91994     1 1s    2.07240     1 2px  -0.53393     1 2py  -0.54382     2 1s   -0.93702
                                    2 1s    2.09850     2 2px   0.56114     2 2py   0.52277     3 1s    0.62847     3 1s   -0.83988
                                    4 1s   -1.06921     5 1s   -1.08413     6 1s    0.66454     6 1s   -0.89464
   24.1    -0.00000     1.22575     1 1s   -1.27904     1 1s    3.04675     1 2py  -0.30526     1 2px   1.28682     1 2py   0.51763
                                    1 2pz  -0.65865     2 1s    1.28643     2 1s   -3.04692     2 2py  -0.30982     2 2px   1.29779
                                    2 2py   0.53471     2 2pz  -0.65459     3 1s   -0.28527     3 1s   -0.50431     6 1s    0.28709
                                    6 1s    0.51130
   25.1    -0.00000     1.49041     1 1s    0.91376     1 1s   -1.96325     1 2px  -0.39273     1 2py  -0.48854     1 2px   0.48452
                                    1 2py   0.72670     1 3d2- -0.25149     2 1s   -0.86522     2 1s    1.88162     2 2px  -0.37430
                                    2 2py  -0.46282     2 2px   0.46222     2 2py   0.70118     4 1s   -0.65113     4 1s    1.75631
                                    5 1s    0.60744     5 1s   -1.67703
   26.1    -0.00000     1.51163     1 1s   -0.74002     1 1s    1.18932     1 2px   0.28833     1 2py   0.43718     1 2px  -0.33138
                                    1 2py  -0.39737     2 1s   -0.79474     2 1s    1.30630     2 2px  -0.31044     2 2py  -0.46812
                                    2 2px   0.35409     2 2py   0.43990     4 1s    0.72048     4 1s   -1.20720     5 1s    0.75967
                                    5 1s   -1.30714
   27.1    -0.00000     1.77216     1 3d0  -0.35877     1 3d1+  0.49695     2 3d0   0.35865     2 3d1+ -0.49308
   28.1    -0.00000     1.87409     1 1s   -0.29557     1 3d1+ -0.40457     1 3d2+  0.41458     2 1s   -0.29427     2 3d1+ -0.40246
                                    2 3d2+  0.41336
   29.1    -0.00000     1.91891     1 3d2+  0.27747     1 3d1- -0.57728     2 3d2+ -0.27486     2 3d1-  0.57538
   30.1    -0.00000     2.08888     1 1s    0.59852     1 2px  -0.25279     1 2py  -0.52541     1 3d0  -0.36055     1 3d2+ -0.32240
                                    1 3d1-  0.42845     2 1s    0.58608     2 2px   0.25972     2 2py   0.52872     2 3d0  -0.35591
                                    2 3d2+ -0.32290     2 3d1-  0.43623     4 1s   -0.54675     5 1s   -0.54888
   31.1    -0.00000     2.24045     1 2py  -0.55662     1 3d0   0.41384     1 3d2-  0.25572     1 3d1+ -0.25177     1 3d1-  0.45985
                                    2 2py   0.54577     2 3d0   0.40395     2 3d1+ -0.25861     2 3d1-  0.44887     3 1s    0.41287
                                    4 1s   -0.35607     5 1s   -0.35246     6 1s    0.39763
   32.1    -0.00000     2.28061     1 2py  -0.49819     1 3d1+  0.46920     1 3d2+  0.43707     1 3d1-  0.32994     2 2py   0.47359
                                    2 3d1+  0.46587     2 3d2+  0.41110     2 3d1-  0.29963     3 1s    0.35994     4 1s   -0.27426
                                    5 1s   -0.26131     6 1s    0.32090
   33.1    -0.00000     2.32834     1 1s   -0.34143     1 1s    0.82459     1 2px   0.46989     1 2py   0.34933     1 2pz  -0.25153
                                    1 3d0  -0.36703     1 3d2- -0.33553     1 3d2+ -0.31122     1 3d1- -0.37875     2 1s    0.34725
                                    2 1s   -0.82119     2 2px   0.47734     2 2py   0.39632     2 2pz  -0.26707     2 3d0   0.36770
                                    2 3d2-  0.33812     2 3d2+  0.35019     2 3d1-  0.41099     3 1s   -0.51090     6 1s    0.54740
   34.1    -0.00000     2.69719     1 1s    0.27088     1 1s   -1.41721     1 2px  -0.67875     1 2pz   0.31135     1 3d0   0.47557
                                    1 3d1+  0.48554     1 3d2+ -0.46459     2 1s   -0.27728     2 1s    1.41131     2 2px  -0.68395
                                    2 2pz   0.31025     2 3d0  -0.47069     2 3d1+ -0.48596     2 3d2+  0.46939     4 1s    0.48843
                                    5 1s   -0.46975
   35.1    -0.00000     2.77224     1 1s   -0.35048     1 1s    0.28039     1 2px   0.30009     1 2py   0.26669     1 2px   0.47506
                                    1 2py   0.28217     1 3d0   0.29975     1 3d2- -0.66370     1 3d2+  0.44747     2 1s    0.34670
                                    2 1s   -0.28420     2 2px   0.29755     2 2py   0.26218     2 2px   0.47265     2 2py   0.27706
                                    2 3d0  -0.29321     2 3d2-  0.65846     2 3d2+ -0.44766     4 1s    0.97960     5 1s   -0.96737
   36.1    -0.00000     2.87503     1 1s    0.26167     1 1s    0.44623     1 2py  -0.28332     1 2px  -0.31320     1 2py  -0.42953
                                    1 3d0  -0.42288     1 3d2-  0.76838     2 1s    0.26041     2 1s    0.46288     2 2py   0.28612
                                    2 2px   0.30931     2 2py   0.43478     2 3d0  -0.43185     2 3d2-  0.77899     4 1s   -1.07245
                                    5 1s   -1.08651


 Natural orbital dump (state averaged) at molpro section  2140.2    (Orbital set 2)



 **********************************************************************************************************************************
 DATASETS  * FILE   NREC   LENGTH (MB)   RECORD NAMES
              1      20       31.83       500      610      700      900      950      970     1000      129      960     1100   
                                          VAR    BASINP    GEOM    SYMINP    ZMAT    AOBASIS   BASIS     P2S    ABASIS      S 
                                         1400     1410     1200     1210     1080     1600     1650     1300     1700     1380   
                                           T        V       H0       H01     AOSYM     SMH    MOLCAS    ERIS     OPER     JKOP   

              2       5        5.42       700     1000      520     2100     2140   
                                         GEOM     BASIS   MCVARS     RHF     MCSCF   

 PROGRAMS   *        TOTAL     MULTI    HF-SCF       INT
 CPU TIMES  *         2.32      1.95      0.10      0.18
 REAL TIME  *         2.67 SEC
 DISK USED  *        39.01 MB
 **********************************************************************************************************************************
 Molecular orbitals read from record     2140.2  Type=MCSCF/NATURAL (state averaged)
 Occupation numbers read from record     2140.2  Type=MCSCF/NATURAL (state averaged)
 Orbital energies read from record       2140.2  Type=MCSCF/NATURAL (state averaged)
 Redundancy group numbers read from rec  2140.2  Type=MCSCF/NATURAL (state averaged)

 MULTI/6-31G* energy=    -77.402224552822

           MULTI          HF-SCF
    -77.40222455    -77.71941945
 **********************************************************************************************************************************
 Molpro calculation terminated
