
 Primary working directories    : /scratch.local/johan406.molpro_temp/molpro.ev3p5KECVx
 Secondary working directories  : /scratch.local/johan406.molpro_temp/molpro.ev3p5KECVx
 Wavefunction directory         : /home/goodpast/johan406/wfu/
 Main file repository           : /scratch.local/johan406.molpro_temp/molpro.ev3p5KECVx/

 id        : roweumn

 Nodes     nprocs
 acn06        1

 Using customized tuning parameters: mindgm=1; mindgv=20; mindgc=4; mindgr=1; noblas=0; minvec=7
 default implementation of scratch files=df  


 Variables initialized (934), CPU time= 0.00 sec
                                                                                 !leave this line blank
 
 gprint, orbitals=30
 memory, 125., m
 symmetry, nosym
 nelect=16
 basis=6-31g*
 
 geometry={
 C -0.805 0.023 0.298
 C 0.814 -0.073 -0.358
 H -0.925 1.171 -0.079
 H -1.432 -0.620 0.299
 H 1.441 0.570 -0.359
 H 0.933 -1.221 0.019
 }
 
 hf
 {multi,
 closed 7
 occ 9
 wf,spin=0;STATE,3
 }
 
 Commands  initialized (763), CPU time= 0.01 sec, 617 directives.
 Default parameters read. Elapsed time= 0.07 sec

 Checking input...
 Passed
1


                                         ***  PROGRAM SYSTEM MOLPRO  ***
                                       Copyright, TTI GmbH Stuttgart, 2015
                                    Version 2019.2 linked Oct 25 2019 22:50:27


 **********************************************************************************************************************************
 LABEL *                                                                                 
  64 bit serial version                                                                  DATE: 15-Mar-23          TIME: 16:25:56  
 **********************************************************************************************************************************

 SHA1:             8dbd9ae1082e4ce945b0f27595c9eb2d4aa09004
 **********************************************************************************************************************************


 Variable memory set to  125000000 words,  buffer space 

 SETTING NELECT         =        16.00000000                                  
 SETTING BASIS          =    6-31G*
 ZSYMEL=NOSYM


Geometry recognized as XYZ



 Recomputing integrals since basis changed


 Using spherical harmonics

 Library entry C      S 6-31G                selected for orbital group  1
 Library entry C      P 6-31G                selected for orbital group  1
 Library entry C      D 6-31G*               selected for orbital group  1
 Library entry H      S 6-31G                selected for orbital group  2


 PROGRAM * SEWARD (Integral evaluation for generally contracted gaussian basis sets)     Author: Roland Lindh, 1990

 Geometry written to block  1 of record 700


 Point group  C1  



 ATOMIC COORDINATES

 NR  ATOM    CHARGE       X              Y              Z

   1  C       6.00   -1.521229530    0.043463701    0.563138385
   2  C       6.00    1.538237065   -0.137950007   -0.676521953
   3  H       1.00   -1.747996665    2.212869292   -0.149288364
   4  H       1.00   -2.706087810   -1.171630197    0.565028111
   5  H       1.00    2.723095345    1.077143891   -0.678411679
   6  H       1.00    1.763114474   -2.307355598    0.035904796

 Bond lengths in Bohr (Angstrom)

 1-2  3.306055737  1-3  2.294623242  1-4  1.697158182  2-5  1.697158182  2-6  2.294437260
     ( 1.749489354)     ( 1.214262328)     ( 0.898097433)     ( 0.898097433)     ( 1.214163910)

 Bond angles

  1-2-5  127.38737103   1-2-6   91.49872628   2-1-3   91.54228638   2-1-4  127.38737103

  3-1-4  127.46232149   5-2-6  127.50739923

 NUCLEAR CHARGE:                   16
 NUMBER OF PRIMITIVE AOS:          72
 NUMBER OF SYMMETRY AOS:           70
 NUMBER OF CONTRACTIONS:           36   (   36A   )
 NUMBER OF CORE ORBITALS:           2   (    2A   )
 NUMBER OF VALENCE ORBITALS:       12   (   12A   )


 NUCLEAR REPULSION ENERGY   30.10654212

 Eigenvalues of metric

         1 0.173E-01 0.192E-01 0.340E-01 0.676E-01 0.896E-01 0.186E+00 0.210E+00 0.284E+00


 Contracted 2-electron integrals neglected if value below      1.0D-11
 AO integral compression algorithm  1   Integral accuracy      1.0D-11

     1.311 MB (compressed) written to integral file ( 66.7%)


 NUMBER OF SORTED TWO-ELECTRON INTEGRALS:     222111.     BUFFER LENGTH:  32768
 NUMBER OF SEGMENTS:   1  SEGMENT LENGTH:     222111      RECORD LENGTH: 524288

 Memory used in sort:       0.78 MW

 SORT1 READ      284735. AND WROTE      212453. INTEGRALS IN      1 RECORDS. CPU TIME:     0.00 SEC, REAL TIME:     0.00 SEC
 SORT2 READ      212453. AND WROTE      222111. INTEGRALS IN      5 RECORDS. CPU TIME:     0.03 SEC, REAL TIME:     0.03 SEC

 FILE SIZES:   FILE 1:    31.4 MBYTE,  FILE 4:     4.2 MBYTE,   TOTAL:     35.6 MBYTE

 OPERATOR DM      FOR CENTER  0  COORDINATES:    0.000000    0.000000    0.000000


 **********************************************************************************************************************************
 DATASETS  * FILE   NREC   LENGTH (MB)   RECORD NAMES
              1      19       31.10       500      610      700      900      950      970     1000      129      960     1100   
                                          VAR    BASINP    GEOM    SYMINP    ZMAT    AOBASIS   BASIS     P2S    ABASIS      S 
                                         1400     1410     1200     1210     1080     1600     1650     1300     1700   
                                           T        V       H0       H01     AOSYM     SMH    MOLCAS    ERIS     OPER   

 PROGRAMS   *        TOTAL       INT
 CPU TIMES  *         0.29      0.18
 REAL TIME  *         0.44 SEC
 DISK USED  *        35.97 MB
 **********************************************************************************************************************************


 PROGRAM * RHF-SCF (CLOSED SHELL)       Authors: W. Meyer, H.-J. Werner


 NUMBER OF ELECTRONS:       8+    8-    SPACE SYMMETRY=1    SPIN SYMMETRY: Singlet 
 CONVERGENCE THRESHOLDS:    1.00E-05 (Density)    1.00E-07 (Energy)
 MAX. NUMBER OF ITERATIONS:       60
 INTERPOLATION TYPE:            DIIS
 INTERPOLATION STEPS:              2 (START)      1 (STEP)
 LEVEL SHIFTS:                  0.00 (CLOSED)  0.00 (OPEN) 



 Orbital guess generated from atomic densities. Full valence occupancy:    8

 Molecular orbital dump at record        2100.2

 Initial occupancy:   8

 ITERATION    DDIFF          GRAD             ENERGY        2-EL.EN.            DIPOLE MOMENTS         DIIS   ORB.
    1      0.000D+00      0.000D+00       -77.75221408    110.821983   -0.00021   -0.00013    0.00001    0    start
    2      0.000D+00      0.696D-02       -77.77297189    110.229214    0.00003   -0.00013   -0.00008    1    diag
    3      0.785D-02      0.226D-02       -77.77605308    110.483336   -0.00008   -0.00016    0.00001    2    diag
    4      0.340D-02      0.827D-03       -77.77674714    110.387299    0.00008   -0.00015   -0.00009    3    diag
    5      0.160D-02      0.478D-03       -77.77723462    110.401418   -0.00019   -0.00018    0.00009    4    diag
    6      0.177D-02      0.218D-03       -77.77736425    110.402531    0.00049   -0.00009   -0.00040    5    diag
    7      0.114D-02      0.538D-04       -77.77736988    110.403684   -0.00076   -0.00026    0.00049    6    diag
    8      0.201D-03      0.195D-04       -77.77737025    110.404039    0.00065   -0.00006   -0.00052    7    diag
    9      0.432D-04      0.124D-04       -77.77737034    110.404161   -0.00007   -0.00017   -0.00000    8    diag
   10      0.193D-04      0.246D-05       -77.77737035    110.404140   -0.00002   -0.00016   -0.00004    9    orth
   11      0.636D-05      0.499D-06       -77.77737035    110.404138   -0.00002   -0.00016   -0.00003    0    orth

 Final occupancy:   8

 !RHF STATE  1.1 Energy               -77.777370346666
 Nuclear energy                        30.10654212
 One-electron energy                 -163.08598126
 Two-electron energy                   55.20206879
 Virial quotient                       -1.00019065
 !RHF STATE  1.1 Dipole moment         -0.00002227    -0.00015893    -0.00003414
 Dipole moment /Debye                  -0.00005661    -0.00040394    -0.00008677

 ELECTRON ORBITALS
 =================

  Orbital  Occupation    Energy     Coefficients
    1.1     2.00000   -11.27538     1 1s    0.70207     2 1s    0.70682
    2.1     2.00000   -11.27503     1 1s   -0.70690     2 1s    0.70215
    3.1     2.00000    -0.97015     1 1s    0.28451     2 1s    0.28452
    4.1     2.00000    -0.86549     1 1s    0.26002     2 1s   -0.26004
    5.1     2.00000    -0.61681     1 2px   0.26126     2 2px  -0.26162
    6.1     2.00000    -0.60988     1 2py   0.29817     2 2py   0.29472
    7.1     2.00000    -0.41299     1 2px   0.29052     2 2px  -0.29045
    8.1     2.00000    -0.31519     1 2pz   0.31379     1 2pz   0.32613     2 2pz   0.31379     2 2pz   0.32612
    9.1     0.00000     0.07693     1 2pz   0.35595     1 2pz   0.50295     2 2pz  -0.35597     2 2pz  -0.50298
   10.1     0.00000     0.23003     1 1s   -1.14094     1 2px   0.33946     1 2py  -0.38751     2 1s   -1.14068     2 2px  -0.33933
                                    2 2py   0.38809     3 1s    1.04027     4 1s    0.61405     5 1s    0.61354     6 1s    1.04076
   11.1     0.00000     0.27970     1 1s    1.35503     1 2px   0.51125     1 2py  -0.49298     1 2pz  -0.30134     2 1s   -1.35549
                                    2 2px   0.51104     2 2py  -0.49281     2 2pz  -0.30145     4 1s   -0.92655     5 1s    0.92682
   12.1     0.00000     0.29857     1 1s   -1.17667     1 2py  -0.57810     1 2pz   0.27561     2 1s    1.17696     2 2py  -0.57736
                                    2 2pz   0.27542     3 1s    1.37695     6 1s   -1.37652
   13.1     0.00000     0.35098     1 1s   -1.33497     1 2px   0.66317     1 2py   1.22970     2 1s   -1.33468     2 2px  -0.66441
                                    2 2py  -1.23070     3 1s   -0.64420     4 1s    2.31912     5 1s    2.32081     6 1s   -0.64548
   14.1     0.00000     0.36633     1 1s   -0.49257     1 2px   0.25115     1 2px   1.30106     1 2py   0.60834     1 2pz  -0.36848
                                    2 1s    0.49143     2 2px   0.25106     2 2px   1.30077     2 2py   0.60750     2 2pz  -0.36843
                                    3 1s   -0.32997     4 1s    2.00345     5 1s   -2.00178     6 1s    0.32994
   15.1     0.00000     0.65949     1 1s   -0.29777     1 2px  -0.37600     1 2px   1.27132     1 2py   0.73397     1 2pz  -0.26159
                                    2 1s    0.29808     2 2px  -0.37601     2 2px   1.27168     2 2py   0.73412     2 2pz  -0.26162
                                    4 1s    0.43299     4 1s    0.76246     5 1s   -0.43306     5 1s   -0.76307
   16.1     0.00000     0.76206     1 1s    0.26372     1 1s   -0.84371     1 2px  -0.45774     1 2py   0.34367     1 2px   0.85153
                                    2 1s    0.26389     2 1s   -0.84391     2 2px   0.45783     2 2py  -0.34413     2 2px  -0.85009
                                    3 1s    0.33056     4 1s    0.47871     5 1s    0.47753     6 1s    0.33093
   17.1     0.00000     0.80333     1 2pz   0.77871     1 2pz  -0.70824     2 2pz   0.77881     2 2pz  -0.70833
   18.1     0.00000     0.84996     1 1s   -0.39992     1 2pz   0.75052     1 2py   0.28780     1 2pz  -0.89241     2 1s   -0.40165
                                    2 2pz  -0.75050     2 2py  -0.29040     2 2pz   0.89240
   19.1     0.00000     0.86229     1 1s    0.29063     1 1s   -0.62620     1 2px   0.50899     1 2py  -0.43226     1 2px  -0.65221
                                    1 2py   0.82282     2 1s   -0.29034     2 1s    0.62560     2 2px   0.50851     2 2py  -0.43180
                                    2 2px  -0.65130     2 2py   0.82145     3 1s   -0.33882     3 1s   -0.27916     6 1s    0.33798
                                    6 1s    0.27962
   20.1     0.00000     0.92220     1 1s    0.39204     1 1s   -1.48156     1 2py  -0.53254     1 2px   0.75988     1 2py   1.72320
                                    2 1s    0.39196     2 1s   -1.48135     2 2py   0.53242     2 2px  -0.75989     2 2py  -1.72295
                                    3 1s    0.25270     3 1s   -0.49980     4 1s    0.38142     4 1s    1.43098     5 1s    0.38140
                                    5 1s    1.43061     6 1s    0.25277     6 1s   -0.49977
   21.1     0.00000     1.02731     1 1s    0.72903     1 1s   -0.35440     1 2px   0.50379     1 2py   0.35586     1 2px  -0.71417
                                    1 2py  -1.18357     1 2pz   0.31612     2 1s    0.72886     2 1s   -0.35427     2 2px  -0.50365
                                    2 2py  -0.35645     2 2px   0.71531     2 2py   1.18547     2 2pz  -0.31662     3 1s    0.52534
                                    4 1s   -0.72394     5 1s   -0.72540     6 1s    0.52647
   22.1     0.00000     1.09232     1 1s   -0.40376     1 1s    0.72367     1 2py  -0.44948     1 2px  -0.48523     1 2py   0.63514
                                    2 1s    0.40259     2 1s   -0.72093     2 2py  -0.44906     2 2px  -0.48405     2 2py   0.63552
                                    3 1s    0.72514     3 1s   -1.30102     6 1s   -0.72383     6 1s    1.29927
   23.1     0.00000     1.12119     1 1s   -0.81334     1 1s    1.91601     1 2px  -0.64836     1 2py  -0.47884     2 1s   -0.81414
                                    2 1s    1.91734     2 2px   0.64994     2 2py   0.47879     3 1s    0.68401     3 1s   -0.90148
                                    4 1s   -0.97493     5 1s   -0.97661     6 1s    0.68566     6 1s   -0.90343
   24.1     0.00000     1.23015     1 1s   -1.21972     1 1s    2.99023     1 2px  -0.28052     1 2py  -0.31178     1 2px   1.41932
                                    1 2py   0.57919     1 2pz  -0.70165     2 1s    1.21942     2 1s   -2.98932     2 2px  -0.28078
                                    2 2py  -0.31168     2 2px   1.42031     2 2py   0.57904     2 2pz  -0.70138     3 1s   -0.33364
                                    3 1s   -0.45832     4 1s   -0.25155     4 1s    0.32350     5 1s    0.25163     5 1s   -0.32439
                                    6 1s    0.33321     6 1s    0.45862
   25.1     0.00000     1.41833     1 1s    0.93067     1 1s   -1.95633     1 2px  -0.41037     1 2py  -0.41853     1 2px   0.43486
                                    1 2py   0.57850     2 1s   -0.92785     2 1s    1.95167     2 2px  -0.40924     2 2py  -0.41714
                                    2 2px   0.43343     2 2py   0.57715     4 1s   -0.62672     4 1s    1.58720     5 1s    0.62415
                                    5 1s   -1.58274
   26.1     0.00000     1.42725     1 1s   -0.79358     1 1s    1.22971     1 2px   0.29780     1 2py   0.40810     1 2px  -0.34223
                                    1 2py  -0.34577     2 1s   -0.79691     2 1s    1.23690     2 2px  -0.29913     2 2py  -0.40955
                                    2 2px   0.34292     2 2py   0.34757     4 1s    0.74928     4 1s   -1.20689     5 1s    0.75140
                                    5 1s   -1.21188
   27.1     0.00000     1.75725     1 3d0  -0.35115     1 3d1+  0.48427     2 3d0   0.35124     2 3d1+ -0.48429
   28.1     0.00000     1.90288     1 1s   -0.29922     1 2px  -0.26651     1 2px   0.27370     1 3d1+ -0.38900     1 3d2+  0.41945
                                    2 1s   -0.29926     2 2px   0.26659     2 2px  -0.27372     2 3d1+ -0.38873     2 3d2+  0.41977
   29.1     0.00000     1.93587     1 3d2+ -0.27651     1 3d1-  0.57604     2 3d2+  0.27621     2 3d1- -0.57586
   30.1     0.00000     2.06655     1 1s    0.57602     1 2px  -0.26435     1 2py  -0.43196     1 3d0  -0.39564     1 3d1+ -0.26793
                                    1 3d2+ -0.30261     1 3d1-  0.41534     2 1s    0.57612     2 2px   0.26434     2 2py   0.43182
                                    2 3d0  -0.39561     2 3d1+ -0.26794     2 3d2+ -0.30265     2 3d1-  0.41536     4 1s   -0.45881
                                    5 1s   -0.45875
   31.1     0.00000     2.25719     1 2py  -0.49019     1 3d0   0.42200     1 3d1+ -0.26314     1 3d1-  0.43962     2 2py   0.49095
                                    2 3d0   0.42196     2 3d1+ -0.26281     2 3d1-  0.44001     3 1s    0.41276     4 1s   -0.28627
                                    5 1s   -0.28701     6 1s    0.41310
   32.1     0.00000     2.31761     1 2py  -0.45322     1 3d1+  0.44921     1 3d2+  0.42491     1 3d1-  0.33044     2 2py   0.45167
                                    2 3d1+  0.44830     2 3d2+  0.42283     2 3d1-  0.32798     3 1s    0.34805     6 1s    0.34501
   33.1     0.00000     2.34858     1 1s    0.33759     1 1s   -0.97477     1 2px  -0.49659     1 2py  -0.31396     1 2pz   0.28292
                                    1 3d0   0.43724     1 3d2+  0.33269     1 3d1-  0.38671     2 1s   -0.33811     2 1s    0.97399
                                    2 2px  -0.49766     2 2py  -0.31692     2 2pz   0.28426     2 3d0  -0.43539     2 3d2+ -0.33529
                                    2 3d1- -0.38857     3 1s    0.53408     6 1s   -0.53613
   34.1     0.00000     2.62663     1 2px   0.26140     1 2px   0.43418     1 2py   0.30904     1 3d0   0.36063     1 3d2- -0.72061
                                    2 2px   0.26140     2 2px   0.43439     2 2py   0.30897     2 3d0  -0.36079     2 3d2-  0.72084
                                    4 1s    0.93441     5 1s   -0.93464
   35.1     0.00000     2.75950     1 1s   -0.30821     1 1s    1.37068     1 2px   0.81027     1 2pz  -0.34387     1 3d0  -0.33851
                                    1 3d1+ -0.52776     1 3d2+  0.62154     2 1s    0.30813     2 1s   -1.37083     2 2px   0.81019
                                    2 2pz  -0.34387     2 3d0   0.33873     2 3d1+  0.52772     2 3d2+ -0.62147
   36.1     0.00000     2.84818     1 1s    0.43165     1 2px  -0.31654     1 2py  -0.34643     1 3d0  -0.39059     1 3d2-  0.78614
                                    2 1s    0.43192     2 2px   0.31631     2 2py   0.34618     2 3d0  -0.39057     2 3d2-  0.78575
                                    4 1s   -0.94116     5 1s   -0.94081


 HOMO      8.1    -0.315190 =      -8.5768eV
 LUMO      9.1     0.076934 =       2.0935eV
 LUMO-HOMO         0.392124 =      10.6702eV


 **********************************************************************************************************************************
 DATASETS  * FILE   NREC   LENGTH (MB)   RECORD NAMES
              1      19       31.10       500      610      700      900      950      970     1000      129      960     1100   
                                          VAR    BASINP    GEOM    SYMINP    ZMAT    AOBASIS   BASIS     P2S    ABASIS      S 
                                         1400     1410     1200     1210     1080     1600     1650     1300     1700   
                                           T        V       H0       H01     AOSYM     SMH    MOLCAS    ERIS     OPER   

              2       4        2.86       700     1000      520     2100   
                                         GEOM     BASIS   MCVARS     RHF  

 PROGRAMS   *        TOTAL    HF-SCF       INT
 CPU TIMES  *         0.39      0.10      0.18
 REAL TIME  *         0.58 SEC
 DISK USED  *        35.97 MB
 **********************************************************************************************************************************


 PROGRAM * MULTI (Direct Multiconfiguration SCF)       Authors: P.J. Knowles, H.-J. Werner (1984)


 Number of closed-shell orbitals:   7 (   7 )
 Number of active  orbitals:        2 (   2 )
 Number of external orbitals:      27 (  27 )

 State symmetry 1

 Number of electrons:     2    Spin symmetry=Singlet   Space symmetry=1
 Number of states:        3
 Number of CSFs:          3   (4 determinants, 4 intermediate states)

 Molecular orbitals read from record     2100.2  Type=RHF/CANONICAL (state 1.1)

 Wavefunction dump at record             2140.2

 Convergence thresholds  0.10E-01 (gradient)  0.10E-05 (energy)  0.10E-02 (step length)

 Weight factors for state symmetry  1:    0.33333   0.33333   0.33333

 Number of orbital rotations:      257   (    14 Core/Active    189 Core/Virtual   0 Active/Active     54 Active/Virtual)
 Total number of variables:        269

 Micro-Iterations solved by the two-step solver

 ITER. MIC  NCI  NEG     ENERGY(VAR)     ENERGY(PROJ)   ENERGY CHANGE     GRAD(0)  GRAD(ORB)   GRAD(CI)     STEP       TIME

   1   16    8    1     -77.59244777     -77.60360588   -0.01115811    0.08637157 0.00057223 0.00000000  0.27D+00      0.37
   2   12    6    0     -77.60940082     -77.61477844   -0.00537762    0.07039177 0.00056285 0.00000000  0.13D+00      0.53
   3   13    6    0     -77.61522285     -77.61576065   -0.00053780    0.01270693 0.00000442 0.00000000  0.84D-01      0.68
   4   17    6    0     -77.61581048     -77.61591628   -0.00010580    0.00482444 0.00000232 0.00000000  0.54D-01      0.85
   5   17    6    0     -77.61592516     -77.61594770   -0.00002254    0.00206255 0.00000146 0.00000000  0.36D-01      1.02
   6   18    6    0     -77.61594929     -77.61595335   -0.00000406    0.00088362 0.00000137 0.00000000  0.21D-01      1.20
   7   15    6    0     -77.61595355     -77.61595390   -0.00000035    0.00030294 0.00000178 0.00000000  0.72D-02      1.32
   8    9    6    0     -77.61595391     -77.61595391   -0.00000000    0.00003095 0.00000000 0.00000000  0.33D-03      1.40
   9    3    3    0     -77.61595391     -77.61595391   -0.00000000    0.00000004 0.00000000 0.00000000  0.18D-06      1.45

 ** WVFN ****  CONVERGENCE REACHED, FINAL GRADIENT:  0.83D-11



 Results for state 1.1
 =====================

 !MCSCF STATE  1.1 Energy             -77.770517991765
 Nuclear energy                        30.10654212
 Kinetic energy                        77.81404765
 One electron energy                 -163.16985269
 Two electron energy                   55.29279257
 Virial ratio                           1.99944059

 !MCSCF STATE  1.1 Dipole moment        0.00201456    -0.00512931     0.02057799
 Dipole moment /Debye                   0.00512016    -0.01303655     0.05230062

 Results for state 2.1
 =====================

 !MCSCF STATE  2.1 Energy             -77.636883018810
 Nuclear energy                        30.10654212
 Kinetic energy                        77.98493024
 One electron energy                 -162.91396927
 Two electron energy                   55.17054413
 Virial ratio                           1.99553699

 !MCSCF STATE  2.1 Dipole moment        0.00595129    -0.01307964    -0.03514811
 Dipole moment /Debye                   0.01512568    -0.03324296    -0.08933174

 Results for state 3.1
 =====================

 !MCSCF STATE  3.1 Energy             -77.440460710289
 Nuclear energy                        30.10654212
 Kinetic energy                        78.15637444
 One electron energy                 -162.65574013
 Two electron energy                   55.10873730
 Virial ratio                           1.99083998

 !MCSCF STATE  3.1 Dipole moment        0.00434176    -0.02012488    -0.08720980
 Dipole moment /Debye                   0.01103492    -0.05114899    -0.22165070

 State-averaged charge density matrix saved on record  2140.2 (density set 1)

 !MCSCF expec         <1.1|DMX|1.1>     0.002014556400 au =     0.005120156256 Debye
 !MCSCF trans         <2.1|DMX|1.1>     0.254417641906 au =     0.646622790315 Debye
 !MCSCF expec         <2.1|DMX|2.1>     0.005951290116 au =     0.015125679933 Debye
 !MCSCF trans         <3.1|DMX|1.1>    -0.001026453470 au =    -0.002608813609 Debye
 !MCSCF trans         <3.1|DMX|2.1>     0.276928741089 au =     0.703836549778 Debye
 !MCSCF expec         <3.1|DMX|3.1>     0.004341757383 au =     0.011034923729 Debye

 !MCSCF expec         <1.1|DMY|1.1>    -0.005129309852 au =    -0.013036551335 Debye
 !MCSCF trans         <2.1|DMY|1.1>    -0.041505218743 au =    -0.105488833852 Debye
 !MCSCF expec         <2.1|DMY|2.1>    -0.013079643566 au =    -0.033242960495 Debye
 !MCSCF trans         <3.1|DMY|1.1>     0.000787715642 au =     0.002002042321 Debye
 !MCSCF trans         <3.1|DMY|2.1>    -0.045204284535 au =    -0.114890305489 Debye
 !MCSCF expec         <3.1|DMY|3.1>    -0.020124880326 au =    -0.051148993338 Debye

 !MCSCF expec         <1.1|DMZ|1.1>     0.020577993381 au =     0.052300616418 Debye
 !MCSCF trans         <2.1|DMZ|1.1>    -0.167997065459 au =    -0.426977981629 Debye
 !MCSCF expec         <2.1|DMZ|2.1>    -0.035148113034 au =    -0.089331741125 Debye
 !MCSCF trans         <3.1|DMZ|1.1>     0.005186811872 au =     0.013182697319 Debye
 !MCSCF trans         <3.1|DMZ|2.1>    -0.183055307802 au =    -0.465249709203 Debye
 !MCSCF expec         <3.1|DMZ|3.1>    -0.087209804739 au =    -0.221650695528 Debye


 NATURAL ORBITALS (state averaged)
 =================================

  Orbital  Occupation    Energy     Coefficients
    1.1     2.00000   -11.26386     2 1s    0.99598
    2.1     2.00000   -11.25918     1 1s   -0.99599
    3.1     2.00000    -0.96864     1 1s    0.28014     2 1s    0.28297
    4.1     2.00000    -0.85627     1 1s    0.26079     2 1s   -0.25961
    5.1     2.00000    -0.61788     2 2py  -0.33344
    6.1     2.00000    -0.61329     1 2py   0.35221
    7.1     2.00000    -0.35348     1 2pz   0.33487     1 2pz   0.32099     2 2pz   0.33930     2 2pz   0.31665
    8.1     1.00000    -0.08228     1 2pz   0.41794     1 2pz   0.42432     2 2pz  -0.43512     2 2pz  -0.43413
    9.1     1.00000    -0.24525     1 2px  -0.29370     2 2px   0.33659
   10.1    -0.00000     0.22103     1 1s   -1.10917     1 2px   0.32303     1 2py  -0.42971     2 1s   -1.11077     2 2px  -0.32751
                                    2 2py   0.44441     3 1s    1.04969     4 1s    0.54181     5 1s    0.53248     6 1s    1.07264
   11.1    -0.00000     0.27786     1 1s    1.75661     1 2px   0.39448     1 2pz  -0.41142     2 1s   -1.75704     2 2px   0.39491
                                    2 2pz  -0.38452     3 1s   -0.85675     4 1s   -0.72258     5 1s    0.72172     6 1s    0.85021
   12.1    -0.00000     0.29323     1 2px   0.27761     1 2py  -0.82522     2 2px   0.25830     2 2py  -0.83864     3 1s    1.13717
                                    4 1s   -0.66552     5 1s    0.73071     6 1s   -1.13510
   13.1    -0.00000     0.35349     1 1s   -1.37847     1 2px   0.64259     1 2py   1.21240     2 1s   -1.40176     2 2px  -0.71557
                                    2 2py  -1.21941     3 1s   -0.61357     4 1s    2.30825     5 1s    2.38672     6 1s   -0.59564
   14.1    -0.00000     0.37035     1 1s   -0.61242     1 2px   0.25984     1 2px   1.35185     1 2py   0.54667     1 2pz  -0.35398
                                    2 1s    0.54110     2 2px   0.25225     2 2px   1.32417     2 2py   0.49623     2 2pz  -0.32003
                                    4 1s    2.04345     5 1s   -1.93482
   15.1    -0.00000     0.66050     1 1s   -0.26121     1 2px  -0.37268     1 2px   1.23562     1 2py   0.73087     2 1s    0.26312
                                    2 2px  -0.38294     2 2px   1.24925     2 2py   0.74496     2 2pz  -0.25313     4 1s    0.43237
                                    4 1s    0.71887     5 1s   -0.43645     5 1s   -0.72696     6 1s    0.25263
   16.1    -0.00000     0.76026     1 1s    0.25369     1 1s   -0.83174     1 2px  -0.44075     1 2py   0.30958     1 2px   0.82360
                                    2 1s   -0.78669     2 2px   0.44846     2 2py  -0.32915     2 2px  -0.84584     3 1s    0.36108
                                    3 1s   -0.25992     4 1s    0.47441     5 1s    0.46016     6 1s    0.36945     6 1s   -0.25827
   17.1    -0.00000     0.79526     1 2pz   0.74005     1 2px   0.31752     1 2pz  -0.69302     2 2pz   0.79463     2 2pz  -0.79182
   18.1    -0.00000     0.84326     1 2pz   0.76437     1 2pz  -0.99091     2 1s   -0.25103     2 2pz  -0.68175     2 2pz   0.91175
   19.1    -0.00000     0.86383     1 1s    0.28434     1 1s   -0.58641     1 2px   0.49636     1 2py  -0.40030     1 2px  -0.58969
                                    1 2py   0.73803     2 1s   -0.33113     2 1s    0.70070     2 2px   0.50492     2 2py  -0.41766
                                    2 2px  -0.55026     2 2py   0.81777     3 1s   -0.39688     5 1s   -0.29692     6 1s    0.37933
   20.1    -0.00000     0.92149     1 1s    0.40651     1 1s   -1.42848     1 2py  -0.54640     1 2px   0.65675     1 2py   1.67437
                                    2 1s    0.38550     2 1s   -1.38714     2 2py   0.53523     2 2px  -0.66982     2 2py  -1.65076
                                    3 1s    0.27071     3 1s   -0.50235     4 1s    0.37286     4 1s    1.35848     5 1s    0.36778
                                    5 1s    1.34344     6 1s    0.29866     6 1s   -0.51730
   21.1    -0.00000     1.02111     1 1s    0.72067     1 1s   -0.30964     1 2px   0.49829     1 2py   0.37350     1 2px  -0.73401
                                    1 2py  -1.24536     1 2pz   0.28962     2 1s    0.73469     2 1s   -0.35297     2 2px  -0.49769
                                    2 2py  -0.37832     2 2px   0.74372     2 2py   1.25150     2 2pz  -0.30931     3 1s    0.56473
                                    4 1s   -0.76382     5 1s   -0.76588     6 1s    0.57129
   22.1    -0.00000     1.07244     1 1s   -0.32528     1 1s    0.53249     1 2py  -0.47457     1 2px  -0.54098     1 2py   0.69182
                                    2 1s    0.37921     2 1s   -0.67430     2 2py  -0.47588     2 2px  -0.59516     2 2py   0.63358
                                    3 1s    0.69256     3 1s   -1.27364     6 1s   -0.73025     6 1s    1.32076
   23.1    -0.00000     1.10799     1 1s   -0.83519     1 1s    2.01315     1 2px  -0.72700     1 2py  -0.55168     2 1s   -0.80604
                                    2 1s    1.96206     2 2px   0.69710     2 2py   0.58775     3 1s    0.69261     3 1s   -0.90021
                                    4 1s   -1.05757     5 1s   -1.04126     6 1s    0.64510     6 1s   -0.81937
   24.1    -0.00000     1.22471     1 1s   -1.22806     1 1s    2.99202     1 2px  -0.28359     1 2py  -0.32182     1 2px   1.42061
                                    1 2py   0.60051     1 2pz  -0.69041     2 1s    1.21835     2 1s   -2.99038     2 2px  -0.27494
                                    2 2py  -0.31661     2 2px   1.40667     2 2py   0.58003     2 2pz  -0.69593     3 1s   -0.31765
                                    3 1s   -0.48537     4 1s   -0.25565     4 1s    0.33542     5 1s    0.25435     5 1s   -0.32102
                                    6 1s    0.31385     6 1s    0.47891
   25.1    -0.00000     1.42302     1 1s    0.79881     1 1s   -1.74749     1 2px  -0.36029     1 2py  -0.33972     1 2px   0.37893
                                    1 2py   0.51229     2 1s   -1.05197     2 1s    2.14287     2 2px  -0.45313     2 2py  -0.46138
                                    2 2px   0.48911     2 2py   0.61768     4 1s   -0.49330     4 1s    1.37707     5 1s    0.72318
                                    5 1s   -1.75535
   26.1    -0.00000     1.43147     1 1s   -0.94204     1 1s    1.54371     1 2px   0.35712     1 2py   0.46219     1 2px  -0.40891
                                    1 2py  -0.43311     2 1s   -0.65232     2 1s    0.93588     2 2py  -0.33240     2 2px   0.27933
                                    2 2py   0.25389     4 1s    0.83290     4 1s   -1.44491     5 1s    0.64078     5 1s   -0.95699
   27.1    -0.00000     1.75270     1 3d0  -0.35119     1 3d1+  0.47995     2 3d0   0.35161     2 3d1+ -0.48487
   28.1    -0.00000     1.89829     1 1s   -0.28991     1 2px  -0.27401     1 2px   0.27615     1 3d1+ -0.38286     1 3d2+  0.43056
                                    2 1s   -0.29141     2 2px   0.27271     2 2px  -0.27832     2 3d1+ -0.38480     2 3d2+  0.43309
   29.1    -0.00000     1.93413     1 3d2+ -0.27691     1 3d1-  0.57064     2 3d2+  0.28037     2 3d1- -0.57556
   30.1    -0.00000     2.06511     1 1s    0.57242     1 2px  -0.26396     1 2py  -0.43055     1 3d0  -0.39426     1 3d1+ -0.27500
                                    1 3d2+ -0.30133     1 3d1-  0.41655     2 1s    0.58662     2 2px   0.25845     2 2py   0.42844
                                    2 3d0  -0.40060     2 3d1+ -0.27120     2 3d2+ -0.29850     2 3d1-  0.40351     4 1s   -0.46217
                                    5 1s   -0.46020
   31.1    -0.00000     2.25142     1 2py  -0.50283     1 3d0   0.40960     1 3d1+ -0.25159     1 3d1-  0.44657     2 2py   0.51527
                                    2 3d0   0.42136     2 3d1-  0.45930     3 1s    0.40379     4 1s   -0.29342     5 1s   -0.29703
                                    6 1s    0.42164
   32.1    -0.00000     2.31031     1 2py  -0.42609     1 3d0  -0.25383     1 3d1+  0.45250     1 3d2+  0.38929     1 3d1-  0.29776
                                    2 2py   0.46254     2 3d1+  0.46303     2 3d2+  0.43543     2 3d1-  0.34836     3 1s    0.29606
                                    6 1s    0.36305
   33.1    -0.00000     2.34369     1 1s    0.34427     1 1s   -0.95773     1 2px  -0.48719     1 2py  -0.35079     1 2pz   0.29063
                                    1 3d0   0.42177     1 3d2+  0.37307     1 3d1-  0.41780     2 1s   -0.33531     2 1s    0.95697
                                    2 2px  -0.47904     2 2py  -0.28254     2 2pz   0.26371     2 3d0  -0.42992     2 3d2+ -0.31165
                                    2 3d1- -0.36584     3 1s    0.55482     6 1s   -0.49954
   34.1    -0.00000     2.62178     1 2px   0.26318     1 2px   0.45340     1 2py   0.30060     1 3d0   0.34935     1 3d2- -0.70861
                                    2 2px   0.26658     2 2px   0.45738     2 2py   0.30454     2 3d0  -0.36038     2 3d2-  0.71960
                                    4 1s    0.92329     5 1s   -0.94027
   35.1    -0.00000     2.75040     1 1s   -0.31885     1 1s    1.39287     1 2px   0.81686     1 2pz  -0.34669     1 3d0  -0.35172
                                    1 3d1+ -0.52862     1 3d2+  0.61035     2 1s    0.31110     2 1s   -1.40513     2 2px   0.80627
                                    2 2pz  -0.34805     2 3d0   0.36202     2 3d1+  0.52851     2 3d2+ -0.60745     5 1s    0.25187
   36.1    -0.00000     2.84375     1 1s    0.45253     1 2px  -0.30613     1 2py  -0.34898     1 3d0  -0.40561     1 3d2-  0.78933
                                    2 1s    0.41011     2 2px   0.32409     2 2py   0.34180     2 3d0  -0.38856     2 3d2-  0.77307
                                    4 1s   -0.95746     5 1s   -0.93370


 Natural orbital dump (state averaged) at molpro section  2140.2    (Orbital set 2)



 **********************************************************************************************************************************
 DATASETS  * FILE   NREC   LENGTH (MB)   RECORD NAMES
              1      20       31.83       500      610      700      900      950      970     1000      129      960     1100   
                                          VAR    BASINP    GEOM    SYMINP    ZMAT    AOBASIS   BASIS     P2S    ABASIS      S 
                                         1400     1410     1200     1210     1080     1600     1650     1300     1700     1380   
                                           T        V       H0       H01     AOSYM     SMH    MOLCAS    ERIS     OPER     JKOP   

              2       5        5.42       700     1000      520     2100     2140   
                                         GEOM     BASIS   MCVARS     RHF     MCSCF   

 PROGRAMS   *        TOTAL     MULTI    HF-SCF       INT
 CPU TIMES  *         1.87      1.48      0.10      0.18
 REAL TIME  *         2.15 SEC
 DISK USED  *        39.01 MB
 **********************************************************************************************************************************
 Molecular orbitals read from record     2140.2  Type=MCSCF/NATURAL (state averaged)
 Occupation numbers read from record     2140.2  Type=MCSCF/NATURAL (state averaged)
 Orbital energies read from record       2140.2  Type=MCSCF/NATURAL (state averaged)
 Redundancy group numbers read from rec  2140.2  Type=MCSCF/NATURAL (state averaged)

 MULTI/6-31G* energy=    -77.440460710289

           MULTI          HF-SCF
    -77.44046071    -77.77737035
 **********************************************************************************************************************************
 Molpro calculation terminated
