
 Primary working directories    : /scratch.local/johan406.molpro_temp/molpro.FzM10DVSeo
 Secondary working directories  : /scratch.local/johan406.molpro_temp/molpro.FzM10DVSeo
 Wavefunction directory         : /home/goodpast/johan406/wfu/
 Main file repository           : /scratch.local/johan406.molpro_temp/molpro.FzM10DVSeo/

 id        : roweumn

 Nodes     nprocs
 acn06        1

 Using customized tuning parameters: mindgm=1; mindgv=20; mindgc=4; mindgr=1; noblas=0; minvec=7
 default implementation of scratch files=df  


 Variables initialized (934), CPU time= 0.00 sec
                                                                                 !leave this line blank
 
 gprint, orbitals=30
 memory, 125., m
 symmetry, nosym
 nelect=16
 basis=6-31g*
 
 geometry={
 C -0.760 0.023 0.287
 C 0.769 -0.073 -0.347
 H -1.021 1.095 -0.069
 H -1.577 -0.569 0.274
 H 1.586 0.519 -0.335
 H 1.030 -1.145 0.008
 }
 
 hf
 {multi,
 closed 7
 occ 9
 wf,spin=0;STATE,3
 }
 
 Commands  initialized (763), CPU time= 0.01 sec, 617 directives.
 Default parameters read. Elapsed time= 0.06 sec

 Checking input...
 Passed
1


                                         ***  PROGRAM SYSTEM MOLPRO  ***
                                       Copyright, TTI GmbH Stuttgart, 2015
                                    Version 2019.2 linked Oct 25 2019 22:50:27


 **********************************************************************************************************************************
 LABEL *                                                                                 
  64 bit serial version                                                                  DATE: 15-Mar-23          TIME: 16:27:41  
 **********************************************************************************************************************************

 SHA1:             8dbd9ae1082e4ce945b0f27595c9eb2d4aa09004
 **********************************************************************************************************************************


 Variable memory set to  125000000 words,  buffer space 

 SETTING NELECT         =        16.00000000                                  
 SETTING BASIS          =    6-31G*
 ZSYMEL=NOSYM


Geometry recognized as XYZ



 Recomputing integrals since basis changed


 Using spherical harmonics

 Library entry C      S 6-31G                selected for orbital group  1
 Library entry C      P 6-31G                selected for orbital group  1
 Library entry C      D 6-31G*               selected for orbital group  1
 Library entry H      S 6-31G                selected for orbital group  2


 PROGRAM * SEWARD (Integral evaluation for generally contracted gaussian basis sets)     Author: Roland Lindh, 1990

 Geometry written to block  1 of record 700


 Point group  C1  



 ATOMIC COORDINATES

 NR  ATOM    CHARGE       X              Y              Z

   1  C       6.00   -1.436191855    0.043463701    0.542351398
   2  C       6.00    1.453199390   -0.137950007   -0.655734965
   3  H       1.00   -1.929410373    2.069250106   -0.130391103
   4  H       1.00   -2.980098098   -1.075254165    0.517784958
   5  H       1.00    2.997105634    0.980767859   -0.633058252
   6  H       1.00    1.946417908   -2.163736413    0.015117809

 Bond lengths in Bohr (Angstrom)

 1-2  3.133193839  1-3  2.190812073  1-4  1.906772053  2-5  1.906748643  2-6  2.190232525
     ( 1.658014777)     ( 1.159327822)     ( 1.009020317)     ( 1.009007929)     ( 1.159021139)

 Bond angles

  1-2-5  135.08718407   1-2-6   98.28509791   2-1-3   98.26379401   2-1-4  135.05573321

  3-1-4  110.87127790   5-2-6  110.89662463

 NUCLEAR CHARGE:                   16
 NUMBER OF PRIMITIVE AOS:          72
 NUMBER OF SYMMETRY AOS:           70
 NUMBER OF CONTRACTIONS:           36   (   36A   )
 NUMBER OF CORE ORBITALS:           2   (    2A   )
 NUMBER OF VALENCE ORBITALS:       12   (   12A   )


 NUCLEAR REPULSION ENERGY   30.08737529

 Eigenvalues of metric

         1 0.168E-01 0.237E-01 0.424E-01 0.604E-01 0.836E-01 0.227E+00 0.259E+00 0.284E+00


 Contracted 2-electron integrals neglected if value below      1.0D-11
 AO integral compression algorithm  1   Integral accuracy      1.0D-11

     1.311 MB (compressed) written to integral file ( 67.1%)


 NUMBER OF SORTED TWO-ELECTRON INTEGRALS:     222111.     BUFFER LENGTH:  32768
 NUMBER OF SEGMENTS:   1  SEGMENT LENGTH:     222111      RECORD LENGTH: 524288

 Memory used in sort:       0.78 MW

 SORT1 READ      284735. AND WROTE      212508. INTEGRALS IN      1 RECORDS. CPU TIME:     0.00 SEC, REAL TIME:     0.00 SEC
 SORT2 READ      212508. AND WROTE      222111. INTEGRALS IN      5 RECORDS. CPU TIME:     0.02 SEC, REAL TIME:     0.02 SEC

 FILE SIZES:   FILE 1:    31.4 MBYTE,  FILE 4:     4.2 MBYTE,   TOTAL:     35.6 MBYTE

 OPERATOR DM      FOR CENTER  0  COORDINATES:    0.000000    0.000000    0.000000


 **********************************************************************************************************************************
 DATASETS  * FILE   NREC   LENGTH (MB)   RECORD NAMES
              1      19       31.10       500      610      700      900      950      970     1000      129      960     1100   
                                          VAR    BASINP    GEOM    SYMINP    ZMAT    AOBASIS   BASIS     P2S    ABASIS      S 
                                         1400     1410     1200     1210     1080     1600     1650     1300     1700   
                                           T        V       H0       H01     AOSYM     SMH    MOLCAS    ERIS     OPER   

 PROGRAMS   *        TOTAL       INT
 CPU TIMES  *         0.26      0.16
 REAL TIME  *         0.38 SEC
 DISK USED  *        35.97 MB
 **********************************************************************************************************************************


 PROGRAM * RHF-SCF (CLOSED SHELL)       Authors: W. Meyer, H.-J. Werner


 NUMBER OF ELECTRONS:       8+    8-    SPACE SYMMETRY=1    SPIN SYMMETRY: Singlet 
 CONVERGENCE THRESHOLDS:    1.00E-05 (Density)    1.00E-07 (Energy)
 MAX. NUMBER OF ITERATIONS:       60
 INTERPOLATION TYPE:            DIIS
 INTERPOLATION STEPS:              2 (START)      1 (STEP)
 LEVEL SHIFTS:                  0.00 (CLOSED)  0.00 (OPEN) 



 Orbital guess generated from atomic densities. Full valence occupancy:    8

 Molecular orbital dump at record        2100.2

 Initial occupancy:   8

 ITERATION    DDIFF          GRAD             ENERGY        2-EL.EN.            DIPOLE MOMENTS         DIIS   ORB.
    1      0.000D+00      0.000D+00       -77.85918246    111.043805    0.00049   -0.00008   -0.00084    0    start
    2      0.000D+00      0.661D-02       -77.87772131    110.495389    0.00046   -0.00026   -0.00069    1    diag
    3      0.703D-02      0.215D-02       -77.88042514    110.762982    0.00075   -0.00028   -0.00092    2    diag
    4      0.326D-02      0.797D-03       -77.88097764    110.660595    0.00059   -0.00033   -0.00076    3    diag
    5      0.146D-02      0.415D-03       -77.88127951    110.673169    0.00094   -0.00030   -0.00102    4    diag
    6      0.157D-02      0.126D-03       -77.88130907    110.671749    0.00031   -0.00038   -0.00051    5    diag
    7      0.496D-03      0.257D-04       -77.88130998    110.672395    0.00129   -0.00026   -0.00130    6    diag
    8      0.665D-04      0.133D-04       -77.88131009    110.672496    0.00057   -0.00035   -0.00072    7    diag
    9      0.186D-04      0.525D-05       -77.88131012    110.672492    0.00074   -0.00033   -0.00086    8    diag
   10      0.122D-04      0.115D-05       -77.88131012    110.672493    0.00073   -0.00033   -0.00086    9    orth
   11      0.291D-05      0.186D-06       -77.88131012    110.672490    0.00074   -0.00033   -0.00086    0    orth

 Final occupancy:   8

 !RHF STATE  1.1 Energy               -77.881310119545
 Nuclear energy                        30.08737529
 One-electron energy                 -163.30493047
 Two-electron energy                   55.33624506
 Virial quotient                       -1.00470838
 !RHF STATE  1.1 Dipole moment          0.00073523    -0.00033003    -0.00085633
 Dipole moment /Debye                   0.00186865    -0.00083879    -0.00217643

 ELECTRON ORBITALS
 =================

  Orbital  Occupation    Energy     Coefficients
    1.1     2.00000   -11.27542     1 1s    0.65718     2 1s    0.74879
    2.1     2.00000   -11.27501     1 1s    0.74885     2 1s   -0.65725
    3.1     2.00000    -0.96610     1 1s    0.28737     1 1s    0.26424     2 1s    0.28756     2 1s    0.26436
    4.1     2.00000    -0.83628     1 1s    0.25365     2 1s   -0.25351
    5.1     2.00000    -0.59563     1 2py   0.30304     2 2py   0.31035
    6.1     2.00000    -0.59318     1 2px   0.31106     2 2px  -0.30938
    7.1     2.00000    -0.44528     1 2py   0.26929     2 2py  -0.26904
    8.1     2.00000    -0.32932     1 2pz   0.31592     1 2pz   0.31869     2 2pz   0.31575     2 2pz   0.31858
    9.1     0.00000     0.08698     1 1s   -0.25213     1 2pz  -0.35374     1 2pz  -0.52272     2 1s   -0.25158     2 2pz   0.35391
                                    2 2pz   0.52302
   10.1     0.00000     0.25408     1 1s   -1.25744     1 2px   0.48628     1 2py  -0.44723     1 2pz   0.28511     2 1s   -1.26537
                                    2 2px  -0.48620     2 2py   0.44483     2 2pz  -0.28553     3 1s    1.15239     4 1s    0.72450
                                    5 1s    0.73134     6 1s    1.15247
   11.1     0.00000     0.26053     1 1s   -1.47756     1 2py   0.38058     2 1s    1.47065     2 2py   0.38361     4 1s    1.18906
                                    5 1s   -1.18543
   12.1     0.00000     0.31030     1 1s    0.96936     1 2py   0.69666     2 1s   -0.97130     2 2py   0.69677     3 1s   -1.48349
                                    6 1s    1.48447
   13.1     0.00000     0.34408     1 1s   -0.89441     1 2px   0.60217     1 2py   1.05746     2 1s   -0.89202     2 2px  -0.60333
                                    2 2py  -1.05817     3 1s   -0.65553     4 1s    1.83108     5 1s    1.83156     6 1s   -0.65735
   14.1     0.00000     0.39251     1 1s   -0.52477     1 2px  -0.28984     1 2px  -1.67722     1 2py  -0.25413     1 2pz   0.55079
                                    2 1s    0.52486     2 2px  -0.28971     2 2px  -1.67690     2 2py  -0.25370     2 2pz   0.55159
                                    4 1s   -1.46457     5 1s    1.46415
   15.1     0.00000     0.68826     1 2px  -0.29215     1 2py  -0.30032     1 2px   1.33625     1 2py   0.52328     1 2pz  -0.35775
                                    2 2px  -0.29201     2 2py  -0.30025     2 2px   1.33621     2 2py   0.52349     2 2pz  -0.35842
                                    4 1s    0.45042     4 1s    0.42739     5 1s   -0.45049     5 1s   -0.42779
   16.1     0.00000     0.76651     1 1s    0.38364     1 2px   0.45906     1 2py  -0.45104     1 2px  -0.71958     1 2py   0.67981
                                    2 1s    0.38366     2 2px  -0.45966     2 2py   0.45137     2 2px   0.72091     2 2py  -0.68075
                                    3 1s   -0.26906     6 1s   -0.26953
   17.1     0.00000     0.80540     1 2pz   0.76771     1 2pz  -0.66223     2 2pz   0.76853     2 2pz  -0.66304
   18.1     0.00000     0.84838     1 1s    0.26141     1 1s   -0.40971     1 2pz   0.76280     1 2pz  -0.90423     2 1s    0.26144
                                    2 1s   -0.41058     2 2pz  -0.76200     2 2pz   0.90361
   19.1     0.00000     0.85648     1 1s   -0.40434     1 2px   0.54146     1 2py  -0.39330     1 2px  -1.02320     1 2py   0.63370
                                    2 1s    0.40137     2 2px   0.54069     2 2py  -0.39240     2 2px  -1.02346     2 2py   0.63257
                                    3 1s   -0.36182     3 1s   -0.27333     6 1s    0.36211     6 1s    0.27404
   20.1     0.00000     0.98256     1 1s   -0.89327     1 1s    1.21282     1 2px  -0.34642     1 2py   0.58057     1 2pz  -0.42813
                                    2 1s   -0.89479     2 1s    1.21649     2 2px   0.34765     2 2py  -0.58029     2 2pz   0.42863
                                    3 1s   -0.35032     3 1s   -0.44310     4 1s   -0.30586     5 1s   -0.30579     6 1s   -0.35040
                                    6 1s   -0.44278
   21.1     0.00000     1.00646     1 1s   -1.34594     1 2px  -0.34912     1 2py  -0.52522     1 2px   1.31241     1 2py   1.61986
                                    2 1s   -1.34986     2 2px   0.34817     2 2py   0.52536     2 2px  -1.31075     2 2py  -1.62040
                                    3 1s   -0.38864     4 1s    0.36834     4 1s    1.36978     5 1s    0.36864     5 1s    1.37016
                                    6 1s   -0.38903
   22.1     0.00000     1.12836     1 1s   -0.32273     1 1s    0.54075     1 2py  -0.54386     1 2px  -0.40007     1 2py   0.77078
                                    2 1s    0.30574     2 1s   -0.50078     2 2py  -0.53316     2 2px  -0.38348     2 2py   0.76996
                                    3 1s    0.71829     3 1s   -1.35802     6 1s   -0.69446     6 1s    1.32446
   23.1     0.00000     1.13349     1 1s   -0.52753     1 1s    1.23112     1 2py  -0.32284     1 2px  -0.49785     2 1s   -0.53888
                                    2 1s    1.25033     2 2py   0.34099     2 2px   0.51033     3 1s    0.70055     3 1s   -1.00443
                                    4 1s   -0.27947     5 1s   -0.27659     6 1s    0.72379     6 1s   -1.04901
   24.1     0.00000     1.22266     1 1s    0.83702     1 1s   -2.42949     1 2px   0.44954     1 2py   0.31924     1 2px  -1.48232
                                    1 2py  -0.56593     1 2pz   0.63708     2 1s   -0.83361     2 1s    2.42227     2 2px   0.45041
                                    2 2py   0.32002     2 2px  -1.48577     2 2py  -0.56900     2 2pz   0.63632     3 1s    0.28621
                                    3 1s    0.39683     4 1s    0.51288     4 1s   -0.76655     5 1s   -0.51303     5 1s    0.77186
                                    6 1s   -0.28608     6 1s   -0.39633
   25.1     0.00000     1.26368     1 1s   -0.93940     1 1s    1.50773     1 2px   0.32155     1 2py   0.26090     1 2px  -0.47031
                                    2 1s   -0.94140     2 1s    1.51326     2 2px  -0.32088     2 2py  -0.26043     2 2px   0.46736
                                    4 1s    0.70292     4 1s   -1.23282     5 1s    0.70225     5 1s   -1.23174
   26.1     0.00000     1.28986     1 1s   -1.32339     1 1s    2.98488     1 2px   0.33054     1 2pz  -0.36081     2 1s    1.32217
                                    2 1s   -2.98210     2 2px   0.33021     2 2pz  -0.35947     3 1s   -0.33437     4 1s    0.44600
                                    4 1s   -1.20097     5 1s   -0.44623     5 1s    1.19885     6 1s    0.33442
   27.1     0.00000     1.73107     1 1s    0.31971     1 3d0  -0.27502     1 3d2- -0.25316     1 3d1+  0.47081     2 1s   -0.31851
                                    2 3d0   0.27550     2 3d2-  0.25265     2 3d1+ -0.47075
   28.1     0.00000     1.94872     1 3d2+ -0.27153     1 3d1-  0.57054     2 3d2+  0.26989     2 3d1- -0.57068
   29.1     0.00000     1.97145     1 2px   0.40874     1 2py   0.31596     1 3d2+  0.45959     1 3d1- -0.41396     2 2px  -0.40933
                                    2 2py  -0.31604     2 3d2+  0.46026     2 3d1- -0.41563     4 1s    0.32388     5 1s    0.32418
   30.1     0.00000     2.02661     1 1s    0.31083     1 1s   -0.53382     1 3d0   0.45096     1 3d1+  0.44411     2 1s    0.31037
                                    2 1s   -0.53243     2 3d0   0.44983     2 3d1+  0.44402
   31.1     0.00000     2.32602     1 1s   -0.59973     1 3d0   0.61933     1 3d2- -0.34004     1 3d2+  0.31759     2 1s    0.56022
                                    2 3d0  -0.56041     2 3d2-  0.33796     3 1s    0.35038     4 1s    0.52857     5 1s   -0.53721
   32.1     0.00000     2.32775     1 2py  -0.52664     1 3d2+  0.39085     1 3d1-  0.51920     2 2py   0.53263     2 3d0   0.33967
                                    2 3d2+  0.45289     2 3d1-  0.54675     3 1s    0.52555     6 1s    0.59163
   33.1     0.00000     2.36135     1 3d0  -0.41998     1 3d2- -0.35045     1 3d1+  0.50376     2 3d0  -0.41566     2 3d2- -0.35074
                                    2 3d1+  0.50431
   34.1     0.00000     2.48268     1 1s   -0.37342     1 1s    1.26475     1 2px   0.80307     1 2py   0.28716     1 2pz  -0.36707
                                    1 3d2- -0.59214     1 3d1+ -0.26047     1 3d1- -0.37081     2 1s    0.37299     2 1s   -1.26429
                                    2 2px   0.80326     2 2py   0.28703     2 2pz  -0.36661     2 3d2-  0.59369     2 3d1+  0.25883
                                    2 3d1-  0.36947     3 1s   -0.48421     4 1s    0.40454     5 1s   -0.40458     6 1s    0.48448
   35.1     0.00000     2.79721     1 1s    0.35498     1 2px  -0.26040     1 3d0  -0.33239     1 3d2-  0.72677     1 3d2+  0.26019
                                    2 1s    0.34928     2 2px   0.26380     2 3d0  -0.33115     2 3d2-  0.72627     2 3d2+  0.25763
                                    4 1s   -0.70267     5 1s   -0.70141
   36.1     0.00000     2.86802     1 1s   -1.30124     1 2px  -0.80929     1 2pz   0.33184     1 3d0   0.28869     1 3d1+  0.52837
                                    1 3d2+ -0.70339     2 1s    1.30229     2 2px  -0.80848     2 2pz   0.33183     2 3d0  -0.28969
                                    2 3d1+ -0.52821     2 3d2+  0.70430     4 1s    0.25743     5 1s   -0.26018


 HOMO      8.1    -0.329322 =      -8.9613eV
 LUMO      9.1     0.086980 =       2.3669eV
 LUMO-HOMO         0.416302 =      11.3282eV


 **********************************************************************************************************************************
 DATASETS  * FILE   NREC   LENGTH (MB)   RECORD NAMES
              1      19       31.10       500      610      700      900      950      970     1000      129      960     1100   
                                          VAR    BASINP    GEOM    SYMINP    ZMAT    AOBASIS   BASIS     P2S    ABASIS      S 
                                         1400     1410     1200     1210     1080     1600     1650     1300     1700   
                                           T        V       H0       H01     AOSYM     SMH    MOLCAS    ERIS     OPER   

              2       4        2.86       700     1000      520     2100   
                                         GEOM     BASIS   MCVARS     RHF  

 PROGRAMS   *        TOTAL    HF-SCF       INT
 CPU TIMES  *         0.35      0.09      0.16
 REAL TIME  *         0.54 SEC
 DISK USED  *        35.97 MB
 **********************************************************************************************************************************


 PROGRAM * MULTI (Direct Multiconfiguration SCF)       Authors: P.J. Knowles, H.-J. Werner (1984)


 Number of closed-shell orbitals:   7 (   7 )
 Number of active  orbitals:        2 (   2 )
 Number of external orbitals:      27 (  27 )

 State symmetry 1

 Number of electrons:     2    Spin symmetry=Singlet   Space symmetry=1
 Number of states:        3
 Number of CSFs:          3   (4 determinants, 4 intermediate states)

 Molecular orbitals read from record     2100.2  Type=RHF/CANONICAL (state 1.1)

 Wavefunction dump at record             2140.2

 Convergence thresholds  0.10E-01 (gradient)  0.10E-05 (energy)  0.10E-02 (step length)

 Weight factors for state symmetry  1:    0.33333   0.33333   0.33333

 Number of orbital rotations:      257   (    14 Core/Active    189 Core/Virtual   0 Active/Active     54 Active/Virtual)
 Total number of variables:        269

 Micro-Iterations solved by the two-step solver

 ITER. MIC  NCI  NEG     ENERGY(VAR)     ENERGY(PROJ)   ENERGY CHANGE     GRAD(0)  GRAD(ORB)   GRAD(CI)     STEP       TIME

   1   13    6    0     -77.67894896     -77.68520162   -0.00625266    0.09226110 0.00026771 0.00000000  0.18D+00      0.35
   2   12    7    0     -77.68500744     -77.68547831   -0.00047087    0.02344681 0.00001286 0.00000000  0.59D-01      0.48
   3   11    6    0     -77.68550611     -77.68551557   -0.00000946    0.00286499 0.00000059 0.00000000  0.65D-02      0.60
   4    8    5    0     -77.68551559     -77.68551559   -0.00000000    0.00001932 0.00000000 0.00000000  0.31D-04      0.70
   5    3    3    0     -77.68551559     -77.68551559    0.00000000    0.00000000 0.00000000 0.00000000  0.18D-08      0.74

 ** WVFN ****  CONVERGENCE REACHED, FINAL GRADIENT:  0.12D-12



 Results for state 1.1
 =====================

 !MCSCF STATE  1.1 Energy             -77.899409435245
 Nuclear energy                        30.08737529
 Kinetic energy                        77.55202974
 One electron energy                 -163.26656262
 Two electron energy                   55.27977790
 Virial ratio                           2.00447931

 !MCSCF STATE  1.1 Dipole moment        0.08663182    -0.03298531    -0.01565777
 Dipole moment /Debye                   0.22018170    -0.08383481    -0.03979547

 Results for state 2.1
 =====================

 !MCSCF STATE  2.1 Energy             -77.637438554442
 Nuclear energy                        30.08737529
 Kinetic energy                        77.72918217
 One electron energy                 -163.10336461
 Two electron energy                   55.37855077
 Virial ratio                           1.99881970

 !MCSCF STATE  2.1 Dipole moment       -0.17275134     0.01456424     0.01635220
 Dipole moment /Debye                  -0.43906134     0.03701617     0.04156043

 Results for state 3.1
 =====================

 !MCSCF STATE  3.1 Energy             -77.519698789719
 Nuclear energy                        30.08737529
 Kinetic energy                        77.91897259
 One electron energy                 -162.97366602
 Two electron energy                   55.36659194
 Virial ratio                           1.99487578

 !MCSCF STATE  3.1 Dipole moment        0.11288258     0.00166241    -0.30749439
 Dipole moment /Debye                   0.28690011     0.00422514    -0.78152159

 State-averaged charge density matrix saved on record  2140.2 (density set 1)

 !MCSCF expec         <1.1|DMX|1.1>     0.086631820070 au =     0.220181701252 Debye
 !MCSCF trans         <2.1|DMX|1.1>    -1.186826923280 au =    -3.016415571669 Debye
 !MCSCF expec         <2.1|DMX|2.1>    -0.172751337610 au =    -0.439061344642 Debye
 !MCSCF trans         <3.1|DMX|1.1>     0.096658441120 au =     0.245665160781 Debye
 !MCSCF trans         <3.1|DMX|2.1>    -2.021873381737 au =    -5.138752949556 Debye
 !MCSCF expec         <3.1|DMX|3.1>     0.112882579115 au =     0.286900105426 Debye

 !MCSCF expec         <1.1|DMY|1.1>    -0.032985313253 au =    -0.083834812458 Debye
 !MCSCF trans         <2.1|DMY|1.1>     0.130921792578 au =     0.332748209580 Debye
 !MCSCF expec         <2.1|DMY|2.1>     0.014564235430 au =     0.037016169484 Debye
 !MCSCF trans         <3.1|DMY|1.1>    -0.021176846746 au =    -0.053822650154 Debye
 !MCSCF trans         <3.1|DMY|2.1>     0.224680458024 au =     0.571043358505 Debye
 !MCSCF expec         <3.1|DMY|3.1>     0.001662405785 au =     0.004225137295 Debye

 !MCSCF expec         <1.1|DMZ|1.1>    -0.015657766615 au =    -0.039795466473 Debye
 !MCSCF trans         <2.1|DMZ|1.1>     0.780154777218 au =     1.982825778682 Debye
 !MCSCF expec         <2.1|DMZ|2.1>     0.016352201052 au =     0.041560427149 Debye
 !MCSCF trans         <3.1|DMZ|1.1>     0.013359569030 au =     0.033954413456 Debye
 !MCSCF trans         <3.1|DMZ|2.1>     1.317054688505 au =     3.347399855211 Debye
 !MCSCF expec         <3.1|DMZ|3.1>    -0.307494388512 au =    -0.781521587954 Debye


 NATURAL ORBITALS (state averaged)
 =================================

  Orbital  Occupation    Energy     Coefficients
    1.1     2.00000   -11.27625     2 1s    0.99616
    2.1     2.00000   -11.26660     1 1s    0.99619
    3.1     2.00000    -0.96608     1 1s    0.28874     1 1s    0.26535     2 1s    0.29146     2 1s    0.26213
    4.1     2.00000    -0.83528     1 1s    0.25457     1 1s    0.27609     2 1s   -0.25500     2 1s   -0.26899
    5.1     2.00000    -0.59980     2 2py   0.35104
    6.1     2.00000    -0.59180     1 2px   0.29699     1 2py   0.29888
    7.1     2.00000    -0.43675     1 2px  -0.26341     2 2py  -0.25796
    8.1     1.00000    -0.04532     1 1s   -0.27332     1 2pz  -0.35614     1 2pz  -0.45379     2 2pz   0.41153     2 2pz   0.51626
    9.1     1.00000    -0.21100     1 2pz   0.26110     1 2pz   0.27587     2 2pz   0.28097     2 2pz   0.30600
   10.1    -0.00000     0.25019     1 1s   -1.51731     1 2px   0.42110     1 2py  -0.37230     1 2pz   0.33375     2 1s   -0.88542
                                    2 2px  -0.49815     2 2py   0.56223     3 1s    1.13856     4 1s    0.89477     5 1s    0.40653
                                    6 1s    1.15024
   11.1    -0.00000     0.25488     1 1s   -1.11772     1 2py   0.46359     2 1s    1.74542     2 2py   0.26608     2 2pz   0.25339
                                    4 1s    0.90767     5 1s   -1.29426     6 1s   -0.33177
   12.1    -0.00000     0.30495     1 1s    1.06977     1 2py   0.67243     2 1s   -0.93500     2 2py   0.72861     2 2pz  -0.27155
                                    3 1s   -1.48136     6 1s    1.49340
   13.1    -0.00000     0.34463     1 1s   -0.93070     1 2px   0.59135     1 2py   1.07284     2 1s   -0.94556     2 2px  -0.64591
                                    2 2py  -1.01117     3 1s   -0.67388     4 1s    1.85574     5 1s    1.85119     6 1s   -0.56401
   14.1    -0.00000     0.38725     1 1s   -0.38159     1 2px  -0.29724     1 2px  -1.66385     1 2py  -0.25288     1 2pz   0.57476
                                    2 1s    0.44746     2 2px  -0.28401     2 2px  -1.64876     2 2py  -0.25427     2 2pz   0.47932
                                    4 1s   -1.54369     5 1s    1.48257
   15.1    -0.00000     0.68761     1 2px  -0.27772     1 2py  -0.30877     1 2px   1.31363     1 2py   0.51331     1 2pz  -0.33604
                                    2 2px  -0.29679     2 2py  -0.31790     2 2px   1.34222     2 2py   0.55292     2 2pz  -0.35088
                                    4 1s    0.44659     4 1s    0.40915     5 1s   -0.45075     5 1s   -0.43023
   16.1    -0.00000     0.76321     1 1s    0.39039     1 2px   0.43851     1 2py  -0.41698     1 2px  -0.65707     1 2py   0.62698
                                    2 1s    0.29648     2 2px  -0.47902     2 2py   0.46548     2 2px   0.76582     2 2py  -0.70307
                                    3 1s   -0.25457     6 1s   -0.28093
   17.1    -0.00000     0.79981     1 1s    0.25172     1 2pz   0.68570     1 2pz  -0.56427     2 2pz   0.84773     2 2pz  -0.79560
   18.1    -0.00000     0.84229     1 1s    0.27295     1 1s   -0.37648     1 2px   0.27325     1 2pz   0.79051     1 2px  -0.37451
                                    1 2py   0.35709     1 2pz  -0.94967     2 1s   -0.25432     2 2pz  -0.63661     2 2pz   0.84710
   19.1    -0.00000     0.85066     1 1s   -0.31162     1 2px   0.50215     1 2py  -0.37707     1 2pz  -0.32970     1 2px  -1.03378
                                    1 2py   0.56059     1 2pz   0.38885     2 1s   -0.31248     2 1s    0.59195     2 2px   0.52955
                                    2 2py  -0.35624     2 2px  -0.98881     2 2py   0.60471     3 1s   -0.37804     6 1s    0.33613
   20.1    -0.00000     0.97671     1 1s   -0.88800     1 1s    1.14351     1 2px  -0.36163     1 2py   0.67960     1 2pz  -0.38770
                                    2 1s   -0.88599     2 1s    1.17339     2 2px   0.34935     2 2py  -0.68811     2 2pz   0.42340
                                    3 1s   -0.33693     3 1s   -0.46501     4 1s   -0.26914     5 1s   -0.29413     6 1s   -0.36089
                                    6 1s   -0.46852
   21.1    -0.00000     1.00507     1 1s    0.27963     1 1s   -1.41524     1 2px  -0.31856     1 2py  -0.51603     1 2px   1.29471
                                    1 2py   1.57647     2 1s   -1.35135     2 2px   0.32234     2 2py   0.53123     2 2px  -1.27955
                                    2 2py  -1.59886     3 1s   -0.35827     4 1s    0.38993     4 1s    1.35404     5 1s    0.37544
                                    5 1s    1.35408     6 1s   -0.42286
   22.1    -0.00000     1.11959     1 2py  -0.41710     1 2py   0.75871     2 1s    0.43873     2 1s   -0.84998     2 2py  -0.61343
                                    2 2px  -0.58635     2 2py   0.71907     3 1s    0.43856     3 1s   -0.94262     6 1s   -0.88927
                                    6 1s    1.58944
   23.1    -0.00000     1.12885     1 1s   -0.61287     1 1s    1.36975     1 2px   0.25072     1 2py  -0.48890     1 2px  -0.63177
                                    1 2py   0.27479     2 1s   -0.39996     2 1s    1.01387     2 2px   0.36752     3 1s    0.89900
                                    3 1s   -1.40099     4 1s   -0.25689     5 1s   -0.30362     6 1s    0.43770     6 1s   -0.52048
   24.1    -0.00000     1.21339     1 1s    0.95133     1 1s   -2.65965     1 2px   0.42522     1 2py   0.30685     1 2px  -1.48454
                                    1 2py  -0.57009     1 2pz   0.64463     2 1s   -0.90373     2 1s    2.60177     2 2px   0.41745
                                    2 2py   0.31006     2 2px  -1.47547     2 2py  -0.54740     2 2pz   0.65964     3 1s    0.29070
                                    3 1s    0.43441     4 1s    0.46964     4 1s   -0.67008     5 1s   -0.48960     5 1s    0.69174
                                    6 1s   -0.28762     6 1s   -0.41801
   25.1    -0.00000     1.26523     1 1s   -0.84113     1 1s    1.29048     1 2px   0.30468     1 2py   0.25628     1 2px  -0.48754
                                    2 1s   -1.04204     2 1s    1.75294     2 2px  -0.34686     2 2py  -0.25390     2 2px   0.47404
                                    4 1s    0.67519     4 1s   -1.16510     5 1s    0.71826     5 1s   -1.31110     6 1s   -0.27764
   26.1    -0.00000     1.28981     1 1s   -1.31629     1 1s    2.87956     1 2px   0.38343     1 2pz  -0.30301     2 1s    1.20360
                                    2 1s   -2.70786     2 2px   0.34670     2 2pz  -0.31196     3 1s   -0.32532     4 1s    0.52630
                                    4 1s   -1.32785     5 1s   -0.42834     5 1s    1.17132     6 1s    0.31696
   27.1    -0.00000     1.72418     1 1s    0.33050     1 3d0  -0.27486     1 3d1+  0.46371     2 1s   -0.31288     2 3d0   0.27318
                                    2 3d2-  0.25743     2 3d1+ -0.47624     2 3d2+ -0.25324
   28.1    -0.00000     1.94136     1 3d1-  0.53471     2 3d2+  0.30469     2 3d1- -0.60359
   29.1    -0.00000     1.96616     1 2px  -0.25449     1 2px   0.39046     1 2py   0.30079     1 3d2+  0.47632     1 3d1- -0.43845
                                    2 1s   -0.25169     2 2px  -0.41785     2 2py  -0.30841     2 3d2+  0.43920     2 3d1- -0.36478
                                    4 1s    0.31535     5 1s    0.31830
   30.1    -0.00000     2.02187     1 1s    0.29422     1 1s   -0.51216     1 3d0   0.43941     1 3d1+  0.44760     1 3d1- -0.27750
                                    2 1s    0.29978     2 1s   -0.54792     2 3d0   0.45528     2 3d1+  0.43083
   31.1    -0.00000     2.31876     1 1s   -0.40988     1 2py   0.27989     1 3d0   0.39455     2 1s    0.60258     2 2py  -0.33037
                                    2 3d0  -0.60022     2 3d2-  0.30896     2 3d2+ -0.47393     2 3d1- -0.41554     4 1s    0.46214
                                    5 1s   -0.42283     6 1s   -0.55008
   32.1    -0.00000     2.32252     1 1s   -0.42936     1 2py  -0.44814     1 3d0   0.57145     1 3d2+  0.48890     1 3d1-  0.50330
                                    2 2py   0.43201     2 3d1-  0.38459     3 1s    0.61520     4 1s    0.26886     5 1s   -0.33638
                                    6 1s    0.32755
   33.1    -0.00000     2.35245     1 3d0  -0.35124     1 3d2- -0.37814     1 3d1+  0.51207     2 3d0  -0.48828     2 3d2- -0.31628
                                    2 3d1+  0.48831
   34.1    -0.00000     2.47527     1 1s   -0.37705     1 1s    1.27608     1 2px   0.79966     1 2py   0.29713     1 2pz  -0.36633
                                    1 3d2- -0.58791     1 3d1+ -0.25007     1 3d1- -0.38470     2 1s    0.37401     2 1s   -1.25726
                                    2 2px   0.80441     2 2py   0.27430     2 2pz  -0.36714     2 3d2-  0.59788     2 3d1+  0.26676
                                    2 3d1-  0.35396     3 1s   -0.49677     4 1s    0.39688     5 1s   -0.41825     6 1s    0.47100
   35.1    -0.00000     2.79085     1 1s    0.25152     1 2px  -0.32511     1 3d0  -0.31230     1 3d2-  0.73034     2 1s    0.45183
                                    2 3d0  -0.35064     2 3d2-  0.71976     2 3d2+  0.30104     4 1s   -0.69339     5 1s   -0.71325
   36.1    -0.00000     2.86222     1 1s   -1.32936     1 2px  -0.79528     1 2pz   0.33038     1 3d0   0.31295     1 3d1+  0.51792
                                    1 3d2+ -0.72166     2 1s    1.28232     2 2px  -0.82803     2 2pz   0.33678     2 3d0  -0.26470
                                    2 3d1+ -0.53858     2 3d2+  0.68251     4 1s    0.30346


 Natural orbital dump (state averaged) at molpro section  2140.2    (Orbital set 2)



 **********************************************************************************************************************************
 DATASETS  * FILE   NREC   LENGTH (MB)   RECORD NAMES
              1      20       31.83       500      610      700      900      950      970     1000      129      960     1100   
                                          VAR    BASINP    GEOM    SYMINP    ZMAT    AOBASIS   BASIS     P2S    ABASIS      S 
                                         1400     1410     1200     1210     1080     1600     1650     1300     1700     1380   
                                           T        V       H0       H01     AOSYM     SMH    MOLCAS    ERIS     OPER     JKOP   

              2       5        5.42       700     1000      520     2100     2140   
                                         GEOM     BASIS   MCVARS     RHF     MCSCF   

 PROGRAMS   *        TOTAL     MULTI    HF-SCF       INT
 CPU TIMES  *         1.13      0.78      0.09      0.16
 REAL TIME  *         1.37 SEC
 DISK USED  *        39.02 MB
 **********************************************************************************************************************************
 Molecular orbitals read from record     2140.2  Type=MCSCF/NATURAL (state averaged)
 Occupation numbers read from record     2140.2  Type=MCSCF/NATURAL (state averaged)
 Orbital energies read from record       2140.2  Type=MCSCF/NATURAL (state averaged)
 Redundancy group numbers read from rec  2140.2  Type=MCSCF/NATURAL (state averaged)

 MULTI/6-31G* energy=    -77.519698789719

           MULTI          HF-SCF
    -77.51969879    -77.88131012
 **********************************************************************************************************************************
 Molpro calculation terminated
