
 Primary working directories    : /scratch.local/johan406.molpro_temp/molpro.efMcxihsAB
 Secondary working directories  : /scratch.local/johan406.molpro_temp/molpro.efMcxihsAB
 Wavefunction directory         : /home/goodpast/johan406/wfu/
 Main file repository           : /scratch.local/johan406.molpro_temp/molpro.efMcxihsAB/

 id        : roweumn

 Nodes     nprocs
 acn06        1

 Using customized tuning parameters: mindgm=1; mindgv=20; mindgc=4; mindgr=1; noblas=0; minvec=7
 default implementation of scratch files=df  


 Variables initialized (934), CPU time= 0.01 sec
                                                                                 !leave this line blank
 
 gprint, orbitals=30
 memory, 125., m
 symmetry, nosym
 nelect=16
 basis=6-31g*
 
 geometry={
 C -0.732 0.037 0.280
 C 0.741 -0.087 -0.340
 H -1.140 1.111 -0.046
 H -1.601 -0.593 0.232
 H 1.610 0.543 -0.293
 H 1.149 -1.161 -0.015
 }
 
 hf
 {multi,
 closed 7
 occ 9
 wf,spin=0;STATE,3
 }
 
 Commands  initialized (763), CPU time= 0.01 sec, 617 directives.
 Default parameters read. Elapsed time= 0.07 sec

 Checking input...
 Passed
1


                                         ***  PROGRAM SYSTEM MOLPRO  ***
                                       Copyright, TTI GmbH Stuttgart, 2015
                                    Version 2019.2 linked Oct 25 2019 22:50:27


 **********************************************************************************************************************************
 LABEL *                                                                                 
  64 bit serial version                                                                  DATE: 15-Mar-23          TIME: 16:28:44  
 **********************************************************************************************************************************

 SHA1:             8dbd9ae1082e4ce945b0f27595c9eb2d4aa09004
 **********************************************************************************************************************************


 Variable memory set to  125000000 words,  buffer space 

 SETTING NELECT         =        16.00000000                                  
 SETTING BASIS          =    6-31G*
 ZSYMEL=NOSYM


Geometry recognized as XYZ



 Recomputing integrals since basis changed


 Using spherical harmonics

 Library entry C      S 6-31G                selected for orbital group  1
 Library entry C      P 6-31G                selected for orbital group  1
 Library entry C      D 6-31G*               selected for orbital group  1
 Library entry H      S 6-31G                selected for orbital group  2


 PROGRAM * SEWARD (Integral evaluation for generally contracted gaussian basis sets)     Author: Roland Lindh, 1990

 Geometry written to block  1 of record 700


 Point group  C1  



 ATOMIC COORDINATES

 NR  ATOM    CHARGE       X              Y              Z

   1  C       6.00   -1.383279523    0.069919867    0.529123315
   2  C       6.00    1.400287058   -0.164406173   -0.642506882
   3  H       1.00   -2.154287782    2.099485724   -0.086927402
   4  H       1.00   -3.025451525   -1.120607592    0.438416461
   5  H       1.00    3.042459061    1.026121286   -0.553689754
   6  H       1.00    2.171295317   -2.193972031   -0.028345892

 Bond lengths in Bohr (Angstrom)

 1-2  3.029169676  1-3  2.256791925  1-4  2.030347814  2-5  2.030264268  2-6  2.256276807
     ( 1.602967560)     ( 1.194242856)     ( 1.074413794)     ( 1.074369583)     ( 1.193970268)

 Bond angles

  1-2-5  132.92059579   1-2-6  106.15948184   2-1-3  106.13637388   2-1-4  132.89024449

  3-1-4  103.81632832   5-2-6  103.83728292

 NUCLEAR CHARGE:                   16
 NUMBER OF PRIMITIVE AOS:          72
 NUMBER OF SYMMETRY AOS:           70
 NUMBER OF CONTRACTIONS:           36   (   36A   )
 NUMBER OF CORE ORBITALS:           2   (    2A   )
 NUMBER OF VALENCE ORBITALS:       12   (   12A   )


 NUCLEAR REPULSION ENERGY   29.79874431

 Eigenvalues of metric

         1 0.165E-01 0.279E-01 0.485E-01 0.600E-01 0.928E-01 0.245E+00 0.246E+00 0.302E+00


 Contracted 2-electron integrals neglected if value below      1.0D-11
 AO integral compression algorithm  1   Integral accuracy      1.0D-11

     1.311 MB (compressed) written to integral file ( 67.1%)


 NUMBER OF SORTED TWO-ELECTRON INTEGRALS:     222111.     BUFFER LENGTH:  32768
 NUMBER OF SEGMENTS:   1  SEGMENT LENGTH:     222111      RECORD LENGTH: 524288

 Memory used in sort:       0.78 MW

 SORT1 READ      284735. AND WROTE      212515. INTEGRALS IN      1 RECORDS. CPU TIME:     0.00 SEC, REAL TIME:     0.00 SEC
 SORT2 READ      212515. AND WROTE      222111. INTEGRALS IN      5 RECORDS. CPU TIME:     0.02 SEC, REAL TIME:     0.03 SEC

 FILE SIZES:   FILE 1:    31.4 MBYTE,  FILE 4:     4.2 MBYTE,   TOTAL:     35.6 MBYTE

 OPERATOR DM      FOR CENTER  0  COORDINATES:    0.000000    0.000000    0.000000


 **********************************************************************************************************************************
 DATASETS  * FILE   NREC   LENGTH (MB)   RECORD NAMES
              1      19       31.10       500      610      700      900      950      970     1000      129      960     1100   
                                          VAR    BASINP    GEOM    SYMINP    ZMAT    AOBASIS   BASIS     P2S    ABASIS      S 
                                         1400     1410     1200     1210     1080     1600     1650     1300     1700   
                                           T        V       H0       H01     AOSYM     SMH    MOLCAS    ERIS     OPER   

 PROGRAMS   *        TOTAL       INT
 CPU TIMES  *         0.28      0.18
 REAL TIME  *         0.42 SEC
 DISK USED  *        35.97 MB
 **********************************************************************************************************************************


 PROGRAM * RHF-SCF (CLOSED SHELL)       Authors: W. Meyer, H.-J. Werner


 NUMBER OF ELECTRONS:       8+    8-    SPACE SYMMETRY=1    SPIN SYMMETRY: Singlet 
 CONVERGENCE THRESHOLDS:    1.00E-05 (Density)    1.00E-07 (Energy)
 MAX. NUMBER OF ITERATIONS:       60
 INTERPOLATION TYPE:            DIIS
 INTERPOLATION STEPS:              2 (START)      1 (STEP)
 LEVEL SHIFTS:                  0.00 (CLOSED)  0.00 (OPEN) 



 Orbital guess generated from atomic densities. Full valence occupancy:    8

 Molecular orbital dump at record        2100.2

 Initial occupancy:   8

 ITERATION    DDIFF          GRAD             ENERGY        2-EL.EN.            DIPOLE MOMENTS         DIIS   ORB.
    1      0.000D+00      0.000D+00       -77.88707673    110.666656    0.00041   -0.00008   -0.00080    0    start
    2      0.000D+00      0.654D-02       -77.90510639    110.033146    0.00047   -0.00022   -0.00066    1    diag
    3      0.671D-02      0.216D-02       -77.90749088    110.344465    0.00066   -0.00025   -0.00083    2    diag
    4      0.310D-02      0.789D-03       -77.90795059    110.224249    0.00060   -0.00028   -0.00074    3    diag
    5      0.141D-02      0.347D-03       -77.90812301    110.235743    0.00077   -0.00028   -0.00087    4    diag
    6      0.118D-02      0.102D-03       -77.90813899    110.233315    0.00056   -0.00030   -0.00068    5    diag
    7      0.340D-03      0.225D-04       -77.90813969    110.233894    0.00087   -0.00027   -0.00096    6    diag
    8      0.592D-04      0.673D-05       -77.90813973    110.233935    0.00054   -0.00030   -0.00066    7    diag
    9      0.122D-04      0.408D-05       -77.90813974    110.233941    0.00071   -0.00029   -0.00081    8    diag
   10      0.640D-05      0.920D-06       -77.90813974    110.233946    0.00069   -0.00029   -0.00079    0    orth

 Final occupancy:   8

 !RHF STATE  1.1 Energy               -77.908139736546
 Nuclear energy                        29.79874431
 One-electron energy                 -162.82385696
 Two-electron energy                   55.11697291
 Virial quotient                       -1.00822723
 !RHF STATE  1.1 Dipole moment          0.00068779    -0.00028794    -0.00079378
 Dipole moment /Debye                   0.00174808    -0.00073181    -0.00201746

 ELECTRON ORBITALS
 =================

  Orbital  Occupation    Energy     Coefficients
    1.1     2.00000   -11.28366     1 1s    0.67234     2 1s    0.73525
    2.1     2.00000   -11.28317     1 1s    0.73532     2 1s   -0.67242
    3.1     2.00000    -0.96358     1 1s    0.29029     1 1s    0.27178     2 1s    0.29045     2 1s    0.27187
    4.1     2.00000    -0.81569     1 1s    0.25728     2 1s   -0.25713
    5.1     2.00000    -0.57594     1 2py   0.30462     2 2py   0.30774
    6.1     2.00000    -0.57357     1 2px   0.34703     2 2px  -0.34607
    7.1     2.00000    -0.45957     1 2py   0.28596     2 2py  -0.28562
    8.1     2.00000    -0.33978     1 2pz   0.32081     1 2pz   0.31358     2 2pz   0.32065     2 2pz   0.31348
    9.1     0.00000     0.08987     1 1s   -0.28884     1 2pz  -0.35267     1 2pz  -0.52409     2 1s   -0.28826     2 2pz   0.35284
                                    2 2pz   0.52439
   10.1     0.00000     0.25574     1 1s   -1.02335     1 2px   0.57916     1 2py  -0.42612     1 2pz   0.28289     2 1s   -1.44210
                                    2 2px  -0.59839     2 2py   0.33277     2 2pz  -0.34804     3 1s    1.06465     4 1s    0.61894
                                    5 1s    0.97247     6 1s    1.12256
   11.1     0.00000     0.25587     1 1s    1.62008     1 2py  -0.26315     1 2pz  -0.27366     2 1s   -1.26126     2 2py  -0.37405
                                    3 1s   -0.36159     4 1s   -1.32835     5 1s    1.09690
   12.1     0.00000     0.28520     1 1s    0.78407     1 2py   0.65042     2 1s   -0.78621     2 2py   0.65079     3 1s   -1.33305
                                    6 1s    1.33449
   13.1     0.00000     0.34049     1 1s   -0.64389     1 2px   0.48764     1 2py   1.07304     2 1s   -0.64231     2 2px  -0.48812
                                    2 2py  -1.07346     3 1s   -0.72654     4 1s    1.58447     5 1s    1.58461     6 1s   -0.72780
   14.1     0.00000     0.40957     1 1s    0.96265     1 2px   0.29268     1 2px   1.79995     1 2pz  -0.60977     2 1s   -0.96219
                                    2 2px   0.29260     2 2px   1.79995     2 2pz  -0.61042     4 1s    1.13255     5 1s   -1.13289
   15.1     0.00000     0.70707     1 2py  -0.36847     1 2px   1.04221     1 2py   0.48061     1 2pz  -0.30509     2 2py  -0.36858
                                    2 2px   1.04179     2 2py   0.48118     2 2pz  -0.30549     4 1s    0.44628     5 1s   -0.44634
   16.1     0.00000     0.76936     1 2px   0.53295     1 2py  -0.37624     1 2px  -0.80358     1 2py   0.53445     2 2px  -0.53331
                                    2 2py   0.37602     2 2px   0.80533     2 2py  -0.53440
   17.1     0.00000     0.80432     1 2pz   0.76808     1 2pz  -0.62925     2 2pz   0.76891     2 2pz  -0.63008
   18.1     0.00000     0.84587     1 1s    0.30164     1 1s   -0.38093     1 2pz   0.75017     1 2pz  -0.89456     2 1s    0.30189
                                    2 1s   -0.38232     2 2pz  -0.74922     2 2pz   0.89363
   19.1     0.00000     0.85624     1 1s    0.60348     1 2px  -0.57933     1 2py   0.31811     1 2px   1.28203     1 2py  -0.47136
                                    2 1s   -0.60016     2 2px  -0.57871     2 2py   0.31798     2 2px   1.28239     2 2py  -0.47168
                                    3 1s    0.38220     6 1s   -0.38289
   20.1     0.00000     0.97116     1 1s   -0.55292     1 1s    0.37309     1 2px  -0.33934     1 2py  -0.57968     1 2px   0.52614
                                    1 2py   1.55594     1 2pz  -0.26220     2 1s   -0.55346     2 1s    0.37503     2 2px   0.34008
                                    2 2py   0.57908     2 2px  -0.52869     2 2py  -1.55556     2 2pz   0.26272     3 1s   -0.57673
                                    4 1s    0.67070     5 1s    0.67149     6 1s   -0.57639
   21.1     0.00000     1.03588     1 1s    0.72652     1 1s   -1.72905     1 2py  -0.26860     1 2px   1.11400     1 2py   0.82812
                                    1 2pz   0.46904     2 1s    0.72911     2 1s   -1.73465     2 2py   0.26886     2 2px  -1.11119
                                    2 2py  -0.82847     2 2pz  -0.46909     3 1s    0.35717     4 1s    0.48840     4 1s    0.94373
                                    5 1s    0.48857     5 1s    0.94371     6 1s    0.35727
   22.1     0.00000     1.09559     1 1s   -0.28839     1 1s    0.49832     1 2py  -0.57407     1 2px  -0.31341     1 2py   0.82289
                                    2 1s    0.28254     2 1s   -0.48511     2 2py  -0.56985     2 2px  -0.30744     2 2py   0.82305
                                    3 1s    0.66500     3 1s   -1.32273     4 1s    0.25381     5 1s   -0.25459     6 1s   -0.65377
                                    6 1s    1.30838
   23.1     0.00000     1.10267     1 1s   -0.40853     1 1s    0.90428     1 2py  -0.31326     1 2px  -0.38349     2 1s   -0.41284
                                    2 1s    0.91155     2 2py   0.32212     2 2px   0.38807     3 1s    0.72573     3 1s   -0.98174
                                    4 1s   -0.29690     5 1s   -0.29836     6 1s    0.73549     6 1s   -1.00135
   24.1     0.00000     1.18887     1 1s   -0.27142     1 2px   0.56014     1 2py   0.28776     1 2px  -1.14643     1 2py  -0.40054
                                    1 2pz   0.26357     2 1s    0.26870     2 2px   0.56040     2 2py   0.28789     2 2px  -1.14773
                                    2 2py  -0.40148     2 2pz   0.26362     4 1s    0.67184     4 1s   -1.21865     5 1s   -0.67159
                                    5 1s    1.22019
   25.1     0.00000     1.19831     1 1s   -0.95727     1 1s    1.52387     1 2px   0.31943     1 2px  -0.48735     2 1s   -0.95701
                                    2 1s    1.52343     2 2px  -0.31922     2 2px   0.48680     3 1s   -0.34235     4 1s    0.67113
                                    4 1s   -1.16568     5 1s    0.67087     5 1s   -1.16476     6 1s   -0.34264
   26.1     0.00000     1.26532     1 1s   -1.56654     1 1s    3.84628     1 2px   0.81475     1 2pz  -0.63614     2 1s    1.56515
                                    2 1s   -3.84327     2 2px   0.81658     2 2pz  -0.63451     3 1s   -0.40844     4 1s   -0.57098
                                    5 1s    0.56923     6 1s    0.40863
   27.1     0.00000     1.75009     1 1s    0.56311     1 3d1+  0.47583     1 3d2+  0.26906     2 1s   -0.56185     2 3d1+ -0.47583
                                    2 3d2+ -0.26897
   28.1     0.00000     1.93195     1 3d2+  0.26118     1 3d1- -0.56418     2 3d2+ -0.26058     2 3d1-  0.56500
   29.1     0.00000     2.00286     1 1s   -0.38596     1 2px   0.43368     1 2py   0.35720     1 3d0   0.26195     1 3d2+  0.42734
                                    1 3d1- -0.47039     2 1s   -0.38419     2 2px  -0.43479     2 2py  -0.35738     2 3d0   0.26146
                                    2 3d2+  0.42725     2 3d1- -0.47052     4 1s    0.34531     5 1s    0.34548
   30.1     0.00000     2.04197     1 1s    0.42695     1 1s   -0.40660     1 2px   0.25442     1 3d0   0.38733     1 3d1+  0.48159
                                    2 1s    0.42665     2 1s   -0.40584     2 2px  -0.25441     2 3d0   0.38633     2 3d1+  0.48152
   31.1     0.00000     2.23909     1 2py  -0.53149     1 3d2+  0.45350     1 3d1-  0.53875     2 2py   0.53172     2 3d2+  0.45217
                                    2 3d1-  0.53793     3 1s    0.46242     6 1s    0.46106
   32.1     0.00000     2.28122     1 1s    0.66992     1 3d0  -0.62108     1 3d2-  0.28632     1 3d2+ -0.25106     2 1s   -0.67209
                                    2 3d0   0.62302     2 3d2- -0.28663     2 3d2+  0.25421     4 1s   -0.46679     5 1s    0.46688
                                    6 1s    0.25011
   33.1     0.00000     2.42845     1 3d0  -0.48977     1 3d2- -0.34847     1 3d1+  0.50515     2 3d0  -0.48476     2 3d2- -0.32991
                                    2 3d1+  0.51086
   34.1     0.00000     2.43862     1 1s   -0.27936     1 1s    0.99573     1 2px   0.55116     1 2pz  -0.26417     1 3d2- -0.58649
                                    1 3d1- -0.38859     2 1s    0.27838     2 1s   -0.99560     2 2px   0.55201     2 2pz  -0.25904
                                    2 3d2-  0.59735     2 3d1-  0.38813     3 1s   -0.45974     4 1s    0.36637     5 1s   -0.36598
                                    6 1s    0.46537
   35.1     0.00000     2.76133     1 1s    0.27000     1 3d0  -0.29591     1 3d2-  0.72263     1 3d2+  0.26612     2 1s    0.26563
                                    2 3d0  -0.29521     2 3d2-  0.72283     2 3d2+  0.26470     4 1s   -0.58838     5 1s   -0.58811
   36.1     0.00000     2.88109     1 1s   -1.50106     1 2px  -0.92756     1 2pz   0.37692     1 3d0   0.27747     1 3d1+  0.57222
                                    1 3d2+ -0.70920     2 1s    1.50134     2 2px  -0.92727     2 2pz   0.37695     2 3d0  -0.27794
                                    2 3d1+ -0.57209     2 3d2+  0.70968


 HOMO      8.1    -0.339781 =      -9.2459eV
 LUMO      9.1     0.089872 =       2.4455eV
 LUMO-HOMO         0.429653 =      11.6914eV


 **********************************************************************************************************************************
 DATASETS  * FILE   NREC   LENGTH (MB)   RECORD NAMES
              1      19       31.10       500      610      700      900      950      970     1000      129      960     1100   
                                          VAR    BASINP    GEOM    SYMINP    ZMAT    AOBASIS   BASIS     P2S    ABASIS      S 
                                         1400     1410     1200     1210     1080     1600     1650     1300     1700   
                                           T        V       H0       H01     AOSYM     SMH    MOLCAS    ERIS     OPER   

              2       4        2.86       700     1000      520     2100   
                                         GEOM     BASIS   MCVARS     RHF  

 PROGRAMS   *        TOTAL    HF-SCF       INT
 CPU TIMES  *         0.38      0.10      0.18
 REAL TIME  *         0.64 SEC
 DISK USED  *        35.97 MB
 **********************************************************************************************************************************


 PROGRAM * MULTI (Direct Multiconfiguration SCF)       Authors: P.J. Knowles, H.-J. Werner (1984)


 Number of closed-shell orbitals:   7 (   7 )
 Number of active  orbitals:        2 (   2 )
 Number of external orbitals:      27 (  27 )

 State symmetry 1

 Number of electrons:     2    Spin symmetry=Singlet   Space symmetry=1
 Number of states:        3
 Number of CSFs:          3   (4 determinants, 4 intermediate states)

 Molecular orbitals read from record     2100.2  Type=RHF/CANONICAL (state 1.1)

 Wavefunction dump at record             2140.2

 Convergence thresholds  0.10E-01 (gradient)  0.10E-05 (energy)  0.10E-02 (step length)

 Weight factors for state symmetry  1:    0.33333   0.33333   0.33333

 Number of orbital rotations:      257   (    14 Core/Active    189 Core/Virtual   0 Active/Active     54 Active/Virtual)
 Total number of variables:        269

 Micro-Iterations solved by the two-step solver

 ITER. MIC  NCI  NEG     ENERGY(VAR)     ENERGY(PROJ)   ENERGY CHANGE     GRAD(0)  GRAD(ORB)   GRAD(CI)     STEP       TIME

   1   11    6    0     -77.69563862     -77.70110287   -0.00546425    0.09762530 0.00030532 0.00000000  0.11D+00      0.15
   2   12    6    0     -77.70093706     -77.70102975   -0.00009269    0.00859674 0.00000788 0.00000000  0.33D-01      0.29
   3   12    6    0     -77.70103327     -77.70103450   -0.00000123    0.00076266 0.00000002 0.00000000  0.40D-02      0.45
   4    7    5    0     -77.70103450     -77.70103450   -0.00000000    0.00000644 0.00000000 0.00000000  0.15D-04      0.55

 ** WVFN ****  CONVERGENCE REACHED, FINAL GRADIENT:  0.10D-09



 Results for state 1.1
 =====================

 !MCSCF STATE  1.1 Energy             -77.938692751638
 Nuclear energy                        29.79874431
 Kinetic energy                        77.31159616
 One electron energy                 -162.77890268
 Two electron energy                   55.04146562
 Virial ratio                           2.00811129

 !MCSCF STATE  1.1 Dipole moment        0.00099226    -0.00043187    -0.00074175
 Dipole moment /Debye                   0.00252190    -0.00109764    -0.00188521

 Results for state 2.1
 =====================

 !MCSCF STATE  2.1 Energy             -77.631807882219
 Nuclear energy                        29.79874431
 Kinetic energy                        77.47239946
 One electron energy                 -162.59115293
 Two electron energy                   55.16060074
 Virial ratio                           2.00205762

 !MCSCF STATE  2.1 Dipole moment        0.00121466    -0.00024027    -0.00177909
 Dipole moment /Debye                   0.00308716    -0.00061067    -0.00452171

 Results for state 3.1
 =====================

 !MCSCF STATE  3.1 Energy             -77.532602865176
 Nuclear energy                        29.79874431
 Kinetic energy                        77.63320188
 One electron energy                 -162.40340199
 Two electron energy                   55.07205482
 Virial ratio                           1.99870418

 !MCSCF STATE  3.1 Dipole moment       -0.00131633     0.00024975    -0.00099348
 Dipole moment /Debye                  -0.00334556     0.00063475    -0.00252500

 State-averaged charge density matrix saved on record  2140.2 (density set 1)

 !MCSCF expec         <1.1|DMX|1.1>     0.000992256844 au =     0.002521900150 Debye
 !MCSCF trans         <2.1|DMX|1.1>    -1.215604567277 au =    -3.089556256099 Debye
 !MCSCF expec         <2.1|DMX|2.1>     0.001214662859 au =     0.003087162830 Debye
 !MCSCF trans         <3.1|DMX|1.1>     0.000247389058 au =     0.000628759083 Debye
 !MCSCF trans         <3.1|DMX|2.1>    -2.333774774481 au =    -5.931475291326 Debye
 !MCSCF expec         <3.1|DMX|3.1>    -0.001316330595 au =    -0.003345559514 Debye

 !MCSCF expec         <1.1|DMY|1.1>    -0.000431874603 au =    -0.001097643852 Debye
 !MCSCF trans         <2.1|DMY|1.1>     0.131746558042 au =     0.334844416988 Debye
 !MCSCF expec         <2.1|DMY|2.1>    -0.000240270097 au =    -0.000610665674 Debye
 !MCSCF trans         <3.1|DMY|1.1>    -0.000177697189 au =    -0.000451631622 Debye
 !MCSCF trans         <3.1|DMY|2.1>     0.252933134062 au =     0.642849794869 Debye
 !MCSCF expec         <3.1|DMY|3.1>     0.000249746244 au =     0.000634750059 Debye

 !MCSCF expec         <1.1|DMZ|1.1>    -0.000741746956 au =    -0.001885209230 Debye
 !MCSCF trans         <2.1|DMZ|1.1>     0.804825089075 au =     2.045527349890 Debye
 !MCSCF expec         <2.1|DMZ|2.1>    -0.001779094253 au =    -0.004521710372 Debye
 !MCSCF trans         <3.1|DMZ|1.1>     0.000458819841 au =     0.001166127331 Debye
 !MCSCF trans         <3.1|DMZ|2.1>     1.545141438087 au =     3.927100576213 Debye
 !MCSCF expec         <3.1|DMZ|3.1>    -0.000993475846 au =    -0.002524998341 Debye


 NATURAL ORBITALS (state averaged)
 =================================

  Orbital  Occupation    Energy     Coefficients
    1.1     2.00000   -11.28651     1 1s    0.70302     2 1s    0.70596
    2.1     2.00000   -11.28614     1 1s    0.70599     2 1s   -0.70305
    3.1     2.00000    -0.96636     1 1s    0.29525     1 1s    0.27317     2 1s    0.29527     2 1s    0.27306
    4.1     2.00000    -0.81830     1 1s    0.28680     2 1s   -0.28669
    5.1     2.00000    -0.58178     1 2py   0.30717     2 2py   0.30932
    6.1     2.00000    -0.57744     1 2px   0.35016     2 2px  -0.34918
    7.1     2.00000    -0.46385     1 2py   0.28758     2 2py  -0.28755
    8.1     1.00000    -0.04204     1 2pz  -0.38031     1 2pz  -0.50372     2 2pz   0.37995     2 2pz   0.50352
    9.1     1.00000    -0.20842     1 2pz   0.29666     1 2pz   0.31106     2 2pz   0.29785     2 2pz   0.31279
   10.1    -0.00000     0.25076     1 1s    1.41860     1 2py  -0.35565     2 1s   -1.42204     2 2py  -0.35490     4 1s   -1.20185
                                    5 1s    1.20403
   11.1    -0.00000     0.25355     1 1s   -1.24041     1 2px   0.59072     1 2py  -0.40588     1 2pz   0.30783     2 1s   -1.23525
                                    2 2px  -0.59099     2 2py   0.40551     2 2pz  -0.30609     3 1s    1.12172     4 1s    0.77618
                                    5 1s    0.77373     6 1s    1.11895
   12.1    -0.00000     0.27986     1 1s    0.87579     1 2py   0.63021     2 1s   -0.87912     2 2py   0.63116     3 1s   -1.33963
                                    6 1s    1.34245
   13.1    -0.00000     0.33892     1 1s   -0.67624     1 2px   0.50095     1 2py   1.06029     2 1s   -0.67514     2 2px  -0.50095
                                    2 2py  -1.06068     3 1s   -0.69982     4 1s    1.60166     5 1s    1.60153     6 1s   -0.70095
   14.1    -0.00000     0.40185     1 1s    0.89175     1 2px   0.30160     1 2px   1.77273     1 2pz  -0.59576     2 1s   -0.89143
                                    2 2px   0.30150     2 2px   1.77296     2 2pz  -0.59548     4 1s    1.16112     5 1s   -1.16190
   15.1    -0.00000     0.70375     1 1s    0.25271     1 2py  -0.38402     1 2px   1.03132     1 2py   0.49339     1 2pz  -0.28950
                                    2 1s   -0.25266     2 2py  -0.38418     2 2px   1.03089     2 2py   0.49396     2 2pz  -0.28980
                                    4 1s    0.44176     5 1s   -0.44176
   16.1    -0.00000     0.76135     1 2px   0.53238     1 2py  -0.36554     1 2px  -0.78997     1 2py   0.51038     2 2px  -0.53279
                                    2 2py   0.36541     2 2px   0.79206     2 2py  -0.51046
   17.1    -0.00000     0.79800     1 2pz   0.77801     1 2pz  -0.64709     2 2pz   0.77934     2 2pz  -0.64876
   18.1    -0.00000     0.83801     1 1s    0.28263     1 1s   -0.34448     1 2pz   0.74295     1 2pz  -0.91814     2 1s    0.28235
                                    2 1s   -0.34449     2 2pz  -0.74142     2 2pz   0.91729
   19.1    -0.00000     0.84866     1 1s    0.67177     1 2px  -0.57775     1 2py   0.30969     1 2px   1.33027     1 2py  -0.45764
                                    2 1s   -0.67023     2 2px  -0.57757     2 2py   0.30964     2 2px   1.33060     2 2py  -0.45841
                                    3 1s    0.38090     6 1s   -0.38138
   20.1    -0.00000     0.96487     1 1s   -0.56033     1 1s    0.40437     1 2px  -0.32172     1 2py  -0.59019     1 2px   0.49927
                                    1 2py   1.57114     1 2pz  -0.26091     2 1s   -0.56064     2 1s    0.40581     2 2px   0.32233
                                    2 2py   0.58958     2 2px  -0.50127     2 2py  -1.57071     2 2pz   0.26154     3 1s   -0.59596
                                    4 1s    0.65992     5 1s    0.66059     6 1s   -0.59557
   21.1    -0.00000     1.03427     1 1s    0.72465     1 1s   -1.73095     1 2py  -0.27108     1 2px   1.11849     1 2py   0.82555
                                    1 2pz   0.45001     2 1s    0.72690     2 1s   -1.73588     2 2py   0.27151     2 2px  -1.11597
                                    2 2py  -0.82613     2 2pz  -0.44998     3 1s    0.36961     4 1s    0.48323     4 1s    0.95185
                                    5 1s    0.48350     5 1s    0.95188     6 1s    0.37008
   22.1    -0.00000     1.09008     1 1s   -0.27095     1 1s    0.46579     1 2py  -0.57701     1 2px  -0.30360     1 2py   0.83338
                                    2 1s    0.26672     2 1s   -0.45614     2 2py  -0.57401     2 2px  -0.29913     2 2py   0.83396
                                    3 1s    0.65879     3 1s   -1.32069     4 1s    0.28694     5 1s   -0.28770     6 1s   -0.65004
                                    6 1s    1.30997
   23.1    -0.00000     1.09953     1 1s   -0.40068     1 1s    0.90561     1 2py  -0.30415     1 2px  -0.39985     2 1s   -0.40350
                                    2 1s    0.91012     2 2py   0.31098     2 2px   0.40328     3 1s    0.72285     3 1s   -0.97143
                                    4 1s   -0.31165     5 1s   -0.31312     6 1s    0.73015     6 1s   -0.98620
   24.1    -0.00000     1.18490     1 1s   -0.58381     1 2px   0.55616     1 2py   0.27386     1 2px  -1.22038     1 2py  -0.38718
                                    1 2pz   0.30775     2 1s    0.58478     2 2px   0.55555     2 2py   0.27351     2 2px  -1.22061
                                    2 2py  -0.38785     2 2pz   0.30802     3 1s    0.25682     4 1s    0.66495     4 1s   -1.16343
                                    5 1s   -0.66270     5 1s    1.16198     6 1s   -0.25666
   25.1    -0.00000     1.19752     1 1s   -0.95918     1 1s    1.53684     1 2px   0.32477     1 2px  -0.49611     2 1s   -0.95757
                                    2 1s    1.53171     2 2px  -0.32608     2 2px   0.49969     3 1s   -0.35211     4 1s    0.66685
                                    4 1s   -1.16837     5 1s    0.66827     5 1s   -1.17001     6 1s   -0.35250
   26.1    -0.00000     1.25444     1 1s   -1.56906     1 1s    3.80414     1 2px   0.70009     1 2pz  -0.60051     2 1s    1.56872
                                    2 1s   -3.80292     2 2px   0.70122     2 2pz  -0.59927     3 1s   -0.42543     4 1s   -0.67115
                                    5 1s    0.67050     6 1s    0.42620
   27.1    -0.00000     1.73933     1 1s    0.55870     1 3d1+  0.47559     1 3d2+  0.27101     2 1s   -0.55734     2 3d1+ -0.47562
                                    2 3d2+ -0.27102
   28.1    -0.00000     1.92115     1 3d2+  0.26130     1 3d1- -0.56523     2 3d2+ -0.26056     2 3d1-  0.56580
   29.1    -0.00000     1.99631     1 1s   -0.37658     1 2px   0.43879     1 2py   0.35680     1 3d0   0.25067     1 3d2+  0.43323
                                    1 3d1- -0.46998     2 1s   -0.37491     2 2px  -0.43982     2 2py  -0.35692     2 3d0   0.25032
                                    2 3d2+  0.43320     2 3d1- -0.47038     4 1s    0.34581     5 1s    0.34597
   30.1    -0.00000     2.03132     1 1s    0.42085     1 1s   -0.40756     1 2px   0.25489     1 3d0   0.39061     1 3d1+  0.48596
                                    2 1s    0.42053     2 1s   -0.40673     2 2px  -0.25487     2 3d0   0.38962     2 3d1+  0.48586
   31.1    -0.00000     2.23107     1 2py  -0.53366     1 3d2+  0.45210     1 3d1-  0.54050     2 2py   0.53386     2 3d2+  0.45063
                                    2 3d1-  0.53974     3 1s    0.46138     6 1s    0.45992
   32.1    -0.00000     2.27136     1 1s    0.67710     1 3d0  -0.62113     1 3d2-  0.28692     2 1s   -0.67938     2 3d0   0.62280
                                    2 3d2- -0.28743     2 3d2+  0.25144     4 1s   -0.47128     5 1s    0.47130     6 1s    0.25069
   33.1    -0.00000     2.41627     1 3d0  -0.49443     1 3d2- -0.34228     1 3d1+  0.50390     2 3d0  -0.49072     2 3d2- -0.32731
                                    2 3d1+  0.50832
   34.1    -0.00000     2.42808     1 1s   -0.28160     1 1s    1.00234     1 2px   0.55256     1 2pz  -0.26486     1 3d2- -0.58751
                                    1 3d1- -0.38694     2 1s    0.28086     2 1s   -1.00238     2 2px   0.55312     2 2pz  -0.26081
                                    2 3d2-  0.59621     2 3d1-  0.38632     3 1s   -0.46283     4 1s    0.36777     5 1s   -0.36733
                                    6 1s    0.46738
   35.1    -0.00000     2.75231     1 1s    0.27029     1 3d0  -0.29378     1 3d2-  0.72417     1 3d2+  0.26483     2 1s    0.26669
                                    2 3d0  -0.29324     2 3d2-  0.72431     2 3d2+  0.26369     4 1s   -0.59061     5 1s   -0.59040
   36.1    -0.00000     2.87298     1 1s   -1.50663     1 2px  -0.93239     1 2pz   0.37937     1 3d0   0.27621     1 3d1+  0.57290
                                    1 3d2+ -0.70975     2 1s    1.50681     2 2px  -0.93219     2 2pz   0.37945     2 3d0  -0.27650
                                    2 3d1+ -0.57291     2 3d2+  0.71011


 Natural orbital dump (state averaged) at molpro section  2140.2    (Orbital set 2)



 **********************************************************************************************************************************
 DATASETS  * FILE   NREC   LENGTH (MB)   RECORD NAMES
              1      20       31.83       500      610      700      900      950      970     1000      129      960     1100   
                                          VAR    BASINP    GEOM    SYMINP    ZMAT    AOBASIS   BASIS     P2S    ABASIS      S 
                                         1400     1410     1200     1210     1080     1600     1650     1300     1700     1380   
                                           T        V       H0       H01     AOSYM     SMH    MOLCAS    ERIS     OPER     JKOP   

              2       5        5.42       700     1000      520     2100     2140   
                                         GEOM     BASIS   MCVARS     RHF     MCSCF   

 PROGRAMS   *        TOTAL     MULTI    HF-SCF       INT
 CPU TIMES  *         0.97      0.59      0.10      0.18
 REAL TIME  *         1.28 SEC
 DISK USED  *        39.01 MB
 **********************************************************************************************************************************
 Molecular orbitals read from record     2140.2  Type=MCSCF/NATURAL (state averaged)
 Occupation numbers read from record     2140.2  Type=MCSCF/NATURAL (state averaged)
 Orbital energies read from record       2140.2  Type=MCSCF/NATURAL (state averaged)
 Redundancy group numbers read from rec  2140.2  Type=MCSCF/NATURAL (state averaged)

 MULTI/6-31G* energy=    -77.532602865176

           MULTI          HF-SCF
    -77.53260287    -77.90813974
 **********************************************************************************************************************************
 Molpro calculation terminated
