
 Primary working directories    : /scratch.local/johan406.molpro_temp/molpro.anwl8JD7By
 Secondary working directories  : /scratch.local/johan406.molpro_temp/molpro.anwl8JD7By
 Wavefunction directory         : /home/goodpast/johan406/wfu/
 Main file repository           : /scratch.local/johan406.molpro_temp/molpro.anwl8JD7By/

 id        : roweumn

 Nodes     nprocs
 acn06        1

 Using customized tuning parameters: mindgm=1; mindgv=20; mindgc=4; mindgr=1; noblas=0; minvec=7
 default implementation of scratch files=df  


 Variables initialized (934), CPU time= 0.00 sec
                                                                                 !leave this line blank
 
 gprint, orbitals=30
 memory, 125., m
 symmetry, nosym
 nelect=16
 basis=6-31g*
 
 geometry={
 C -0.726 0.041 0.279
 C 0.735 -0.091 -0.339
 H -1.164 1.120 -0.040
 H -1.597 -0.606 0.221
 H 1.606 0.556 -0.282
 H 1.173 -1.170 -0.021
 }
 
 hf
 {multi,
 closed 7
 occ 9
 wf,spin=0;STATE,3
 }
 
 Commands  initialized (763), CPU time= 0.01 sec, 617 directives.
 Default parameters read. Elapsed time= 0.08 sec

 Checking input...
 Passed
1


                                         ***  PROGRAM SYSTEM MOLPRO  ***
                                       Copyright, TTI GmbH Stuttgart, 2015
                                    Version 2019.2 linked Oct 25 2019 22:50:27


 **********************************************************************************************************************************
 LABEL *                                                                                 
  64 bit serial version                                                                  DATE: 15-Mar-23          TIME: 16:28:57  
 **********************************************************************************************************************************

 SHA1:             8dbd9ae1082e4ce945b0f27595c9eb2d4aa09004
 **********************************************************************************************************************************


 Variable memory set to  125000000 words,  buffer space 

 SETTING NELECT         =        16.00000000                                  
 SETTING BASIS          =    6-31G*
 ZSYMEL=NOSYM


Geometry recognized as XYZ



 Recomputing integrals since basis changed


 Using spherical harmonics

 Library entry C      S 6-31G                selected for orbital group  1
 Library entry C      P 6-31G                selected for orbital group  1
 Library entry C      D 6-31G*               selected for orbital group  1
 Library entry H      S 6-31G                selected for orbital group  2


 PROGRAM * SEWARD (Integral evaluation for generally contracted gaussian basis sets)     Author: Roland Lindh, 1990

 Geometry written to block  1 of record 700


 Point group  C1  



 ATOMIC COORDINATES

 NR  ATOM    CHARGE       X              Y              Z

   1  C       6.00   -1.371941166    0.077478771    0.527233589
   2  C       6.00    1.388948702   -0.171965077   -0.640617156
   3  H       1.00   -2.199641209    2.116493260   -0.075589045
   4  H       1.00   -3.017892621   -1.145174031    0.417629474
   5  H       1.00    3.034900156    1.050687725   -0.532902767
   6  H       1.00    2.216648744   -2.210979566   -0.039684249

 Bond lengths in Bohr (Angstrom)

 1-2  3.008090833  1-3  2.281679770  1-4  2.053302006  2-5  2.053202001  2-6  2.281181230
     ( 1.591813117)     ( 1.207412937)     ( 1.086560629)     ( 1.086507708)     ( 1.207149121)

 Bond angles

  1-2-5  131.76097729   1-2-6  107.75025787   2-1-3  107.72690798   2-1-4  131.73104738

  3-1-4  103.13421292   5-2-6  103.15465351

 NUCLEAR CHARGE:                   16
 NUMBER OF PRIMITIVE AOS:          72
 NUMBER OF SYMMETRY AOS:           70
 NUMBER OF CONTRACTIONS:           36   (   36A   )
 NUMBER OF CORE ORBITALS:           2   (    2A   )
 NUMBER OF VALENCE ORBITALS:       12   (   12A   )


 NUCLEAR REPULSION ENERGY   29.73229317

 Eigenvalues of metric

         1 0.164E-01 0.290E-01 0.501E-01 0.602E-01 0.953E-01 0.244E+00 0.247E+00 0.301E+00


 Contracted 2-electron integrals neglected if value below      1.0D-11
 AO integral compression algorithm  1   Integral accuracy      1.0D-11

     1.311 MB (compressed) written to integral file ( 67.0%)


 NUMBER OF SORTED TWO-ELECTRON INTEGRALS:     222111.     BUFFER LENGTH:  32768
 NUMBER OF SEGMENTS:   1  SEGMENT LENGTH:     222111      RECORD LENGTH: 524288

 Memory used in sort:       0.78 MW

 SORT1 READ      284735. AND WROTE      212512. INTEGRALS IN      1 RECORDS. CPU TIME:     0.01 SEC, REAL TIME:     0.01 SEC
 SORT2 READ      212512. AND WROTE      222111. INTEGRALS IN      5 RECORDS. CPU TIME:     0.02 SEC, REAL TIME:     0.02 SEC

 FILE SIZES:   FILE 1:    31.4 MBYTE,  FILE 4:     4.2 MBYTE,   TOTAL:     35.6 MBYTE

 OPERATOR DM      FOR CENTER  0  COORDINATES:    0.000000    0.000000    0.000000


 **********************************************************************************************************************************
 DATASETS  * FILE   NREC   LENGTH (MB)   RECORD NAMES
              1      19       31.10       500      610      700      900      950      970     1000      129      960     1100   
                                          VAR    BASINP    GEOM    SYMINP    ZMAT    AOBASIS   BASIS     P2S    ABASIS      S 
                                         1400     1410     1200     1210     1080     1600     1650     1300     1700   
                                           T        V       H0       H01     AOSYM     SMH    MOLCAS    ERIS     OPER   

 PROGRAMS   *        TOTAL       INT
 CPU TIMES  *         0.28      0.16
 REAL TIME  *         0.50 SEC
 DISK USED  *        35.97 MB
 **********************************************************************************************************************************


 PROGRAM * RHF-SCF (CLOSED SHELL)       Authors: W. Meyer, H.-J. Werner


 NUMBER OF ELECTRONS:       8+    8-    SPACE SYMMETRY=1    SPIN SYMMETRY: Singlet 
 CONVERGENCE THRESHOLDS:    1.00E-05 (Density)    1.00E-07 (Energy)
 MAX. NUMBER OF ITERATIONS:       60
 INTERPOLATION TYPE:            DIIS
 INTERPOLATION STEPS:              2 (START)      1 (STEP)
 LEVEL SHIFTS:                  0.00 (CLOSED)  0.00 (OPEN) 



 Orbital guess generated from atomic densities. Full valence occupancy:    8

 Molecular orbital dump at record        2100.2

 Initial occupancy:   8

 ITERATION    DDIFF          GRAD             ENERGY        2-EL.EN.            DIPOLE MOMENTS         DIIS   ORB.
    1      0.000D+00      0.000D+00       -77.88982188    110.576710    0.00040   -0.00009   -0.00080    0    start
    2      0.000D+00      0.653D-02       -77.90777857    109.918784    0.00046   -0.00022   -0.00066    1    diag
    3      0.666D-02      0.217D-02       -77.91010169    110.241473    0.00065   -0.00024   -0.00082    2    diag
    4      0.307D-02      0.788D-03       -77.91054551    110.116899    0.00060   -0.00027   -0.00074    3    diag
    5      0.140D-02      0.333D-03       -77.91069776    110.128280    0.00076   -0.00027   -0.00086    4    diag
    6      0.110D-02      0.991D-04       -77.91071257    110.125776    0.00057   -0.00029   -0.00069    5    diag
    7      0.326D-03      0.221D-04       -77.91071324    110.126330    0.00084   -0.00027   -0.00093    6    diag
    8      0.578D-04      0.610D-05       -77.91071327    110.126365    0.00055   -0.00029   -0.00067    7    diag
    9      0.112D-04      0.372D-05       -77.91071328    110.126370    0.00070   -0.00028   -0.00080    8    diag
   10      0.558D-05      0.846D-06       -77.91071328    110.126375    0.00068   -0.00028   -0.00079    0    orth

 Final occupancy:   8

 !RHF STATE  1.1 Energy               -77.910713278117
 Nuclear energy                        29.73229317
 One-electron energy                 -162.70619408
 Two-electron energy                   55.06318764
 Virial quotient                       -1.00894457
 !RHF STATE  1.1 Dipole moment          0.00068309    -0.00027889    -0.00078637
 Dipole moment /Debye                   0.00173613    -0.00070883    -0.00199863

 ELECTRON ORBITALS
 =================

  Orbital  Occupation    Energy     Coefficients
    1.1     2.00000   -11.28569     1 1s    0.67361     2 1s    0.73409
    2.1     2.00000   -11.28517     1 1s    0.73416     2 1s   -0.67370
    3.1     2.00000    -0.96335     1 1s    0.29099     1 1s    0.27287     2 1s    0.29114     2 1s    0.27296
    4.1     2.00000    -0.81042     1 1s    0.26038     2 1s   -0.26024
    5.1     2.00000    -0.57244     1 2py   0.30429     2 2py   0.30697
    6.1     2.00000    -0.57021     1 2px   0.35305     2 2px  -0.35217
    7.1     2.00000    -0.46051     1 2py   0.28734     2 2py  -0.28699
    8.1     2.00000    -0.34212     1 2pz   0.32197     1 2pz   0.31247     2 2pz   0.32181     2 2pz   0.31236
    9.1     0.00000     0.09021     1 1s   -0.29837     1 2pz  -0.35224     1 2pz  -0.52304     2 1s   -0.29780     2 2pz   0.35242
                                    2 2pz   0.52335
   10.1     0.00000     0.25490     1 1s   -1.20855     1 2px   0.60821     1 2py  -0.36605     1 2pz   0.32351     2 1s   -1.24946
                                    2 2px  -0.61113     2 2py   0.35714     2 2pz  -0.32916     3 1s    1.08080     4 1s    0.79550
                                    5 1s    0.83053     6 1s    1.08740
   11.1     0.00000     0.25613     1 1s    1.49808     1 2py  -0.28400     2 1s   -1.46359     2 2py  -0.29457     3 1s   -0.29343
                                    4 1s   -1.23330     5 1s    1.21060     6 1s    0.26246
   12.1     0.00000     0.27798     1 1s    0.67718     1 2py   0.64867     2 1s   -0.67953     2 2py   0.64915     3 1s   -1.27860
                                    6 1s    1.28031
   13.1     0.00000     0.33988     1 1s   -0.60123     1 2px   0.46356     1 2py   1.08300     2 1s   -0.59985     2 2px  -0.46396
                                    2 2py  -1.08338     3 1s   -0.73948     4 1s    1.54253     5 1s    1.54270     6 1s   -0.74063
   14.1     0.00000     0.41253     1 1s    1.05209     1 2px   0.29044     1 2px   1.81592     1 2pz  -0.62210     2 1s   -1.05158
                                    2 2px   0.29037     2 2px   1.81596     2 2pz  -0.62271     4 1s    1.05588     5 1s   -1.05628
   15.1     0.00000     0.71126     1 2py  -0.37915     1 2px   0.96075     1 2py   0.47845     1 2pz  -0.28031     2 2py  -0.37928
                                    2 2px   0.96025     2 2py   0.47907     2 2pz  -0.28065     4 1s    0.44651     5 1s   -0.44658
   16.1     0.00000     0.76747     1 2px   0.54958     1 2py  -0.34482     1 2px  -0.82735     1 2py   0.47064     2 2px  -0.54987
                                    2 2py   0.34451     2 2px   0.82900     2 2py  -0.47044     4 1s   -0.25223     5 1s   -0.25279
   17.1     0.00000     0.80378     1 2pz   0.76889     1 2pz  -0.62645     2 2pz   0.76971     2 2pz  -0.62728
   18.1     0.00000     0.84536     1 1s    0.31390     1 1s   -0.37671     1 2pz   0.74571     1 2pz  -0.88925     2 1s    0.31409
                                    2 1s   -0.37798     2 2pz  -0.74479     2 2pz   0.88834
   19.1     0.00000     0.85729     1 1s    0.65864     1 2px  -0.58547     1 2py   0.30515     1 2px   1.30321     1 2py  -0.44320
                                    2 1s   -0.65550     2 2px  -0.58502     2 2py   0.30514     2 2px   1.30373     2 2py  -0.44371
                                    3 1s    0.38629     6 1s   -0.38701
   20.1     0.00000     0.96989     1 1s   -0.47878     1 1s    0.27254     1 2px  -0.30859     1 2py  -0.63280     1 2px   0.53091
                                    1 2py   1.65334     2 1s   -0.47919     2 1s    0.27421     2 2px   0.30924     2 2py   0.63219
                                    2 2px  -0.53317     2 2py  -1.65293     3 1s   -0.58571     4 1s    0.70724     5 1s    0.70791
                                    6 1s   -0.58532
   21.1     0.00000     1.03913     1 1s    0.75784     1 1s   -1.69392     1 2px   1.05581     1 2py   0.69113     1 2pz   0.50034
                                    2 1s    0.76044     2 1s   -1.69961     2 2px  -1.05295     2 2py  -0.69151     2 2pz  -0.50043
                                    3 1s    0.39090     4 1s    0.49070     4 1s    0.84668     5 1s    0.49083     5 1s    0.84668
                                    6 1s    0.39100
   22.1     0.00000     1.08604     1 1s   -0.28851     1 1s    0.49499     1 2py  -0.57259     1 2px  -0.31328     1 2py   0.82279
                                    2 1s    0.28474     2 1s   -0.48665     2 2py  -0.57048     2 2px  -0.30934     2 2py   0.82399
                                    3 1s    0.65516     3 1s   -1.30964     4 1s    0.26397     5 1s   -0.26492     6 1s   -0.64798
                                    6 1s    1.30094
   23.1     0.00000     1.09564     1 1s   -0.43165     1 1s    0.92467     1 2py  -0.28546     1 2px  -0.39523     2 1s   -0.43433
                                    2 1s    0.92911     2 2py   0.29112     2 2px   0.39806     3 1s    0.73026     3 1s   -0.97745
                                    4 1s   -0.29724     5 1s   -0.29829     6 1s    0.73626     6 1s   -0.98959
   24.1     0.00000     1.17799     1 2px   0.55792     1 2py   0.28426     1 2px  -1.08855     1 2py  -0.38525     2 2px   0.55782
                                    2 2py   0.28418     2 2px  -1.08915     2 2py  -0.38591     4 1s    0.66991     4 1s   -1.24312
                                    5 1s   -0.66902     5 1s    1.24322
   25.1     0.00000     1.18740     1 1s   -0.94829     1 1s    1.50081     1 2px   0.31396     1 2px  -0.48075     2 1s   -0.94834
                                    2 1s    1.50062     2 2px  -0.31435     2 2px   0.48132     3 1s   -0.32860     4 1s    0.67108
                                    4 1s   -1.15491     5 1s    0.67154     5 1s   -1.15537     6 1s   -0.32900
   26.1     0.00000     1.26691     1 1s   -1.55731     1 1s    3.85652     1 2px   0.88027     1 2pz  -0.64965     2 1s    1.55578
                                    2 1s   -3.85343     2 2px   0.88206     2 2pz  -0.64799     3 1s   -0.37289     4 1s   -0.49963
                                    5 1s    0.49794     6 1s    0.37298
   27.1     0.00000     1.75505     1 1s    0.59898     1 3d1+  0.47788     1 3d2+  0.27349     2 1s   -0.59777     2 3d1+ -0.47789
                                    2 3d2+ -0.27337
   28.1     0.00000     1.92571     1 3d2+  0.25808     1 3d1- -0.56288     2 3d2+ -0.25756     2 3d1-  0.56373
   29.1     0.00000     2.01048     1 1s    0.44902     1 2px  -0.41873     1 2py  -0.34571     1 3d0  -0.31683     1 3d2+ -0.40331
                                    1 3d1-  0.44919     2 1s    0.44707     2 2px   0.41983     2 2py   0.34587     2 3d0  -0.31621
                                    2 3d2+ -0.40314     2 3d1-  0.44924     4 1s   -0.33658     5 1s   -0.33668
   30.1     0.00000     2.04830     1 1s    0.42808     1 1s   -0.35013     1 2px   0.26220     1 3d0   0.35155     1 3d1+  0.46408
                                    2 1s    0.42784     2 1s   -0.34962     2 2px  -0.26218     2 3d0   0.35063     2 3d1+  0.46400
   31.1     0.00000     2.21808     1 2py  -0.52885     1 3d2+  0.45578     1 3d1-  0.53481     2 2py   0.52913     2 3d2+  0.45512
                                    2 3d1-  0.53417     3 1s    0.44041     6 1s    0.43968
   32.1     0.00000     2.27775     1 1s   -0.25869     1 1s    0.73619     1 3d0  -0.63005     1 3d2-  0.25073     1 3d2+ -0.25829
                                    2 1s    0.25898     2 1s   -0.73770     2 3d0   0.63149     2 3d2- -0.25083     2 3d2+  0.26024
                                    3 1s   -0.25907     4 1s   -0.43935     5 1s    0.43951     6 1s    0.26150
   33.1     0.00000     2.42486     1 1s   -0.86642     1 2px  -0.48926     1 3d2-  0.60352     1 3d1-  0.39236     2 1s    0.86649
                                    2 2px  -0.48841     2 3d2- -0.59776     2 3d1- -0.39071     3 1s    0.44172     4 1s   -0.38304
                                    5 1s    0.38270     6 1s   -0.43836
   34.1     0.00000     2.44268     1 3d0  -0.48991     1 3d2- -0.32997     1 3d1+  0.51356     2 3d0  -0.49177     2 3d2- -0.34050
                                    2 3d1+  0.51047
   35.1     0.00000     2.75215     1 3d0  -0.28709     1 3d2-  0.72592     1 3d2+  0.25951     2 3d0  -0.28650     2 3d2-  0.72621
                                    2 3d2+  0.25829     4 1s   -0.56761     5 1s   -0.56749
   36.1     0.00000     2.88176     1 1s   -1.54707     1 2px  -0.94809     1 2pz   0.38618     1 3d0   0.27602     1 3d1+  0.58209
                                    1 3d2+ -0.70724     2 1s    1.54725     2 2px  -0.94787     2 2pz   0.38621     2 3d0  -0.27641
                                    2 3d1+ -0.58195     2 3d2+  0.70763


 HOMO      8.1    -0.342117 =      -9.3095eV
 LUMO      9.1     0.090215 =       2.4549eV
 LUMO-HOMO         0.432332 =      11.7643eV


 **********************************************************************************************************************************
 DATASETS  * FILE   NREC   LENGTH (MB)   RECORD NAMES
              1      19       31.10       500      610      700      900      950      970     1000      129      960     1100   
                                          VAR    BASINP    GEOM    SYMINP    ZMAT    AOBASIS   BASIS     P2S    ABASIS      S 
                                         1400     1410     1200     1210     1080     1600     1650     1300     1700   
                                           T        V       H0       H01     AOSYM     SMH    MOLCAS    ERIS     OPER   

              2       4        2.86       700     1000      520     2100   
                                         GEOM     BASIS   MCVARS     RHF  

 PROGRAMS   *        TOTAL    HF-SCF       INT
 CPU TIMES  *         0.37      0.09      0.16
 REAL TIME  *         0.61 SEC
 DISK USED  *        35.97 MB
 **********************************************************************************************************************************


 PROGRAM * MULTI (Direct Multiconfiguration SCF)       Authors: P.J. Knowles, H.-J. Werner (1984)


 Number of closed-shell orbitals:   7 (   7 )
 Number of active  orbitals:        2 (   2 )
 Number of external orbitals:      27 (  27 )

 State symmetry 1

 Number of electrons:     2    Spin symmetry=Singlet   Space symmetry=1
 Number of states:        3
 Number of CSFs:          3   (4 determinants, 4 intermediate states)

 Molecular orbitals read from record     2100.2  Type=RHF/CANONICAL (state 1.1)

 Wavefunction dump at record             2140.2

 Convergence thresholds  0.10E-01 (gradient)  0.10E-05 (energy)  0.10E-02 (step length)

 Weight factors for state symmetry  1:    0.33333   0.33333   0.33333

 Number of orbital rotations:      257   (    14 Core/Active    189 Core/Virtual   0 Active/Active     54 Active/Virtual)
 Total number of variables:        269

 Micro-Iterations solved by the two-step solver

 ITER. MIC  NCI  NEG     ENERGY(VAR)     ENERGY(PROJ)   ENERGY CHANGE     GRAD(0)  GRAD(ORB)   GRAD(CI)     STEP       TIME

   1   13    5    0     -77.69612026     -77.70163031   -0.00551005    0.09901079 0.00134702 0.00000000  0.10D+00      0.32
   2   12    6    0     -77.70147856     -77.70156104   -0.00008248    0.00831230 0.00000731 0.00000000  0.27D-01      0.46
   3    9    6    0     -77.70156291     -77.70156327   -0.00000036    0.00046905 0.00000005 0.00000000  0.18D-02      0.57
   4    4    4    0     -77.70156327     -77.70156327   -0.00000000    0.00000137 0.00000000 0.00000000  0.55D-05      0.63

 ** WVFN ****  CONVERGENCE REACHED, FINAL GRADIENT:  0.45D-10



 Results for state 1.1
 =====================

 !MCSCF STATE  1.1 Energy             -77.940985067390
 Nuclear energy                        29.73229317
 Kinetic energy                        77.25876966
 One electron energy                 -162.66798021
 Two electron energy                   54.99470197
 Virial ratio                           2.00883026

 !MCSCF STATE  1.1 Dipole moment        0.00079483    -0.00034489    -0.00070103
 Dipole moment /Debye                   0.00202012    -0.00087657    -0.00178174

 Results for state 2.1
 =====================

 !MCSCF STATE  2.1 Energy             -77.632457141455
 Nuclear energy                        29.73229317
 Kinetic energy                        77.42142581
 One electron energy                 -162.46716756
 Two electron energy                   55.10241725
 Virial ratio                           2.00272575

 !MCSCF STATE  2.1 Dipole moment        0.00165054    -0.00031093    -0.00182092
 Dipole moment /Debye                   0.00419498    -0.00079026    -0.00462800

 Results for state 3.1
 =====================

 !MCSCF STATE  3.1 Energy             -77.531247601936
 Nuclear energy                        29.73229317
 Kinetic energy                        77.58408092
 One electron energy                 -162.26635377
 Two electron energy                   55.00281300
 Virial ratio                           1.99931902

 !MCSCF STATE  3.1 Dipole moment       -0.00152868     0.00018505    -0.00025786
 Dipole moment /Debye                  -0.00388526     0.00047032    -0.00065537

 State-averaged charge density matrix saved on record  2140.2 (density set 1)

 !MCSCF expec         <1.1|DMX|1.1>     0.000794827818 au =     0.002020118487 Debye
 !MCSCF trans         <2.1|DMX|1.1>    -1.217398487832 au =    -3.094115648704 Debye
 !MCSCF expec         <2.1|DMX|2.1>     0.001650539820 au =     0.004194978995 Debye
 !MCSCF trans         <3.1|DMX|1.1>    -0.000015473596 au =    -0.000039327382 Debye
 !MCSCF trans         <3.1|DMX|2.1>    -2.318971572094 au =    -5.893851768202 Debye
 !MCSCF expec         <3.1|DMX|3.1>    -0.001528680018 au =    -0.003885262561 Debye

 !MCSCF expec         <1.1|DMY|1.1>    -0.000344889823 au =    -0.000876565076 Debye
 !MCSCF trans         <2.1|DMY|1.1>     0.139399109490 au =     0.354293988697 Debye
 !MCSCF expec         <2.1|DMY|2.1>    -0.000310931389 au =    -0.000790256999 Debye
 !MCSCF trans         <3.1|DMY|1.1>    -0.000089260838 au =    -0.000226863560 Debye
 !MCSCF trans         <3.1|DMY|2.1>     0.265535457382 au =     0.674879607773 Debye
 !MCSCF expec         <3.1|DMY|3.1>     0.000185049763 au =     0.000470318776 Debye

 !MCSCF expec         <1.1|DMZ|1.1>    -0.000701034735 au =    -0.001781735862 Debye
 !MCSCF trans         <2.1|DMZ|1.1>     0.809481825335 au =     2.057362817636 Debye
 !MCSCF expec         <2.1|DMZ|2.1>    -0.001820916467 au =    -0.004628004875 Debye
 !MCSCF trans         <3.1|DMZ|1.1>     0.000390374880 au =     0.000992168988 Debye
 !MCSCF trans         <3.1|DMZ|2.1>     1.541948515570 au =     3.918985508203 Debye
 !MCSCF expec         <3.1|DMZ|3.1>    -0.000257860249 au =    -0.000655372451 Debye


 NATURAL ORBITALS (state averaged)
 =================================

  Orbital  Occupation    Energy     Coefficients
    1.1     2.00000   -11.28898     1 1s    0.71965     2 1s    0.68902
    2.1     2.00000   -11.28859     1 1s    0.68905     2 1s   -0.71968
    3.1     2.00000    -0.96669     1 1s    0.29611     1 1s    0.27441     2 1s    0.29612     2 1s    0.27432
    4.1     2.00000    -0.81329     1 1s    0.29053     2 1s   -0.29043
    5.1     2.00000    -0.57851     1 2py   0.30711     2 2py   0.30874
    6.1     2.00000    -0.57463     1 2px   0.35601     2 2px  -0.35524
    7.1     2.00000    -0.46475     1 2py   0.28959     2 2py  -0.28948
    8.1     1.00000    -0.04180     1 2pz  -0.37988     1 2pz  -0.50265     2 2pz   0.37998     2 2pz   0.50291
    9.1     1.00000    -0.21043     1 2pz   0.29864     1 2pz   0.31149     2 2pz   0.29904     2 2pz   0.31216
   10.1    -0.00000     0.25126     1 1s    1.43321     1 2py  -0.33676     2 1s   -1.44087     2 2py  -0.33461     4 1s   -1.20928
                                    5 1s    1.21412
   11.1    -0.00000     0.25274     1 1s   -1.22863     1 2px   0.60689     1 2py  -0.38225     1 2pz   0.31575     2 1s   -1.21783
                                    2 2px  -0.60682     2 2py   0.38259     2 2pz  -0.31307     3 1s    1.10105     4 1s    0.79040
                                    5 1s    0.78377     6 1s    1.09663
   12.1    -0.00000     0.27217     1 1s    0.79711     1 2py   0.62302     2 1s   -0.80137     2 2py   0.62409     3 1s   -1.29248
                                    6 1s    1.29594
   13.1    -0.00000     0.33804     1 1s   -0.63115     1 2px   0.47613     1 2py   1.07069     2 1s   -0.63021     2 2px  -0.47612
                                    2 2py  -1.07118     3 1s   -0.71470     4 1s    1.55840     5 1s    1.55848     6 1s   -0.71591
   14.1    -0.00000     0.40474     1 1s    0.98523     1 2px   0.30080     1 2px   1.78755     1 2pz  -0.60766     2 1s   -0.98476
                                    2 2px   0.30072     2 2px   1.78780     2 2pz  -0.60760     4 1s    1.08168     5 1s   -1.08249
   15.1    -0.00000     0.70753     1 2py  -0.39429     1 2px   0.95228     1 2py   0.49060     1 2pz  -0.26566     2 2py  -0.39443
                                    2 2px   0.95172     2 2py   0.49112     2 2pz  -0.26590     4 1s    0.44169     5 1s   -0.44170
   16.1    -0.00000     0.75862     1 2px   0.54757     1 2py  -0.33423     1 2px  -0.81157     1 2py   0.44793     2 2px  -0.54779
                                    2 2py   0.33392     2 2px   0.81323     2 2py  -0.44772
   17.1    -0.00000     0.79731     1 2pz   0.77903     1 2pz  -0.64440     2 2pz   0.78000     2 2pz  -0.64559
   18.1    -0.00000     0.83738     1 1s    0.29510     1 1s   -0.34278     1 2pz   0.73867     1 2pz  -0.91290     2 1s    0.29500
                                    2 1s   -0.34309     2 2pz  -0.73751     2 2pz   0.91219
   19.1    -0.00000     0.84965     1 1s    0.72942     1 2px  -0.58371     1 2py   0.29737     1 2px   1.35046     1 2py  -0.43166
                                    1 2pz  -0.25719     2 1s   -0.72745     2 2px  -0.58362     2 2py   0.29745     2 2px   1.35104
                                    2 2py  -0.43248     2 2pz  -0.25702     3 1s    0.38435     6 1s   -0.38493
   20.1    -0.00000     0.96393     1 1s   -0.48699     1 1s    0.30520     1 2px  -0.29160     1 2py  -0.64166     1 2px   0.50269
                                    1 2py   1.66440     2 1s   -0.48720     2 1s    0.30641     2 2px   0.29216     2 2py   0.64102
                                    2 2px  -0.50456     2 2py  -1.66391     3 1s   -0.60594     4 1s    0.69680     5 1s    0.69733
                                    6 1s   -0.60541
   21.1    -0.00000     1.03731     1 1s    0.75550     1 1s   -1.69765     1 2px   1.06359     1 2py   0.69201     1 2pz   0.48086
                                    2 1s    0.75780     2 1s   -1.70273     2 2px  -1.06104     2 2py  -0.69257     2 2pz  -0.48088
                                    3 1s    0.40274     4 1s    0.48449     4 1s    0.85829     5 1s    0.48471     5 1s    0.85834
                                    6 1s    0.40314
   22.1    -0.00000     1.08050     1 1s   -0.27173     1 1s    0.46380     1 2py  -0.57567     1 2px  -0.30206     1 2py   0.83324
                                    2 1s    0.26851     2 1s   -0.45658     2 2py  -0.57395     2 2px  -0.29856     2 2py   0.83473
                                    3 1s    0.64991     3 1s   -1.30846     4 1s    0.29900     5 1s   -0.29999     6 1s   -0.64328
                                    6 1s    1.30078
   23.1    -0.00000     1.09262     1 1s   -0.42379     1 1s    0.92584     1 2py  -0.27468     1 2px  -0.41149     2 1s   -0.42586
                                    2 1s    0.92908     2 2py   0.27983     2 2px   0.41397     3 1s    0.72611     3 1s   -0.96504
                                    4 1s   -0.31226     5 1s   -0.31349     6 1s    0.73144     6 1s   -0.97587
   24.1    -0.00000     1.17467     1 1s   -0.26881     1 2px   0.55838     1 2py   0.26941     1 2px  -1.15548     1 2py  -0.36820
                                    2 1s    0.27268     2 2px   0.55725     2 2py   0.26874     2 2px  -1.15469     2 2py  -0.36853
                                    2 2pz   0.25048     4 1s    0.66766     4 1s   -1.20483     5 1s   -0.66438     5 1s    1.20119
   25.1    -0.00000     1.18638     1 1s   -0.94963     1 1s    1.51199     1 2px   0.31894     1 2px  -0.48793     2 1s   -0.94890
                                    2 1s    1.50819     2 2px  -0.32124     2 2px   0.49312     3 1s   -0.33893     4 1s    0.66715
                                    4 1s   -1.15581     5 1s    0.66979     5 1s   -1.15986     6 1s   -0.33965
   26.1    -0.00000     1.25494     1 1s   -1.56649     1 1s    3.83971     1 2px   0.79233     1 2pz  -0.62193     2 1s    1.56577
                                    2 1s   -3.83795     2 2px   0.79362     2 2pz  -0.62054     3 1s   -0.39042     4 1s   -0.57981
                                    5 1s    0.57892     6 1s    0.39095
   27.1    -0.00000     1.74385     1 1s    0.59436     1 3d1+  0.47770     1 3d2+  0.27552     2 1s   -0.59309     2 3d1+ -0.47771
                                    2 3d2+ -0.27546
   28.1    -0.00000     1.91462     1 3d2+  0.25809     1 3d1- -0.56406     2 3d2+ -0.25742     2 3d1-  0.56465
   29.1    -0.00000     2.00369     1 1s    0.44655     1 2px  -0.42206     1 2py  -0.34418     1 3d0  -0.31290     1 3d2+ -0.40630
                                    1 3d1-  0.44814     2 1s    0.44461     2 2px   0.42308     2 2py   0.34429     2 3d0  -0.31233
                                    2 3d2+ -0.40619     2 3d1-  0.44844     4 1s   -0.33694     5 1s   -0.33703
   30.1    -0.00000     2.03726     1 1s    0.42306     1 1s   -0.34382     1 2px   0.26598     1 3d0   0.35040     1 3d1+  0.46681
                                    2 1s    0.42279     2 1s   -0.34317     2 2px  -0.26596     2 3d0   0.34945     2 3d1+  0.46670
   31.1    -0.00000     2.20973     1 2py  -0.53177     1 3d2+  0.45369     1 3d1-  0.53720     2 2py   0.53202     2 3d2+  0.45291
                                    2 3d1-  0.53661     3 1s    0.43996     6 1s    0.43913
   32.1    -0.00000     2.26749     1 1s   -0.26093     1 1s    0.74459     1 3d0  -0.63016     1 3d2-  0.25132     1 3d2+ -0.25525
                                    2 1s    0.26124     2 1s   -0.74620     2 3d0   0.63143     2 3d2- -0.25154     2 3d2+  0.25745
                                    3 1s   -0.25981     4 1s   -0.44369     5 1s    0.44379     6 1s    0.26237
   33.1    -0.00000     2.41381     1 1s   -0.87270     1 2px  -0.49043     1 3d2-  0.60365     1 3d1-  0.39053     2 1s    0.87267
                                    2 2px  -0.48965     2 3d2- -0.59771     2 3d1- -0.38883     3 1s    0.44438     4 1s   -0.38461
                                    5 1s    0.38440     6 1s   -0.44079
   34.1    -0.00000     2.43011     1 3d0  -0.49474     1 3d2- -0.32511     1 3d1+  0.51208     2 3d0  -0.49700     2 3d2- -0.33610
                                    2 3d1+  0.50878
   35.1    -0.00000     2.74298     1 3d0  -0.28476     1 3d2-  0.72755     1 3d2+  0.25823     2 3d0  -0.28426     2 3d2-  0.72783
                                    2 3d2+  0.25717     4 1s   -0.56973     5 1s   -0.56966
   36.1    -0.00000     2.87344     1 1s   -1.55299     1 2px  -0.95310     1 2pz   0.38871     1 3d0   0.27471     1 3d1+  0.58276
                                    1 3d2+ -0.70779     2 1s    1.55311     2 2px  -0.95294     2 2pz   0.38877     2 3d0  -0.27500
                                    2 3d1+ -0.58273     2 3d2+  0.70813


 Natural orbital dump (state averaged) at molpro section  2140.2    (Orbital set 2)



 **********************************************************************************************************************************
 DATASETS  * FILE   NREC   LENGTH (MB)   RECORD NAMES
              1      20       31.83       500      610      700      900      950      970     1000      129      960     1100   
                                          VAR    BASINP    GEOM    SYMINP    ZMAT    AOBASIS   BASIS     P2S    ABASIS      S 
                                         1400     1410     1200     1210     1080     1600     1650     1300     1700     1380   
                                           T        V       H0       H01     AOSYM     SMH    MOLCAS    ERIS     OPER     JKOP   

              2       5        5.42       700     1000      520     2100     2140   
                                         GEOM     BASIS   MCVARS     RHF     MCSCF   

 PROGRAMS   *        TOTAL     MULTI    HF-SCF       INT
 CPU TIMES  *         1.05      0.68      0.09      0.16
 REAL TIME  *         1.33 SEC
 DISK USED  *        39.01 MB
 **********************************************************************************************************************************
 Molecular orbitals read from record     2140.2  Type=MCSCF/NATURAL (state averaged)
 Occupation numbers read from record     2140.2  Type=MCSCF/NATURAL (state averaged)
 Orbital energies read from record       2140.2  Type=MCSCF/NATURAL (state averaged)
 Redundancy group numbers read from rec  2140.2  Type=MCSCF/NATURAL (state averaged)

 MULTI/6-31G* energy=    -77.531247601936

           MULTI          HF-SCF
    -77.53124760    -77.91071328
 **********************************************************************************************************************************
 Molpro calculation terminated
