
 Primary working directories    : /scratch.local/johan406.molpro_temp/molpro.aecca9gRZ0
 Secondary working directories  : /scratch.local/johan406.molpro_temp/molpro.aecca9gRZ0
 Wavefunction directory         : /home/goodpast/johan406/wfu/
 Main file repository           : /scratch.local/johan406.molpro_temp/molpro.aecca9gRZ0/

 id        : roweumn

 Nodes     nprocs
 acn06        1

 Using customized tuning parameters: mindgm=1; mindgv=20; mindgc=4; mindgr=1; noblas=0; minvec=7
 default implementation of scratch files=df  


 Variables initialized (934), CPU time= 0.00 sec
                                                                                 !leave this line blank
 
 gprint, orbitals=30
 memory, 125., m
 symmetry, nosym
 nelect=16
 basis=6-31g*
 
 geometry={
 C -0.723 0.044 0.278
 C 0.732 -0.094 -0.338
 H -1.180 1.125 -0.036
 H -1.593 -0.614 0.214
 H 1.602 0.564 -0.275
 H 1.189 -1.175 -0.024
 }
 
 hf
 {multi,
 closed 7
 occ 9
 wf,spin=0;STATE,3
 }
 
 Commands  initialized (763), CPU time= 0.01 sec, 617 directives.
 Default parameters read. Elapsed time= 0.06 sec

 Checking input...
 Passed
1


                                         ***  PROGRAM SYSTEM MOLPRO  ***
                                       Copyright, TTI GmbH Stuttgart, 2015
                                    Version 2019.2 linked Oct 25 2019 22:50:27


 **********************************************************************************************************************************
 LABEL *                                                                                 
  64 bit serial version                                                                  DATE: 15-Mar-23          TIME: 16:29:06  
 **********************************************************************************************************************************

 SHA1:             8dbd9ae1082e4ce945b0f27595c9eb2d4aa09004
 **********************************************************************************************************************************


 Variable memory set to  125000000 words,  buffer space 

 SETTING NELECT         =        16.00000000                                  
 SETTING BASIS          =    6-31G*
 ZSYMEL=NOSYM


Geometry recognized as XYZ



 Recomputing integrals since basis changed


 Using spherical harmonics

 Library entry C      S 6-31G                selected for orbital group  1
 Library entry C      P 6-31G                selected for orbital group  1
 Library entry C      D 6-31G*               selected for orbital group  1
 Library entry H      S 6-31G                selected for orbital group  2


 PROGRAM * SEWARD (Integral evaluation for generally contracted gaussian basis sets)     Author: Roland Lindh, 1990

 Geometry written to block  1 of record 700


 Point group  C1  



 ATOMIC COORDINATES

 NR  ATOM    CHARGE       X              Y              Z

   1  C       6.00   -1.366271988    0.083147949    0.525343863
   2  C       6.00    1.383279523   -0.177634256   -0.638727430
   3  H       1.00   -2.229876827    2.125941890   -0.068030140
   4  H       1.00   -3.010333716   -1.160291840    0.404401391
   5  H       1.00    3.027341252    1.065805534   -0.519674684
   6  H       1.00    2.246884362   -2.220428196   -0.045353427

 Bond lengths in Bohr (Angstrom)

 1-2  2.997182485  1-3  2.295846926  1-4  2.064874950  2-5  2.064765128  2-6  2.295846926
     ( 1.586040668)     ( 1.214909873)     ( 1.092684767)     ( 1.092626652)     ( 1.214909873)

 Bond angles

  1-2-5  130.97023047   1-2-6  108.79109129   2-1-3  108.79109129   2-1-4  130.94061858

  3-1-4  102.77802032   5-2-6  102.79260909

 NUCLEAR CHARGE:                   16
 NUMBER OF PRIMITIVE AOS:          72
 NUMBER OF SYMMETRY AOS:           70
 NUMBER OF CONTRACTIONS:           36   (   36A   )
 NUMBER OF CORE ORBITALS:           2   (    2A   )
 NUMBER OF VALENCE ORBITALS:       12   (   12A   )


 NUCLEAR REPULSION ENERGY   29.69428069

 Eigenvalues of metric

         1 0.164E-01 0.296E-01 0.511E-01 0.602E-01 0.967E-01 0.243E+00 0.248E+00 0.300E+00


 Contracted 2-electron integrals neglected if value below      1.0D-11
 AO integral compression algorithm  1   Integral accuracy      1.0D-11

     1.311 MB (compressed) written to integral file ( 67.0%)


 NUMBER OF SORTED TWO-ELECTRON INTEGRALS:     222111.     BUFFER LENGTH:  32768
 NUMBER OF SEGMENTS:   1  SEGMENT LENGTH:     222111      RECORD LENGTH: 524288

 Memory used in sort:       0.78 MW

 SORT1 READ      284735. AND WROTE      212514. INTEGRALS IN      1 RECORDS. CPU TIME:     0.00 SEC, REAL TIME:     0.00 SEC
 SORT2 READ      212514. AND WROTE      222111. INTEGRALS IN      5 RECORDS. CPU TIME:     0.02 SEC, REAL TIME:     0.02 SEC

 FILE SIZES:   FILE 1:    31.4 MBYTE,  FILE 4:     4.2 MBYTE,   TOTAL:     35.6 MBYTE

 OPERATOR DM      FOR CENTER  0  COORDINATES:    0.000000    0.000000    0.000000


 **********************************************************************************************************************************
 DATASETS  * FILE   NREC   LENGTH (MB)   RECORD NAMES
              1      19       31.10       500      610      700      900      950      970     1000      129      960     1100   
                                          VAR    BASINP    GEOM    SYMINP    ZMAT    AOBASIS   BASIS     P2S    ABASIS      S 
                                         1400     1410     1200     1210     1080     1600     1650     1300     1700   
                                           T        V       H0       H01     AOSYM     SMH    MOLCAS    ERIS     OPER   

 PROGRAMS   *        TOTAL       INT
 CPU TIMES  *         0.28      0.18
 REAL TIME  *         0.45 SEC
 DISK USED  *        35.97 MB
 **********************************************************************************************************************************


 PROGRAM * RHF-SCF (CLOSED SHELL)       Authors: W. Meyer, H.-J. Werner


 NUMBER OF ELECTRONS:       8+    8-    SPACE SYMMETRY=1    SPIN SYMMETRY: Singlet 
 CONVERGENCE THRESHOLDS:    1.00E-05 (Density)    1.00E-07 (Energy)
 MAX. NUMBER OF ITERATIONS:       60
 INTERPOLATION TYPE:            DIIS
 INTERPOLATION STEPS:              2 (START)      1 (STEP)
 LEVEL SHIFTS:                  0.00 (CLOSED)  0.00 (OPEN) 



 Orbital guess generated from atomic densities. Full valence occupancy:    8

 Molecular orbital dump at record        2100.2

 Initial occupancy:   8

 ITERATION    DDIFF          GRAD             ENERGY        2-EL.EN.            DIPOLE MOMENTS         DIIS   ORB.
    1      0.000D+00      0.000D+00       -77.89105175    110.523736    0.00033   -0.00003   -0.00049    0    start
    2      0.000D+00      0.653D-02       -77.90898693    109.851111    0.00024   -0.00004   -0.00037    1    diag
    3      0.664D-02      0.218D-02       -77.91127927    110.180521    0.00042   -0.00003   -0.00054    2    diag
    4      0.306D-02      0.789D-03       -77.91171525    110.053488    0.00032   -0.00004   -0.00043    3    diag
    5      0.139D-02      0.326D-03       -77.91185733    110.064816    0.00048   -0.00004   -0.00057    4    diag
    6      0.106D-02      0.978D-04       -77.91187156    110.062283    0.00025   -0.00006   -0.00036    5    diag
    7      0.319D-03      0.220D-04       -77.91187220    110.062815    0.00057   -0.00004   -0.00065    6    diag
    8      0.566D-04      0.632D-05       -77.91187222    110.062851    0.00026   -0.00006   -0.00037    7    diag
    9      0.101D-04      0.365D-05       -77.91187223    110.062857    0.00040   -0.00005   -0.00049    8    diag
   10      0.601D-05      0.791D-06       -77.91187223    110.062862    0.00039   -0.00005   -0.00048    0    orth

 Final occupancy:   8

 !RHF STATE  1.1 Energy               -77.911872231993
 Nuclear energy                        29.69428069
 One-electron energy                 -162.63758372
 Two-electron energy                   55.03143080
 Virial quotient                       -1.00932141
 !RHF STATE  1.1 Dipole moment          0.00038833    -0.00004917    -0.00048068
 Dipole moment /Debye                   0.00098696    -0.00012497    -0.00122169

 ELECTRON ORBITALS
 =================

  Orbital  Occupation    Energy     Coefficients
    1.1     2.00000   -11.28679     1 1s    0.67671     2 1s    0.73124
    2.1     2.00000   -11.28627     1 1s    0.73131     2 1s   -0.67679
    3.1     2.00000    -0.96324     1 1s    0.29142     1 1s    0.27341     2 1s    0.29149     2 1s    0.27345
    4.1     2.00000    -0.80764     1 1s    0.26195     2 1s   -0.26190
    5.1     2.00000    -0.57057     1 2py   0.30413     2 2py   0.30657
    6.1     2.00000    -0.56828     1 2px   0.35645     2 2px  -0.35551
    7.1     2.00000    -0.46125     1 2py   0.28788     2 2py  -0.28775
    8.1     2.00000    -0.34333     1 2pz   0.32267     1 2pz   0.31192     2 2pz   0.32255     2 2pz   0.31183
    9.1     0.00000     0.09038     1 1s    0.30332     1 2pz   0.35202     1 2pz   0.52240     2 1s    0.30291     2 2pz  -0.35212
                                    2 2pz  -0.52258
   10.1     0.00000     0.25451     1 1s   -1.21044     1 2px   0.61753     1 2py  -0.34811     1 2pz   0.32928     2 1s   -1.23180
                                    2 2px  -0.61939     2 2py   0.34477     2 2pz  -0.33238     3 1s    1.06909     4 1s    0.81157
                                    5 1s    0.82872     6 1s    1.07468
   11.1     0.00000     0.25649     1 1s    1.52450     2 1s   -1.50738     2 2py  -0.25068     3 1s   -0.37197     4 1s   -1.21217
                                    5 1s    1.20070     6 1s    0.35656
   12.1     0.00000     0.27371     1 1s   -0.55975     1 2py  -0.65666     2 1s    0.55903     2 2py  -0.65693     3 1s    1.23295
                                    4 1s   -0.33997     5 1s    0.34081     6 1s   -1.23287
   13.1     0.00000     0.33975     1 1s   -0.57578     1 2px   0.44889     1 2py   1.09071     2 1s   -0.57582     2 2px  -0.44863
                                    2 2py  -1.09045     3 1s   -0.75009     4 1s    1.52005     5 1s    1.51968     6 1s   -0.74981
   14.1     0.00000     0.41404     1 1s    1.09755     1 2px   0.28906     1 2px   1.82331     1 2pz  -0.62708     2 1s   -1.09706
                                    2 2px   0.28909     2 2px   1.82346     2 2pz  -0.62762     4 1s    1.01125     5 1s   -1.01240
   15.1     0.00000     0.71352     1 2py  -0.38586     1 2px   0.90838     1 2py   0.47914     1 2pz  -0.26253     2 2py  -0.38589
                                    2 2px   0.90796     2 2py   0.47939     2 2pz  -0.26283     4 1s    0.44596     5 1s   -0.44608
   16.1     0.00000     0.76622     1 2px   0.55939     1 2py  -0.32378     1 2px  -0.84176     1 2py   0.43075     2 2px  -0.55960
                                    2 2py   0.32357     2 2px   0.84298     2 2py  -0.43042     4 1s   -0.25207     5 1s   -0.25255
   17.1     0.00000     0.80346     1 2pz   0.76963     1 2pz  -0.62576     2 2pz   0.77027     2 2pz  -0.62640
   18.1     0.00000     0.84511     1 1s    0.32122     1 1s   -0.37477     1 2pz   0.74309     1 2pz  -0.88590     2 1s    0.32126
                                    2 1s   -0.37535     2 2pz  -0.74240     2 2pz   0.88534
   19.1     0.00000     0.85751     1 1s    0.68798     1 2px  -0.58918     1 2py   0.29640     1 2px   1.31701     1 2py  -0.42579
                                    2 1s   -0.68678     2 2px  -0.58890     2 2py   0.29662     2 2px   1.31704     2 2py  -0.42615
                                    3 1s    0.38877     6 1s   -0.38910
   20.1     0.00000     0.96957     1 1s   -0.42998     1 2px  -0.28845     1 2py  -0.66195     1 2px   0.53129     1 2py   1.70824
                                    2 1s   -0.43035     2 2px   0.28883     2 2py   0.66189     2 2px  -0.53358     2 2py  -1.70829
                                    3 1s   -0.59325     4 1s    0.72678     5 1s    0.72769     6 1s   -0.59315
   21.1     0.00000     1.04059     1 1s    0.77692     1 1s   -1.67680     1 2px   1.01948     1 2py   0.60006     1 2pz   0.51773
                                    2 1s    0.77793     2 1s   -1.67895     2 2px  -1.01786     2 2py  -0.60107     2 2pz  -0.51740
                                    3 1s    0.40790     4 1s    0.49147     4 1s    0.78744     5 1s    0.49131     5 1s    0.78783
                                    6 1s    0.40900
   22.1     0.00000     1.08085     1 1s   -0.28675     1 1s    0.48766     1 2py  -0.57085     1 2px  -0.31291     1 2py   0.82299
                                    2 1s    0.28869     2 1s   -0.49166     2 2py  -0.57088     2 2px  -0.31499     2 2py   0.82210
                                    3 1s    0.64706     3 1s   -1.29786     4 1s    0.27012     5 1s   -0.26864     6 1s   -0.64746
                                    6 1s    1.29931
   23.1     0.00000     1.09165     1 1s   -0.44819     1 1s    0.93780     1 2py  -0.27090     1 2px  -0.39893     2 1s   -0.44811
                                    2 1s    0.93758     2 2py   0.27010     2 2px   0.39910     3 1s    0.73593     3 1s   -0.97944
                                    4 1s   -0.29512     5 1s   -0.29504     6 1s    0.73501     6 1s   -0.97784
   24.1     0.00000     1.17225     1 2px   0.55564     1 2py   0.28387     1 2px  -1.06355     1 2py  -0.38013     2 2px   0.55529
                                    2 2py   0.28381     2 2px  -1.06338     2 2py  -0.38045     4 1s    0.66767     4 1s   -1.25114
                                    5 1s   -0.66677     5 1s    1.25031
   25.1     0.00000     1.18214     1 1s   -0.94149     1 1s    1.48618     1 2px   0.31133     1 2px  -0.47698     2 1s   -0.94118
                                    2 1s    1.48499     2 2px  -0.31198     2 2px   0.47808     3 1s   -0.31815     4 1s    0.67208
                                    4 1s   -1.14991     5 1s    0.67293     5 1s   -1.15102     6 1s   -0.31786
   26.1     0.00000     1.26789     1 1s   -1.55143     1 1s    3.85388     1 2px   0.90287     1 2pz  -0.65173     2 1s    1.55068
                                    2 1s   -3.85222     2 2px   0.90380     2 2pz  -0.65078     3 1s   -0.35179     4 1s   -0.47412
                                    5 1s    0.47359     6 1s    0.35147
   27.1     0.00000     1.75840     1 1s    0.61797     1 3d1+  0.48060     1 3d2+  0.27657     2 1s   -0.61716     2 3d1+ -0.48055
                                    2 3d2+ -0.27624
   28.1     0.00000     1.92177     1 3d2+ -0.25550     1 3d1-  0.56291     2 3d2+  0.25565     2 3d1- -0.56304
   29.1     0.00000     2.01539     1 1s    0.48464     1 2px  -0.40514     1 2py  -0.33277     1 3d0  -0.34879     1 3d2+ -0.38580
                                    1 3d1-  0.42812     2 1s    0.48250     2 2px   0.40623     2 2py   0.33298     2 3d0  -0.34859
                                    2 3d2+ -0.38595     2 3d1-  0.42741     4 1s   -0.32894     5 1s   -0.32899
   30.1     0.00000     2.05190     1 1s    0.42121     1 1s   -0.30993     1 2px   0.26318     1 3d0   0.32516     1 3d1+  0.44735
                                    2 1s    0.42115     2 1s   -0.30993     2 2px  -0.26320     2 3d0   0.32440     2 3d1+  0.44710
   31.1     0.00000     2.20526     1 2py  -0.52571     1 3d2+  0.45828     1 3d1-  0.53057     2 2py   0.52582     2 3d2+  0.45788
                                    2 3d1-  0.53081     3 1s    0.42527     6 1s    0.42518
   32.1     0.00000     2.27662     1 1s   -0.27510     1 1s    0.78057     1 3d0  -0.63534     1 3d2+ -0.26464     2 1s    0.27528
                                    2 1s   -0.78096     2 3d0   0.63633     2 3d2+  0.26507     3 1s   -0.27141     4 1s   -0.41991
                                    5 1s    0.41982     6 1s    0.27241
   33.1     0.00000     2.41709     1 1s   -0.77163     1 2px  -0.44899     1 3d2-  0.60836     1 3d1-  0.39316     2 1s    0.77155
                                    2 2px  -0.44868     2 3d2- -0.60705     2 3d1- -0.39222     3 1s    0.42339     4 1s   -0.39801
                                    5 1s    0.39792     6 1s   -0.42231
   34.1     0.00000     2.45085     1 3d0  -0.49381     1 3d2- -0.32842     1 3d1+  0.51568     2 3d0  -0.49351     2 3d2- -0.33153
                                    2 3d1+  0.51488
   35.1     0.00000     2.74686     1 3d0  -0.28009     1 3d2-  0.72935     1 3d2+  0.25505     2 3d0  -0.27988     2 3d2-  0.72947
                                    2 3d2+  0.25392     4 1s   -0.55655     5 1s   -0.55651
   36.1     0.00000     2.88193     1 1s   -1.57053     1 2px  -0.95820     1 2pz   0.39006     1 3d0   0.27571     1 3d1+  0.58645
                                    1 3d2+ -0.70602     2 1s    1.57069     2 2px  -0.95803     2 2pz   0.39011     2 3d0  -0.27609
                                    2 3d1+ -0.58634     2 3d2+  0.70630


 HOMO      8.1    -0.343329 =      -9.3424eV
 LUMO      9.1     0.090381 =       2.4594eV
 LUMO-HOMO         0.433709 =      11.8018eV


 **********************************************************************************************************************************
 DATASETS  * FILE   NREC   LENGTH (MB)   RECORD NAMES
              1      19       31.10       500      610      700      900      950      970     1000      129      960     1100   
                                          VAR    BASINP    GEOM    SYMINP    ZMAT    AOBASIS   BASIS     P2S    ABASIS      S 
                                         1400     1410     1200     1210     1080     1600     1650     1300     1700   
                                           T        V       H0       H01     AOSYM     SMH    MOLCAS    ERIS     OPER   

              2       4        2.86       700     1000      520     2100   
                                         GEOM     BASIS   MCVARS     RHF  

 PROGRAMS   *        TOTAL    HF-SCF       INT
 CPU TIMES  *         0.38      0.09      0.18
 REAL TIME  *         0.58 SEC
 DISK USED  *        35.97 MB
 **********************************************************************************************************************************


 PROGRAM * MULTI (Direct Multiconfiguration SCF)       Authors: P.J. Knowles, H.-J. Werner (1984)


 Number of closed-shell orbitals:   7 (   7 )
 Number of active  orbitals:        2 (   2 )
 Number of external orbitals:      27 (  27 )

 State symmetry 1

 Number of electrons:     2    Spin symmetry=Singlet   Space symmetry=1
 Number of states:        3
 Number of CSFs:          3   (4 determinants, 4 intermediate states)

 Molecular orbitals read from record     2100.2  Type=RHF/CANONICAL (state 1.1)

 Wavefunction dump at record             2140.2

 Convergence thresholds  0.10E-01 (gradient)  0.10E-05 (energy)  0.10E-02 (step length)

 Weight factors for state symmetry  1:    0.33333   0.33333   0.33333

 Number of orbital rotations:      257   (    14 Core/Active    189 Core/Virtual   0 Active/Active     54 Active/Virtual)
 Total number of variables:        269

 Micro-Iterations solved by the two-step solver

 ITER. MIC  NCI  NEG     ENERGY(VAR)     ENERGY(PROJ)   ENERGY CHANGE     GRAD(0)  GRAD(ORB)   GRAD(CI)     STEP       TIME

   1   14    6    0     -77.69620771     -77.70175850   -0.00555079    0.09978002 0.00032348 0.00000000  0.10D+00      0.41
   2   12    6    0     -77.70161034     -77.70168081   -0.00007047    0.00814094 0.00000474 0.00000000  0.23D-01      0.55
   3   10    6    0     -77.70168196     -77.70168211   -0.00000015    0.00031307 0.00000001 0.00000000  0.11D-02      0.67
   4    5    4    0     -77.70168211     -77.70168211   -0.00000000    0.00000050 0.00000000 0.00000000  0.18D-05      0.74

 ** WVFN ****  CONVERGENCE REACHED, FINAL GRADIENT:  0.45D-11



 Results for state 1.1
 =====================

 !MCSCF STATE  1.1 Energy             -77.941962533411
 Nuclear energy                        29.69428069
 Kinetic energy                        77.23097345
 One electron energy                 -162.60330437
 Two electron energy                   54.96706114
 Virial ratio                           2.00920601

 !MCSCF STATE  1.1 Dipole moment        0.00019950     0.00004454    -0.00034432
 Dipole moment /Debye                   0.00050705     0.00011321    -0.00087512

 Results for state 2.1
 =====================

 !MCSCF STATE  2.1 Energy             -77.632686960804
 Nuclear energy                        29.69428069
 Kinetic energy                        77.39465536
 One electron energy                 -162.39524988
 Two electron energy                   55.06828223
 Virial ratio                           2.00307556

 !MCSCF STATE  2.1 Dipole moment        0.00158624     0.00006586    -0.00142685
 Dipole moment /Debye                   0.00403156     0.00016740    -0.00362644

 Results for state 3.1
 =====================

 !MCSCF STATE  3.1 Energy             -77.530396850442
 Nuclear energy                        29.69428069
 Kinetic energy                        77.55833683
 One electron energy                 -162.18719543
 Two electron energy                   54.96251789
 Virial ratio                           1.99963976

 !MCSCF STATE  3.1 Dipole moment       -0.00155780     0.00062764     0.00050481
 Dipole moment /Debye                  -0.00395927     0.00159519     0.00128302

 State-averaged charge density matrix saved on record  2140.2 (density set 1)

 !MCSCF expec         <1.1|DMX|1.1>     0.000199503184 au =     0.000507053301 Debye
 !MCSCF trans         <2.1|DMX|1.1>     1.218654442834 au =     3.097307758819 Debye
 !MCSCF expec         <2.1|DMX|2.1>     0.001586242295 au =     0.004031561692 Debye
 !MCSCF trans         <3.1|DMX|1.1>    -0.000313531055 au =    -0.000796864259 Debye
 !MCSCF trans         <3.1|DMX|2.1>     2.311499543516 au =     5.874861009809 Debye
 !MCSCF expec         <3.1|DMX|3.1>    -0.001557797197 au =    -0.003959266199 Debye

 !MCSCF expec         <1.1|DMY|1.1>     0.000044544213 au =     0.000113212681 Debye
 !MCSCF trans         <2.1|DMY|1.1>    -0.145367349341 au =    -0.369462747738 Debye
 !MCSCF expec         <2.1|DMY|2.1>     0.000065862868 au =     0.000167395748 Debye
 !MCSCF trans         <3.1|DMY|1.1>    -0.000090472553 au =    -0.000229943232 Debye
 !MCSCF trans         <3.1|DMY|2.1>    -0.275727375153 au =    -0.700783182142 Debye
 !MCSCF expec         <3.1|DMY|3.1>     0.000627635806 au =     0.001595186613 Debye

 !MCSCF expec         <1.1|DMZ|1.1>    -0.000344319323 au =    -0.000875115104 Debye
 !MCSCF trans         <2.1|DMZ|1.1>    -0.810732137090 au =    -2.060540584986 Debye
 !MCSCF expec         <2.1|DMZ|2.1>    -0.001426845299 au =    -0.003626441474 Debye
 !MCSCF trans         <3.1|DMZ|1.1>     0.000318127390 au =     0.000808546211 Debye
 !MCSCF trans         <3.1|DMZ|2.1>    -1.537767430485 au =    -3.908358945972 Debye
 !MCSCF expec         <3.1|DMZ|3.1>     0.000504812168 au =     0.001283020510 Debye


 NATURAL ORBITALS (state averaged)
 =================================

  Orbital  Occupation    Energy     Coefficients
    1.1     2.00000   -11.29031     1 1s    0.72786     2 1s    0.68034
    2.1     2.00000   -11.28991     1 1s    0.68038     2 1s   -0.72789
    3.1     2.00000    -0.96690     1 1s    0.29661     1 1s    0.27499     2 1s    0.29659     2 1s    0.27492
    4.1     2.00000    -0.81065     1 1s    0.29242     2 1s   -0.29242
    5.1     2.00000    -0.57674     1 2py   0.30736     2 2py   0.30823
    6.1     2.00000    -0.57303     1 2px   0.35911     2 2px  -0.35863
    7.1     2.00000    -0.46541     1 2py   0.29048     2 2py  -0.29044
    8.1     1.00000    -0.04167     1 2pz   0.37957     1 2pz   0.50197     2 2pz  -0.37990     2 2pz  -0.50237
    9.1     1.00000    -0.21146     1 2pz   0.29997     1 2pz   0.31206     2 2pz   0.29963     2 2pz   0.31167
   10.1    -0.00000     0.25185     1 1s    1.45369     1 2py  -0.31132     2 1s   -1.48525     2 2py  -0.30205     4 1s   -1.19909
                                    5 1s    1.21962     6 1s    0.26066
   11.1    -0.00000     0.25237     1 1s   -1.23589     1 2px   0.61713     1 2py  -0.36275     1 2pz   0.32238     2 1s   -1.19682
                                    2 2px  -0.61558     2 2py   0.36967     2 2pz  -0.31551     3 1s    1.09015     4 1s    0.81143
                                    5 1s    0.78077     6 1s    1.08194
   12.1    -0.00000     0.26752     1 1s   -0.70679     1 2py  -0.62852     2 1s    0.70844     2 2py  -0.62917     3 1s    1.25781
                                    6 1s   -1.25949
   13.1    -0.00000     0.33775     1 1s   -0.60415     1 2px   0.46092     1 2py   1.07872     2 1s   -0.60443     2 2px  -0.46026
                                    2 2py  -1.07870     3 1s   -0.72655     4 1s    1.53503     5 1s    1.53464     6 1s   -0.72660
   14.1    -0.00000     0.40623     1 1s    1.03278     1 2px   0.30017     1 2px   1.79432     1 2pz  -0.61224     2 1s   -1.03214
                                    2 2px   0.30023     2 2px   1.79465     2 2pz  -0.61263     4 1s    1.03568     5 1s   -1.03728
   15.1    -0.00000     0.70952     1 2py  -0.40063     1 2px   0.90135     1 2py   0.49075     2 2py  -0.40070     2 2px   0.90067
                                    2 2py   0.49085     4 1s    0.44098     5 1s   -0.44109
   16.1    -0.00000     0.75690     1 2px   0.55651     1 2py  -0.31359     1 2px  -0.82457     1 2py   0.40971     2 2px  -0.55658
                                    2 2py   0.31319     2 2px   0.82557     2 2py  -0.40913
   17.1    -0.00000     0.79693     1 2pz   0.77993     1 2pz  -0.64369     2 2pz   0.78025     2 2pz  -0.64398
   18.1    -0.00000     0.83707     1 1s    0.30228     1 1s   -0.34188     1 2pz   0.73605     1 2pz  -0.90964     2 1s    0.30235
                                    2 1s   -0.34237     2 2pz  -0.73569     2 2pz   0.90940
   19.1    -0.00000     0.84987     1 1s    0.76038     1 2px  -0.58730     1 2py   0.28917     1 2px   1.36348     1 2py  -0.41584
                                    1 2pz  -0.26391     2 1s   -0.75942     2 2px  -0.58722     2 2py   0.28951     2 2px   1.36365
                                    2 2py  -0.41635     2 2pz  -0.26454     3 1s    0.38639     6 1s   -0.38666
   20.1    -0.00000     0.96382     1 1s   -0.43850     1 2px  -0.27230     1 2py  -0.66988     1 2px   0.50319     1 2py   1.71718
                                    2 1s   -0.43876     2 2px   0.27265     2 2py   0.66980     2 2px  -0.50539     2 2py  -1.71714
                                    3 1s   -0.61412     4 1s    0.71737     5 1s    0.71814     6 1s   -0.61380
   21.1    -0.00000     1.03865     1 1s    0.77488     1 1s   -1.68265     1 2px   1.02949     1 2py   0.60298     1 2pz   0.49816
                                    2 1s    0.77582     2 1s   -1.68452     2 2px  -1.02831     2 2py  -0.60372     2 2pz  -0.49780
                                    3 1s    0.41898     4 1s    0.48513     4 1s    0.80098     5 1s    0.48505     5 1s    0.80131
                                    6 1s    0.41993
   22.1    -0.00000     1.07531     1 1s   -0.27112     1 1s    0.45869     1 2py  -0.57434     1 2px  -0.30183     1 2py   0.83322
                                    2 1s    0.27111     2 1s   -0.45854     2 2py  -0.57357     2 2px  -0.30200     2 2py   0.83286
                                    3 1s    0.64356     3 1s   -1.29871     4 1s    0.30599     5 1s   -0.30514     6 1s   -0.64128
                                    6 1s    1.29655
   23.1    -0.00000     1.08872     1 1s   -0.43925     1 1s    0.93665     1 2py  -0.25848     1 2px  -0.41383     2 1s   -0.44019
                                    2 1s    0.93816     2 2py   0.25985     2 2px   0.41501     3 1s    0.73042     3 1s   -0.96385
                                    4 1s   -0.30969     5 1s   -0.31009     6 1s    0.73189     6 1s   -0.96709
   24.1    -0.00000     1.16912     1 2px   0.55731     1 2py   0.26809     1 2px  -1.12605     1 2py  -0.36081     2 2px   0.55644
                                    2 2py   0.26770     2 2px  -1.12516     2 2py  -0.36100     4 1s    0.66613     4 1s   -1.21770
                                    5 1s   -0.66391     5 1s    1.21484
   25.1    -0.00000     1.18098     1 1s   -0.94248     1 1s    1.49571     1 2px   0.31657     1 2px  -0.48427     2 1s   -0.94172
                                    2 1s    1.49249     2 2px  -0.31826     2 2px   0.48786     3 1s   -0.32890     4 1s    0.66907
                                    4 1s   -1.15080     5 1s    0.67112     5 1s   -1.15383     6 1s   -0.32883
   26.1    -0.00000     1.25547     1 1s   -1.56211     1 1s    3.84449     1 2px   0.82540     1 2pz  -0.62683     2 1s    1.56185
                                    2 1s   -3.84360     2 2px   0.82606     2 2pz  -0.62597     3 1s   -0.36912     4 1s   -0.54544
                                    5 1s    0.54542     6 1s    0.36897
   27.1    -0.00000     1.74697     1 1s    0.61321     1 3d1+  0.48046     1 3d2+  0.27865     2 1s   -0.61243     2 3d1+ -0.48037
                                    2 3d2+ -0.27831
   28.1    -0.00000     1.91055     1 3d2+ -0.25541     1 3d1-  0.56414     2 3d2+  0.25544     2 3d1- -0.56405
   29.1    -0.00000     2.00834     1 1s    0.48537     1 2px  -0.40596     1 2py  -0.32900     1 3d0  -0.34880     1 3d2+ -0.38577
                                    1 3d1-  0.42489     2 1s    0.48311     2 2px   0.40699     2 2py   0.32919     2 3d0  -0.34853
                                    2 3d2+ -0.38599     2 3d1-  0.42438     4 1s   -0.32823     5 1s   -0.32826
   30.1    -0.00000     2.04081     1 1s    0.41555     1 1s   -0.29773     1 2px   0.26827     1 3d0   0.32006     1 3d1+  0.44754
                                    2 1s    0.41545     2 1s   -0.29756     2 2px  -0.26832     2 3d0   0.31922     2 3d1+  0.44726
   31.1    -0.00000     2.19671     1 2py  -0.52928     1 3d2+  0.45570     1 3d1-  0.53355     2 2py   0.52934     2 3d2+  0.45514
                                    2 3d1-  0.53378     3 1s    0.42519     6 1s    0.42495
   32.1    -0.00000     2.26615     1 1s   -0.27761     1 1s    0.78982     1 3d0  -0.63544     1 3d2+ -0.26167     2 1s    0.27783
                                    2 1s   -0.79035     2 3d0   0.63646     2 3d2+  0.26231     3 1s   -0.27241     4 1s   -0.42404
                                    5 1s    0.42393     6 1s    0.27358
   33.1    -0.00000     2.40575     1 1s   -0.77731     1 2px  -0.45016     1 3d2-  0.60864     1 3d1-  0.39120     2 1s    0.77724
                                    2 2px  -0.44984     2 3d2- -0.60706     2 3d1- -0.39032     3 1s    0.42594     4 1s   -0.39991
                                    5 1s    0.39983     6 1s   -0.42476
   34.1    -0.00000     2.43805     1 3d0  -0.49862     1 3d2- -0.32345     1 3d1+  0.51429     2 3d0  -0.49849     2 3d2- -0.32700
                                    2 3d1+  0.51338
   35.1    -0.00000     2.73764     1 3d0  -0.27767     1 3d2-  0.73098     1 3d2+  0.25384     2 3d0  -0.27748     2 3d2-  0.73115
                                    2 3d2+  0.25270     4 1s   -0.55860     5 1s   -0.55860
   36.1    -0.00000     2.87350     1 1s   -1.57662     1 2px  -0.96332     1 2pz   0.39264     1 3d0   0.27435     1 3d1+  0.58715
                                    1 3d2+ -0.70656     2 1s    1.57678     2 2px  -0.96316     2 2pz   0.39269     2 3d0  -0.27472
                                    2 3d1+ -0.58708     2 3d2+  0.70685


 Natural orbital dump (state averaged) at molpro section  2140.2    (Orbital set 2)



 **********************************************************************************************************************************
 DATASETS  * FILE   NREC   LENGTH (MB)   RECORD NAMES
              1      20       31.83       500      610      700      900      950      970     1000      129      960     1100   
                                          VAR    BASINP    GEOM    SYMINP    ZMAT    AOBASIS   BASIS     P2S    ABASIS      S 
                                         1400     1410     1200     1210     1080     1600     1650     1300     1700     1380   
                                           T        V       H0       H01     AOSYM     SMH    MOLCAS    ERIS     OPER     JKOP   

              2       5        5.42       700     1000      520     2100     2140   
                                         GEOM     BASIS   MCVARS     RHF     MCSCF   

 PROGRAMS   *        TOTAL     MULTI    HF-SCF       INT
 CPU TIMES  *         1.17      0.79      0.09      0.18
 REAL TIME  *         1.46 SEC
 DISK USED  *        39.01 MB
 **********************************************************************************************************************************
 Molecular orbitals read from record     2140.2  Type=MCSCF/NATURAL (state averaged)
 Occupation numbers read from record     2140.2  Type=MCSCF/NATURAL (state averaged)
 Orbital energies read from record       2140.2  Type=MCSCF/NATURAL (state averaged)
 Redundancy group numbers read from rec  2140.2  Type=MCSCF/NATURAL (state averaged)

 MULTI/6-31G* energy=    -77.530396850442

           MULTI          HF-SCF
    -77.53039685    -77.91187223
 **********************************************************************************************************************************
 Molpro calculation terminated
