
 Primary working directories    : /scratch.local/johan406.molpro_temp/molpro.DhvRO8z73v
 Secondary working directories  : /scratch.local/johan406.molpro_temp/molpro.DhvRO8z73v
 Wavefunction directory         : /home/goodpast/johan406/wfu/
 Main file repository           : /scratch.local/johan406.molpro_temp/molpro.DhvRO8z73v/

 id        : roweumn

 Nodes     nprocs
 acn06        1

 Using customized tuning parameters: mindgm=1; mindgv=20; mindgc=4; mindgr=1; noblas=0; minvec=7
 default implementation of scratch files=df  


 Variables initialized (934), CPU time= 0.00 sec
                                                                                 !leave this line blank
 
 gprint, orbitals=30
 memory, 125., m
 symmetry, nosym
 nelect=16
 basis=6-31g*
 
 geometry={
 C -0.702 0.070 0.273
 C 0.711 -0.119 -0.334
 H -1.252 1.119 0.002
 H -1.493 -0.670 0.147
 H 1.502 0.620 -0.208
 H 1.261 -1.169 -0.063
 }
 
 hf
 {multi,
 closed 7
 occ 9
 wf,spin=0;STATE,3
 }
 
 Commands  initialized (763), CPU time= 0.01 sec, 617 directives.
 Default parameters read. Elapsed time= 0.06 sec

 Checking input...
 Passed
1


                                         ***  PROGRAM SYSTEM MOLPRO  ***
                                       Copyright, TTI GmbH Stuttgart, 2015
                                    Version 2019.2 linked Oct 25 2019 22:50:27


 **********************************************************************************************************************************
 LABEL *                                                                                 
  64 bit serial version                                                                  DATE: 15-Mar-23          TIME: 16:30:17  
 **********************************************************************************************************************************

 SHA1:             8dbd9ae1082e4ce945b0f27595c9eb2d4aa09004
 **********************************************************************************************************************************


 Variable memory set to  125000000 words,  buffer space 

 SETTING NELECT         =        16.00000000                                  
 SETTING BASIS          =    6-31G*
 ZSYMEL=NOSYM


Geometry recognized as XYZ



 Recomputing integrals since basis changed


 Using spherical harmonics

 Library entry C      S 6-31G                selected for orbital group  1
 Library entry C      P 6-31G                selected for orbital group  1
 Library entry C      D 6-31G*               selected for orbital group  1
 Library entry H      S 6-31G                selected for orbital group  2


 PROGRAM * SEWARD (Integral evaluation for generally contracted gaussian basis sets)     Author: Roland Lindh, 1990

 Geometry written to block  1 of record 700


 Point group  C1  



 ATOMIC COORDINATES

 NR  ATOM    CHARGE       X              Y              Z

   1  C       6.00   -1.326587739    0.132280829    0.515895232
   2  C       6.00    1.343595275   -0.224877409   -0.631168526
   3  H       1.00   -2.365937108    2.114603533    0.003779452
   4  H       1.00   -2.821361104   -1.266116503    0.277789740
   5  H       1.00    2.838368639    1.171630197   -0.393063034
   6  H       1.00    2.382944643   -2.209089840   -0.119052746

 Bond lengths in Bohr (Angstrom)

 1-2  2.928001810  1-3  2.296108226  1-4  2.060717529  2-5  2.059435634  2-6  2.297739901
     ( 1.549431831)     ( 1.215048147)     ( 1.090484755)     ( 1.089806405)     ( 1.215911592)

 Bond angles

  1-2-5  122.26921227   1-2-6  115.50108140   2-1-3  115.51413068   2-1-4  122.23913266

  3-1-4  103.40000010   5-2-6  103.38501875

 NUCLEAR CHARGE:                   16
 NUMBER OF PRIMITIVE AOS:          72
 NUMBER OF SYMMETRY AOS:           70
 NUMBER OF CONTRACTIONS:           36   (   36A   )
 NUMBER OF CORE ORBITALS:           2   (    2A   )
 NUMBER OF VALENCE ORBITALS:       12   (   12A   )


 NUCLEAR REPULSION ENERGY   30.06531736

 Eigenvalues of metric

         1 0.151E-01 0.315E-01 0.543E-01 0.546E-01 0.949E-01 0.235E+00 0.246E+00 0.297E+00


 Contracted 2-electron integrals neglected if value below      1.0D-11
 AO integral compression algorithm  1   Integral accuracy      1.0D-11

     1.311 MB (compressed) written to integral file ( 67.6%)


 NUMBER OF SORTED TWO-ELECTRON INTEGRALS:     222111.     BUFFER LENGTH:  32768
 NUMBER OF SEGMENTS:   1  SEGMENT LENGTH:     222111      RECORD LENGTH: 524288

 Memory used in sort:       0.78 MW

 SORT1 READ      284735. AND WROTE      212517. INTEGRALS IN      1 RECORDS. CPU TIME:     0.00 SEC, REAL TIME:     0.01 SEC
 SORT2 READ      212517. AND WROTE      222111. INTEGRALS IN      5 RECORDS. CPU TIME:     0.02 SEC, REAL TIME:     0.02 SEC

 FILE SIZES:   FILE 1:    31.4 MBYTE,  FILE 4:     4.2 MBYTE,   TOTAL:     35.6 MBYTE

 OPERATOR DM      FOR CENTER  0  COORDINATES:    0.000000    0.000000    0.000000


 **********************************************************************************************************************************
 DATASETS  * FILE   NREC   LENGTH (MB)   RECORD NAMES
              1      19       31.10       500      610      700      900      950      970     1000      129      960     1100   
                                          VAR    BASINP    GEOM    SYMINP    ZMAT    AOBASIS   BASIS     P2S    ABASIS      S 
                                         1400     1410     1200     1210     1080     1600     1650     1300     1700   
                                           T        V       H0       H01     AOSYM     SMH    MOLCAS    ERIS     OPER   

 PROGRAMS   *        TOTAL       INT
 CPU TIMES  *         0.27      0.17
 REAL TIME  *         0.42 SEC
 DISK USED  *        35.97 MB
 **********************************************************************************************************************************


 PROGRAM * RHF-SCF (CLOSED SHELL)       Authors: W. Meyer, H.-J. Werner


 NUMBER OF ELECTRONS:       8+    8-    SPACE SYMMETRY=1    SPIN SYMMETRY: Singlet 
 CONVERGENCE THRESHOLDS:    1.00E-05 (Density)    1.00E-07 (Energy)
 MAX. NUMBER OF ITERATIONS:       60
 INTERPOLATION TYPE:            DIIS
 INTERPOLATION STEPS:              2 (START)      1 (STEP)
 LEVEL SHIFTS:                  0.00 (CLOSED)  0.00 (OPEN) 



 Orbital guess generated from atomic densities. Full valence occupancy:    8

 Molecular orbital dump at record        2100.2

 Initial occupancy:   8

 ITERATION    DDIFF          GRAD             ENERGY        2-EL.EN.            DIPOLE MOMENTS         DIIS   ORB.
    1      0.000D+00      0.000D+00       -77.91075972    111.399873   -0.00010   -0.00043    0.00003    0    start
    2      0.000D+00      0.674D-02       -77.92916217    110.574735   -0.00001    0.00025   -0.00009    1    diag
    3      0.671D-02      0.226D-02       -77.93133081    110.952338   -0.00012    0.00031    0.00000    2    diag
    4      0.292D-02      0.803D-03       -77.93174628    110.819695   -0.00006    0.00038   -0.00007    3    diag
    5      0.140D-02      0.290D-03       -77.93185008    110.829214   -0.00014    0.00040    0.00001    4    diag
    6      0.898D-03      0.881D-04       -77.93186090    110.827087   -0.00001    0.00039   -0.00012    5    diag
    7      0.274D-03      0.186D-04       -77.93186132    110.827543   -0.00019    0.00040    0.00005    6    diag
    8      0.446D-04      0.395D-05       -77.93186133    110.827559   -0.00000    0.00039   -0.00013    7    diag
    9      0.761D-05      0.234D-05       -77.93186133    110.827560   -0.00016    0.00040    0.00003    0    orth

 Final occupancy:   8

 !RHF STATE  1.1 Energy               -77.931861332656
 Nuclear energy                        30.06531736
 One-electron energy                 -163.41095860
 Two-electron energy                   55.41377991
 Virial quotient                       -1.00882020
 !RHF STATE  1.1 Dipole moment         -0.00016168     0.00040131     0.00002854
 Dipole moment /Debye                  -0.00041092     0.00101995     0.00007255

 ELECTRON ORBITALS
 =================

  Orbital  Occupation    Energy     Coefficients
    1.1     2.00000   -11.28069     1 1s    0.72633     2 1s    0.68194
    2.1     2.00000   -11.28009     1 1s    0.68204     2 1s   -0.72642
    3.1     2.00000    -0.97131     1 1s    0.29269     1 1s    0.26935     2 1s    0.29271     2 1s    0.26934
    4.1     2.00000    -0.80181     1 1s    0.26375     2 1s   -0.26367
    5.1     2.00000    -0.57666     1 2py   0.30808     2 2py   0.30784
    6.1     2.00000    -0.55410     1 2px   0.37596     2 2px  -0.37576
    7.1     2.00000    -0.47792     1 2py  -0.29590     2 2py   0.29641
    8.1     2.00000    -0.34911     1 2pz   0.32574     1 2pz   0.31115     2 2pz   0.32576     2 2pz   0.31115
    9.1     0.00000     0.09289     1 1s    0.32564     1 2pz   0.34926     1 2pz   0.52298     2 1s    0.32568     2 2pz  -0.34924
                                    2 2pz  -0.52296
   10.1     0.00000     0.25726     1 1s    0.81999     1 2py   0.29443     2 1s   -1.61668     2 2px  -0.28535     2 2py   0.42721
                                    2 2pz  -0.35298     3 1s   -0.81308     5 1s    0.58525     6 1s    1.45951
   11.1     0.00000     0.25751     1 1s   -1.61446     1 2px   0.66915     1 2py  -0.31682     1 2pz   0.42560     2 1s   -0.80101
                                    2 2px  -0.62058     2 2pz  -0.26653     3 1s    1.35432     4 1s    0.98423     5 1s    0.78140
                                    6 1s    0.60381
   12.1     0.00000     0.28470     1 1s    1.08762     1 2py  -0.60651     2 1s   -1.09788     2 2py  -0.60398     3 1s    0.30073
                                    4 1s   -1.36340     5 1s    1.37010     6 1s   -0.29249
   13.1     0.00000     0.34468     1 1s   -0.40325     1 2py   0.25787     1 2px   0.34133     1 2py   1.20800     2 1s   -0.40854
                                    2 2py  -0.25786     2 2px  -0.34072     2 2py  -1.20791     3 1s   -0.90843     4 1s    1.43761
                                    5 1s    1.43958     6 1s   -0.90670
   14.1     0.00000     0.42251     1 1s    1.31918     1 2px   0.27198     1 2px   1.85358     1 2pz  -0.64557     2 1s   -1.31822
                                    2 2px   0.27209     2 2px   1.85418     2 2pz  -0.64558     3 1s    0.31521     4 1s    0.71852
                                    5 1s   -0.72159     6 1s   -0.31349
   15.1     0.00000     0.72301     1 2py  -0.41895     1 2px   0.45272     1 2py   0.55581     2 2py  -0.41857     2 2px   0.45724
                                    2 2py   0.55552     3 1s   -0.29240     4 1s    0.42142     5 1s   -0.42177     6 1s    0.29204
   16.1     0.00000     0.74804     1 1s   -0.26873     1 2px  -0.60290     1 2px   0.95278     2 1s   -0.26863     2 2px   0.60181
                                    2 2px  -0.95115
   17.1     0.00000     0.80433     1 2pz   0.76903     1 2pz  -0.61813     2 2pz   0.76866     2 2pz  -0.61763
   18.1     0.00000     0.84938     1 1s   -0.34335     1 1s    0.34082     1 2pz  -0.73417     1 2px   0.25339     1 2pz   0.88004
                                    2 1s   -0.34310     2 1s    0.33971     2 2pz   0.73472     2 2px  -0.25099     2 2pz  -0.88081
   19.1     0.00000     0.86102     1 1s    0.66142     1 2px  -0.62790     1 2px   1.33844     1 2py  -0.29335     1 2pz  -0.27790
                                    2 1s   -0.66186     2 2px  -0.62904     2 2px   1.34065     2 2py  -0.28808     2 2pz  -0.27691
                                    3 1s    0.37439     6 1s   -0.37367
   20.1     0.00000     0.94912     1 1s    0.30572     1 2py   0.72711     1 2px  -0.49344     1 2py  -1.93794     2 1s    0.31032
                                    2 2py  -0.72795     2 2px   0.48990     2 2py   1.93908     3 1s    0.55159     4 1s   -0.77516
                                    5 1s   -0.77561     6 1s    0.55248
   21.1     0.00000     1.04192     1 1s   -0.89194     1 1s    1.61605     1 2px  -0.71196     1 2pz  -0.60447     2 1s   -0.89167
                                    2 1s    1.61437     2 2px   0.71429     2 2pz   0.60389     3 1s   -0.47301     3 1s   -0.29215
                                    4 1s   -0.42696     4 1s   -0.42017     5 1s   -0.42624     5 1s   -0.42249     6 1s   -0.47332
                                    6 1s   -0.29118
   22.1     0.00000     1.07738     1 1s    0.27167     1 1s   -0.40890     1 2py   0.58469     1 2px   0.33248     1 2py  -0.85381
                                    2 1s   -0.28779     2 1s    0.43613     2 2py   0.59022     2 2px   0.34096     2 2py  -0.85260
                                    3 1s   -0.60995     3 1s    1.26187     4 1s   -0.35414     5 1s    0.35022     6 1s    0.62863
                                    6 1s   -1.28654
   23.1     0.00000     1.09384     1 1s   -0.59496     1 1s    1.03167     1 2py  -0.28842     1 2px  -0.32798     2 1s   -0.59013
                                    2 1s    1.02664     2 2py   0.27299     2 2px   0.31956     3 1s    0.74015     3 1s   -1.03364
                                    6 1s    0.72465     6 1s   -1.00203
   24.1     0.00000     1.17091     1 1s   -0.31304     1 1s    0.28985     1 2px   0.53663     1 2py   0.29676     1 2px  -1.02611
                                    1 2py  -0.37842     2 1s    0.29058     2 1s   -0.25415     2 2px   0.52872     2 2py   0.29188
                                    2 2px  -1.01463     2 2py  -0.37579     4 1s    0.66541     4 1s   -1.29087     5 1s   -0.64845
                                    5 1s    1.26301
   25.1     0.00000     1.19277     1 1s   -0.84884     1 1s    1.37587     1 2px   0.31938     1 2px  -0.45195     2 1s   -0.85222
                                    2 1s    1.37215     2 2px  -0.33291     2 2px   0.47931     4 1s    0.68895     4 1s   -1.14047
                                    5 1s    0.70585     5 1s   -1.17198
   26.1     0.00000     1.28085     1 1s    1.55635     1 1s   -4.03589     1 2px  -0.96128     1 2pz   0.69072     2 1s   -1.55775
                                    2 1s    4.03804     2 2px  -0.96050     2 2pz   0.69097     3 1s    0.29428     4 1s    0.51345
                                    5 1s   -0.51642     6 1s   -0.29329
   27.1     0.00000     1.78064     1 1s   -0.25504     1 1s    0.75773     1 3d1+  0.50178     1 3d2+  0.31922     2 1s    0.25503
                                    2 1s   -0.75779     2 3d1+ -0.50176     2 3d2+ -0.31908
   28.1     0.00000     1.88797     1 3d2-  0.28719     1 3d1- -0.56972     2 3d2- -0.28695     2 3d1-  0.56982
   29.1     0.00000     2.04496     1 1s    0.38070     1 1s   -0.63207     1 3d0   0.48317     1 3d1+  0.45418     2 1s    0.38072
                                    2 1s   -0.63192     2 3d0   0.48346     2 3d1+  0.45425
   30.1     0.00000     2.12053     1 2px  -0.36955     1 2py  -0.63018     1 3d2+ -0.33891     1 3d1-  0.60397     2 2px   0.37071
                                    2 2py   0.63001     2 3d2+ -0.33856     2 3d1-  0.60404     4 1s   -0.28746     4 1s   -0.28809
                                    5 1s   -0.28765     5 1s   -0.28879
   31.1     0.00000     2.16285     1 2px   0.32613     1 2py  -0.41330     1 3d2+  0.53634     1 3d1-  0.38938     2 2px  -0.32580
                                    2 2py   0.41321     2 3d2+  0.53724     2 3d1-  0.38991     3 1s    0.31404     6 1s    0.31466
   32.1     0.00000     2.29587     1 1s   -0.35056     1 1s    1.08997     1 3d0  -0.62521     1 3d2+ -0.30147     2 1s    0.35070
                                    2 1s   -1.08901     2 3d0   0.62537     2 3d2+  0.30021     3 1s   -0.40019     4 1s   -0.25436
                                    5 1s    0.25369     6 1s    0.39942
   33.1     0.00000     2.45370     1 3d2- -0.63103     1 3d1- -0.37638     2 3d2-  0.63202     2 3d1-  0.37661     3 1s   -0.27944
                                    4 1s    0.55854     5 1s   -0.55800     6 1s    0.27982
   34.1     0.00000     2.51303     1 3d0  -0.53617     1 3d1+  0.53984     2 3d0  -0.53704     2 3d1+  0.54038
   35.1     0.00000     2.73103     1 3d2-  0.78027     2 3d2-  0.78128     4 1s   -0.51815     5 1s   -0.52022
   36.1     0.00000     2.89267     1 1s    1.65087     1 2px   0.31446     1 2px   0.97421     1 2pz  -0.39839     1 3d0  -0.25519
                                    1 3d1+ -0.61100     1 3d2+  0.69674     2 1s   -1.65081     2 2px   0.31443     2 2px   0.97419
                                    2 2pz  -0.39839     2 3d0   0.25536     2 3d1+  0.61088     2 3d2+ -0.69673


 HOMO      8.1    -0.349110 =      -9.4998eV
 LUMO      9.1     0.092895 =       2.5278eV
 LUMO-HOMO         0.442005 =      12.0276eV


 **********************************************************************************************************************************
 DATASETS  * FILE   NREC   LENGTH (MB)   RECORD NAMES
              1      19       31.10       500      610      700      900      950      970     1000      129      960     1100   
                                          VAR    BASINP    GEOM    SYMINP    ZMAT    AOBASIS   BASIS     P2S    ABASIS      S 
                                         1400     1410     1200     1210     1080     1600     1650     1300     1700   
                                           T        V       H0       H01     AOSYM     SMH    MOLCAS    ERIS     OPER   

              2       4        2.86       700     1000      520     2100   
                                         GEOM     BASIS   MCVARS     RHF  

 PROGRAMS   *        TOTAL    HF-SCF       INT
 CPU TIMES  *         0.35      0.08      0.17
 REAL TIME  *         0.53 SEC
 DISK USED  *        35.97 MB
 **********************************************************************************************************************************


 PROGRAM * MULTI (Direct Multiconfiguration SCF)       Authors: P.J. Knowles, H.-J. Werner (1984)


 Number of closed-shell orbitals:   7 (   7 )
 Number of active  orbitals:        2 (   2 )
 Number of external orbitals:      27 (  27 )

 State symmetry 1

 Number of electrons:     2    Spin symmetry=Singlet   Space symmetry=1
 Number of states:        3
 Number of CSFs:          3   (4 determinants, 4 intermediate states)

 Molecular orbitals read from record     2100.2  Type=RHF/CANONICAL (state 1.1)

 Wavefunction dump at record             2140.2

 Convergence thresholds  0.10E-01 (gradient)  0.10E-05 (energy)  0.10E-02 (step length)

 Weight factors for state symmetry  1:    0.33333   0.33333   0.33333

 Number of orbital rotations:      257   (    14 Core/Active    189 Core/Virtual   0 Active/Active     54 Active/Virtual)
 Total number of variables:        269

 Micro-Iterations solved by the two-step solver

 ITER. MIC  NCI  NEG     ENERGY(VAR)     ENERGY(PROJ)   ENERGY CHANGE     GRAD(0)  GRAD(ORB)   GRAD(CI)     STEP       TIME

   1    7    5    0     -77.70938324     -77.71508351   -0.00570027    0.10430379 0.00009271 0.00000000  0.68D-01      0.10
   2    7    5    0     -77.71502718     -77.71502938   -0.00000220    0.00219652 0.00000048 0.00000000  0.16D-02      0.19
   3    5    4    0     -77.71502938     -77.71502938   -0.00000000    0.00000161 0.00000000 0.00000000  0.27D-05      0.26

 ** WVFN ****  CONVERGENCE REACHED, FINAL GRADIENT:  0.74D-11



 Results for state 1.1
 =====================

 !MCSCF STATE  1.1 Energy             -77.960989718189
 Nuclear energy                        30.06531736
 Kinetic energy                        77.29079061
 One electron energy                 -163.39668750
 Two electron energy                   55.37038043
 Virial ratio                           2.00867114

 !MCSCF STATE  1.1 Dipole moment       -0.00007492     0.00031446    -0.00005422
 Dipole moment /Debye                  -0.00019043     0.00079923    -0.00013781

 Results for state 2.1
 =====================

 !MCSCF STATE  2.1 Energy             -77.646408999136
 Nuclear energy                        30.06531736
 Kinetic energy                        77.45790394
 One electron energy                 -163.14403200
 Two electron energy                   55.43230564
 Virial ratio                           2.00243365

 !MCSCF STATE  2.1 Dipole moment       -0.00001689     0.00038391    -0.00004706
 Dipole moment /Debye                  -0.00004292     0.00097575    -0.00011962

 Results for state 3.1
 =====================

 !MCSCF STATE  3.1 Energy             -77.537689420039
 Nuclear energy                        30.06531736
 Kinetic energy                        77.62501726
 One electron energy                 -162.89137648
 Two electron energy                   55.28836971
 Virial ratio                           1.99887500

 !MCSCF STATE  3.1 Dipole moment       -0.00009038     0.00047430     0.00005016
 Dipole moment /Debye                  -0.00022972     0.00120547     0.00012748

 State-averaged charge density matrix saved on record  2140.2 (density set 1)

 !MCSCF expec         <1.1|DMX|1.1>    -0.000074924469 au =    -0.000190426531 Debye
 !MCSCF trans         <2.1|DMX|1.1>     1.215098237561 au =     3.088269378621 Debye
 !MCSCF expec         <2.1|DMX|2.1>    -0.000016886977 au =    -0.000042919602 Debye
 !MCSCF trans         <3.1|DMX|1.1>    -0.000021152205 au =    -0.000053760021 Debye
 !MCSCF trans         <3.1|DMX|2.1>     2.252228968976 au =     5.724220102971 Debye
 !MCSCF expec         <3.1|DMX|3.1>    -0.000090383297 au =    -0.000229716379 Debye

 !MCSCF expec         <1.1|DMY|1.1>     0.000314461670 au =     0.000799229491 Debye
 !MCSCF trans         <2.1|DMY|1.1>    -0.193385333253 au =    -0.491504295288 Debye
 !MCSCF expec         <2.1|DMY|2.1>     0.000383914318 au =     0.000975748951 Debye
 !MCSCF trans         <3.1|DMY|1.1>    -0.000048333616 au =    -0.000122843751 Debye
 !MCSCF trans         <3.1|DMY|2.1>    -0.358446777552 au =    -0.911021160890 Debye
 !MCSCF expec         <3.1|DMY|3.1>     0.000474300836 au =     0.001205473520 Debye

 !MCSCF expec         <1.1|DMZ|1.1>    -0.000054223677 au =    -0.000137813813 Debye
 !MCSCF trans         <2.1|DMZ|1.1>    -0.832001293997 au =    -2.114597848797 Debye
 !MCSCF expec         <2.1|DMZ|2.1>    -0.000047064465 au =    -0.000119618102 Debye
 !MCSCF trans         <3.1|DMZ|1.1>    -0.000016329701 au =    -0.000041503242 Debye
 !MCSCF trans         <3.1|DMZ|2.1>    -1.542144789130 au =    -3.919484353156 Debye
 !MCSCF expec         <3.1|DMZ|3.1>     0.000050158496 au =     0.000127481830 Debye


 NATURAL ORBITALS (state averaged)
 =================================

  Orbital  Occupation    Energy     Coefficients
    1.1     2.00000   -11.28596     1 1s    0.69747     2 1s    0.71143
    2.1     2.00000   -11.28549     1 1s    0.71148     2 1s   -0.69752
    3.1     2.00000    -0.97676     1 1s    0.29826     1 1s    0.27091     2 1s    0.29829     2 1s    0.27092
    4.1     2.00000    -0.80604     1 1s    0.29580     2 1s   -0.29570
    5.1     2.00000    -0.58362     1 2py   0.31081     2 2py   0.31065
    6.1     2.00000    -0.56149     1 2px   0.37793     2 2px  -0.37768
    7.1     2.00000    -0.48171     1 2py  -0.29962     2 2py   0.30008
    8.1     1.00000    -0.21650     1 2pz   0.30425     1 2pz   0.31435     2 2pz   0.30428     2 2pz   0.31438
    9.1     1.00000    -0.03961     1 1s    0.26821     1 2pz   0.37782     1 2pz   0.50395     2 1s    0.26824     2 2pz  -0.37784
                                    2 2pz  -0.50394
   10.1    -0.00000     0.25199     1 1s    1.17771     1 2py   0.41239     2 1s   -1.24542     2 2py   0.42514     2 2pz  -0.25199
                                    3 1s   -1.18121     6 1s    1.23707
   11.1    -0.00000     0.25522     1 1s   -1.31276     1 2px   0.68445     1 2pz   0.35826     2 1s   -1.23729     2 2px  -0.68077
                                    2 2pz  -0.34350     3 1s    1.07206     4 1s    0.93188     5 1s    0.91134     6 1s    1.00634
   12.1    -0.00000     0.27857     1 1s    1.18557     1 2py  -0.57676     2 1s   -1.19688     2 2py  -0.57402     4 1s   -1.36971
                                    5 1s    1.37718
   13.1    -0.00000     0.34174     1 1s   -0.41615     1 2py   0.25909     1 2px   0.34683     1 2py   1.19954     2 1s   -0.42146
                                    2 2py  -0.25907     2 2px  -0.34608     2 2py  -1.19937     3 1s   -0.89734     4 1s    1.44333
                                    5 1s    1.44510     6 1s   -0.89557
   14.1    -0.00000     0.41527     1 1s    1.26473     1 2px   0.28713     1 2px   1.82330     1 2pz  -0.63081     2 1s   -1.26375
                                    2 2px   0.28723     2 2px   1.82394     2 2pz  -0.63078     3 1s    0.32565     4 1s    0.73761
                                    5 1s   -0.74077     6 1s   -0.32385
   15.1    -0.00000     0.71657     1 2py  -0.42843     1 2px   0.45778     1 2py   0.55949     2 2py  -0.42808     2 2px   0.46241
                                    2 2py   0.55930     3 1s   -0.28797     4 1s    0.41834     5 1s   -0.41868     6 1s    0.28764
   16.1    -0.00000     0.73778     1 2px  -0.59707     1 2px   0.92601     2 2px   0.59607     2 2px  -0.92446
   17.1    -0.00000     0.79741     1 2pz   0.77643     1 2pz  -0.62885     2 2pz   0.77636     2 2pz  -0.62871
   18.1    -0.00000     0.84040     1 1s   -0.32401     1 1s    0.31532     1 2pz  -0.72877     1 2px   0.26005     1 2pz   0.90545
                                    2 1s   -0.32369     2 1s    0.31405     2 2pz   0.72900     2 2px  -0.25740     2 2pz  -0.90601
   19.1    -0.00000     0.85279     1 1s    0.74741     1 2px  -0.62255     1 2px   1.37909     1 2py  -0.29710     1 2pz  -0.30663
                                    2 1s   -0.74792     2 2px  -0.62357     2 2px   1.38108     2 2py  -0.29212     2 2pz  -0.30553
                                    3 1s    0.37205     6 1s   -0.37139
   20.1    -0.00000     0.94481     1 1s    0.29805     1 2py   0.73134     1 2px  -0.49028     1 2py  -1.94413     2 1s    0.30290
                                    2 2py  -0.73219     2 2px   0.48672     2 2py   1.94533     3 1s    0.56763     4 1s   -0.78447
                                    5 1s   -0.78503     6 1s    0.56869
   21.1    -0.00000     1.03830     1 1s   -0.90580     1 1s    1.65574     1 2px  -0.73929     1 2pz  -0.58954     2 1s   -0.90560
                                    2 1s    1.65423     2 2px   0.74155     2 2pz   0.58900     3 1s   -0.46261     3 1s   -0.31194
                                    4 1s   -0.43025     4 1s   -0.43507     5 1s   -0.42958     5 1s   -0.43729     6 1s   -0.46284
                                    6 1s   -0.31114
   22.1    -0.00000     1.07149     1 1s    0.25245     1 1s   -0.36999     1 2py   0.58780     1 2px   0.31568     1 2py  -0.86593
                                    2 1s   -0.26609     2 1s    0.39309     2 2py   0.59210     2 2px   0.32297     2 2py  -0.86374
                                    3 1s   -0.60650     3 1s    1.25982     4 1s   -0.39824     5 1s    0.39457     6 1s    0.62308
                                    6 1s   -1.28088
   23.1    -0.00000     1.09076     1 1s   -0.56711     1 1s    0.99140     1 2py  -0.27838     1 2px  -0.31996     2 1s   -0.56389
                                    2 1s    0.98919     2 2py   0.26475     2 2px   0.31316     3 1s    0.74667     3 1s   -1.01775
                                    6 1s    0.73331     6 1s   -0.99049
   24.1    -0.00000     1.16707     1 1s   -0.25346     1 2px   0.54229     1 2py   0.27494     1 2px  -1.08139     1 2py  -0.34578
                                    2 2px   0.53519     2 2py   0.27110     2 2px  -1.07117     2 2py  -0.34407     4 1s    0.66265
                                    4 1s   -1.25868     5 1s   -0.64776     5 1s    1.23437
   25.1    -0.00000     1.19036     1 1s   -0.85347     1 1s    1.38706     1 2px   0.32459     1 2px  -0.45642     2 1s   -0.85374
                                    2 1s    1.37669     2 2px  -0.33660     2 2px   0.48236     4 1s    0.68893     4 1s   -1.13919
                                    5 1s    0.70388     5 1s   -1.16597
   26.1    -0.00000     1.26682     1 1s    1.56884     1 1s   -4.03689     1 2px  -0.90324     1 2pz   0.67103     2 1s   -1.57062
                                    2 1s    4.03964     2 2px  -0.90224     2 2pz   0.67132     3 1s    0.31451     4 1s    0.56535
                                    5 1s   -0.56898     6 1s   -0.31351
   27.1    -0.00000     1.76756     1 1s   -0.25406     1 1s    0.75227     1 3d1+  0.50146     1 3d2+  0.32124     2 1s    0.25403
                                    2 1s   -0.75230     2 3d1+ -0.50147     2 3d2+ -0.32112
   28.1    -0.00000     1.87577     1 3d2-  0.28414     1 3d1- -0.57108     2 3d2- -0.28392     2 3d1-  0.57123
   29.1    -0.00000     2.03442     1 1s    0.37952     1 1s   -0.62263     1 3d0   0.48001     1 3d1+  0.46016     2 1s    0.37958
                                    2 1s   -0.62264     2 3d0   0.48036     2 3d1+  0.46023
   30.1    -0.00000     2.11141     1 2px  -0.38514     1 2py  -0.61350     1 3d2+ -0.36139     1 3d1-  0.58840     2 2px   0.38630
                                    2 2py   0.61334     2 3d2+ -0.36106     2 3d1-  0.58844     4 1s   -0.29007     4 1s   -0.28894
                                    5 1s   -0.29029     5 1s   -0.28965
   31.1    -0.00000     2.15167     1 2px   0.31523     1 2py  -0.43849     1 3d2+  0.52494     1 3d1-  0.41237     2 2px  -0.31485
                                    2 2py   0.43841     2 3d2+  0.52590     2 3d1-  0.41291     3 1s    0.31932     6 1s    0.32001
   32.1    -0.00000     2.28396     1 1s   -0.35394     1 1s    1.10252     1 3d0  -0.62502     1 3d2+ -0.29947     2 1s    0.35407
                                    2 1s   -1.10150     2 3d0   0.62519     2 3d2+  0.29813     3 1s   -0.40378     4 1s   -0.25508
                                    5 1s    0.25441     6 1s    0.40298
   33.1    -0.00000     2.44104     1 3d2- -0.63113     1 3d1- -0.37386     2 3d2-  0.63227     2 3d1-  0.37406     3 1s   -0.27997
                                    4 1s    0.56248     5 1s   -0.56190     6 1s    0.28047
   34.1    -0.00000     2.49864     1 3d0  -0.53984     1 3d1+  0.53840     2 3d0  -0.54077     2 3d1+  0.53895
   35.1    -0.00000     2.72165     1 3d2-  0.78117     2 3d2-  0.78212     4 1s   -0.51962     5 1s   -0.52165
   36.1    -0.00000     2.88331     1 1s    1.65851     1 2px   0.30909     1 2px   0.97983     1 2pz  -0.40120     1 3d0  -0.25385
                                    1 3d1+ -0.61166     1 3d2+  0.69740     2 1s   -1.65844     2 2px   0.30907     2 2px   0.97981
                                    2 2pz  -0.40121     2 3d0   0.25402     2 3d1+  0.61154     2 3d2+ -0.69737


 Natural orbital dump (state averaged) at molpro section  2140.2    (Orbital set 2)



 **********************************************************************************************************************************
 DATASETS  * FILE   NREC   LENGTH (MB)   RECORD NAMES
              1      20       31.83       500      610      700      900      950      970     1000      129      960     1100   
                                          VAR    BASINP    GEOM    SYMINP    ZMAT    AOBASIS   BASIS     P2S    ABASIS      S 
                                         1400     1410     1200     1210     1080     1600     1650     1300     1700     1380   
                                           T        V       H0       H01     AOSYM     SMH    MOLCAS    ERIS     OPER     JKOP   

              2       5        5.42       700     1000      520     2100     2140   
                                         GEOM     BASIS   MCVARS     RHF     MCSCF   

 PROGRAMS   *        TOTAL     MULTI    HF-SCF       INT
 CPU TIMES  *         0.66      0.31      0.08      0.17
 REAL TIME  *         0.91 SEC
 DISK USED  *        39.02 MB
 **********************************************************************************************************************************
 Molecular orbitals read from record     2140.2  Type=MCSCF/NATURAL (state averaged)
 Occupation numbers read from record     2140.2  Type=MCSCF/NATURAL (state averaged)
 Orbital energies read from record       2140.2  Type=MCSCF/NATURAL (state averaged)
 Redundancy group numbers read from rec  2140.2  Type=MCSCF/NATURAL (state averaged)

 MULTI/6-31G* energy=    -77.537689420039

           MULTI          HF-SCF
    -77.53768942    -77.93186133
 **********************************************************************************************************************************
 Molpro calculation terminated
