
 Primary working directories    : /scratch.local/johan406.molpro_temp/molpro.eflQGKkKpf
 Secondary working directories  : /scratch.local/johan406.molpro_temp/molpro.eflQGKkKpf
 Wavefunction directory         : /home/goodpast/johan406/wfu/
 Main file repository           : /scratch.local/johan406.molpro_temp/molpro.eflQGKkKpf/

 id        : roweumn

 Nodes     nprocs
 acn06        1

 Using customized tuning parameters: mindgm=1; mindgv=20; mindgc=4; mindgr=1; noblas=0; minvec=7
 default implementation of scratch files=df  


 Variables initialized (934), CPU time= 0.01 sec
                                                                                 !leave this line blank
 
 gprint, orbitals=30
 memory, 125., m
 symmetry, nosym
 nelect=16
 basis=6-31g*
 
 geometry={
 C -0.696 0.086 0.273
 C 0.705 -0.136 -0.333
 H -1.245 1.079 0.026
 H -1.405 -0.700 0.105
 H 1.414 0.650 -0.166
 H 1.254 -1.129 -0.086
 }
 
 hf
 {multi,
 closed 7
 occ 9
 wf,spin=0;STATE,3
 }
 
 Commands  initialized (763), CPU time= 0.01 sec, 617 directives.
 Default parameters read. Elapsed time= 0.06 sec

 Checking input...
 Passed
1


                                         ***  PROGRAM SYSTEM MOLPRO  ***
                                       Copyright, TTI GmbH Stuttgart, 2015
                                    Version 2019.2 linked Oct 25 2019 22:50:27


 **********************************************************************************************************************************
 LABEL *                                                                                 
  64 bit serial version                                                                  DATE: 15-Mar-23          TIME: 16:30:51  
 **********************************************************************************************************************************

 SHA1:             8dbd9ae1082e4ce945b0f27595c9eb2d4aa09004
 **********************************************************************************************************************************


 Variable memory set to  125000000 words,  buffer space 

 SETTING NELECT         =        16.00000000                                  
 SETTING BASIS          =    6-31G*
 ZSYMEL=NOSYM


Geometry recognized as XYZ



 Recomputing integrals since basis changed


 Using spherical harmonics

 Library entry C      S 6-31G                selected for orbital group  1
 Library entry C      P 6-31G                selected for orbital group  1
 Library entry C      D 6-31G*               selected for orbital group  1
 Library entry H      S 6-31G                selected for orbital group  2


 PROGRAM * SEWARD (Integral evaluation for generally contracted gaussian basis sets)     Author: Roland Lindh, 1990

 Geometry written to block  1 of record 700


 Point group  C1  



 ATOMIC COORDINATES

 NR  ATOM    CHARGE       X              Y              Z

   1  C       6.00   -1.315249383    0.162516447    0.515895232
   2  C       6.00    1.332256918   -0.257002753   -0.629278799
   3  H       1.00   -2.352709025    2.039014488    0.049132879
   4  H       1.00   -2.655065205   -1.322808287    0.198421243
   5  H       1.00    2.672072740    1.228321981   -0.313694537
   6  H       1.00    2.369716560   -2.133500795   -0.162516447

 Bond lengths in Bohr (Angstrom)

 1-2  2.914911582  1-3  2.194409830  1-4  2.025360644  2-5  2.025065290  2-6  2.194409830
     ( 1.542504781)     ( 1.161231674)     ( 1.071774696)     ( 1.071618402)     ( 1.161231674)

 Bond angles

  1-2-5  115.73026701   1-2-6  117.96352466   2-1-3  117.96352466   2-1-4  115.70292974

  3-1-4  106.32154600   5-2-6  106.33584374

 NUCLEAR CHARGE:                   16
 NUMBER OF PRIMITIVE AOS:          72
 NUMBER OF SYMMETRY AOS:           70
 NUMBER OF CONTRACTIONS:           36   (   36A   )
 NUMBER OF CORE ORBITALS:           2   (    2A   )
 NUMBER OF VALENCE ORBITALS:       12   (   12A   )


 NUCLEAR REPULSION ENERGY   30.63651295

 Eigenvalues of metric

         1 0.139E-01 0.320E-01 0.479E-01 0.546E-01 0.836E-01 0.231E+00 0.242E+00 0.298E+00


 Contracted 2-electron integrals neglected if value below      1.0D-11
 AO integral compression algorithm  1   Integral accuracy      1.0D-11

     1.311 MB (compressed) written to integral file ( 68.2%)


 NUMBER OF SORTED TWO-ELECTRON INTEGRALS:     222111.     BUFFER LENGTH:  32768
 NUMBER OF SEGMENTS:   1  SEGMENT LENGTH:     222111      RECORD LENGTH: 524288

 Memory used in sort:       0.78 MW

 SORT1 READ      284735. AND WROTE      212525. INTEGRALS IN      1 RECORDS. CPU TIME:     0.00 SEC, REAL TIME:     0.00 SEC
 SORT2 READ      212525. AND WROTE      222111. INTEGRALS IN      5 RECORDS. CPU TIME:     0.02 SEC, REAL TIME:     0.02 SEC

 FILE SIZES:   FILE 1:    31.4 MBYTE,  FILE 4:     4.2 MBYTE,   TOTAL:     35.6 MBYTE

 OPERATOR DM      FOR CENTER  0  COORDINATES:    0.000000    0.000000    0.000000


 **********************************************************************************************************************************
 DATASETS  * FILE   NREC   LENGTH (MB)   RECORD NAMES
              1      19       31.11       500      610      700      900      950      970     1000      129      960     1100   
                                          VAR    BASINP    GEOM    SYMINP    ZMAT    AOBASIS   BASIS     P2S    ABASIS      S 
                                         1400     1410     1200     1210     1080     1600     1650     1300     1700   
                                           T        V       H0       H01     AOSYM     SMH    MOLCAS    ERIS     OPER   

 PROGRAMS   *        TOTAL       INT
 CPU TIMES  *         0.26      0.17
 REAL TIME  *         0.38 SEC
 DISK USED  *        35.97 MB
 **********************************************************************************************************************************


 PROGRAM * RHF-SCF (CLOSED SHELL)       Authors: W. Meyer, H.-J. Werner


 NUMBER OF ELECTRONS:       8+    8-    SPACE SYMMETRY=1    SPIN SYMMETRY: Singlet 
 CONVERGENCE THRESHOLDS:    1.00E-05 (Density)    1.00E-07 (Energy)
 MAX. NUMBER OF ITERATIONS:       60
 INTERPOLATION TYPE:            DIIS
 INTERPOLATION STEPS:              2 (START)      1 (STEP)
 LEVEL SHIFTS:                  0.00 (CLOSED)  0.00 (OPEN) 



 Orbital guess generated from atomic densities. Full valence occupancy:    8

 Molecular orbital dump at record        2100.2

 Initial occupancy:   8

 ITERATION    DDIFF          GRAD             ENERGY        2-EL.EN.            DIPOLE MOMENTS         DIIS   ORB.
    1      0.000D+00      0.000D+00       -77.92600687    112.557970    0.00019   -0.00004   -0.00040    0    start
    2      0.000D+00      0.694D-02       -77.94477397    111.677913    0.00029    0.00001   -0.00038    1    diag
    3      0.686D-02      0.228D-02       -77.94692115    112.060756    0.00034    0.00001   -0.00043    2    diag
    4      0.284D-02      0.802D-03       -77.94733875    111.936887    0.00035    0.00001   -0.00042    3    diag
    5      0.139D-02      0.291D-03       -77.94744853    111.945232    0.00038    0.00000   -0.00045    4    diag
    6      0.921D-03      0.851D-04       -77.94745878    111.943515    0.00036    0.00001   -0.00042    5    diag
    7      0.263D-03      0.159D-04       -77.94745908    111.943968    0.00040    0.00000   -0.00046    6    diag
    8      0.375D-04      0.273D-05       -77.94745909    111.943975    0.00035    0.00001   -0.00041    7    diag
    9      0.848D-05      0.774D-06       -77.94745909    111.943980    0.00040    0.00000   -0.00046    0    orth

 Final occupancy:   8

 !RHF STATE  1.1 Energy               -77.947459086323
 Nuclear energy                        30.63651295
 One-electron energy                 -164.55596198
 Two-electron energy                   55.97198994
 Virial quotient                       -1.00646931
 !RHF STATE  1.1 Dipole moment          0.00039961     0.00000189    -0.00046228
 Dipole moment /Debye                   0.00101565     0.00000481    -0.00117493

 ELECTRON ORBITALS
 =================

  Orbital  Occupation    Energy     Coefficients
    1.1     2.00000   -11.26857     1 1s    0.67990     2 1s    0.72820
    2.1     2.00000   -11.26795     1 1s    0.72829     2 1s   -0.68000
    3.1     2.00000    -0.97929     1 1s    0.29160     1 1s    0.26340     2 1s    0.29169     2 1s    0.26345
    4.1     2.00000    -0.80758     1 1s    0.25865     2 1s   -0.25856
    5.1     2.00000    -0.59492     1 2py   0.31264     2 2py   0.31292
    6.1     2.00000    -0.53980     1 2px   0.38923     2 2px  -0.38915
    7.1     2.00000    -0.49940     1 2py   0.30923     2 2py  -0.30899
    8.1     2.00000    -0.34847     1 2pz   0.32518     1 2pz   0.31377     2 2pz   0.32509     2 2pz   0.31370
    9.1     0.00000     0.09444     1 1s    0.32206     1 2pz   0.34792     1 2pz   0.52781     2 1s    0.32189     2 2pz  -0.34800
                                    2 2pz  -0.52795
   10.1     0.00000     0.26222     1 1s   -1.37417     1 2px   0.69943     1 2pz   0.37598     2 1s   -1.37613     2 2px  -0.69987
                                    2 2pz  -0.37588     3 1s    1.03262     4 1s    1.03433     5 1s    1.03504     6 1s    1.03457
   11.1     0.00000     0.27063     1 1s   -1.42347     1 2py  -0.38077     1 2pz   0.27799     2 1s    1.42131     2 2py  -0.38085
                                    2 2pz   0.27731     3 1s    1.27853     4 1s    0.29651     5 1s   -0.29460     6 1s   -1.27718
   12.1     0.00000     0.30543     1 1s   -1.16060     1 2py   0.68159     2 1s    1.16084     2 2py   0.68130     3 1s   -0.31803
                                    4 1s    1.50130     5 1s   -1.50098     6 1s    0.31770
   13.1     0.00000     0.34874     1 2py   0.25126     1 2py   1.30421     2 2py  -0.25137     2 2py  -1.30466     3 1s   -1.11137
                                    4 1s    1.36937     5 1s    1.37040     6 1s   -1.11154
   14.1     0.00000     0.42150     1 1s    1.29825     1 2px   0.26429     1 2px   1.82607     1 2pz  -0.62350     2 1s   -1.29777
                                    2 2px   0.26427     2 2px   1.82630     2 2pz  -0.62388     3 1s    0.45783     4 1s    0.56430
                                    5 1s   -0.56576     6 1s   -0.45692
   15.1     0.00000     0.72479     1 2py  -0.42510     1 2py   0.66269     2 2py  -0.42505     2 2py   0.66315     3 1s   -0.35772
                                    4 1s    0.37476     5 1s   -0.37483     6 1s    0.35758
   16.1     0.00000     0.73622     1 1s    0.35463     1 2px   0.60144     1 2px  -0.99117     2 1s    0.35458     2 2px  -0.60155
                                    2 2px   0.99188
   17.1     0.00000     0.80639     1 2pz   0.75499     1 2px  -0.26891     1 2pz  -0.60986     2 2pz   0.75539     2 2px  -0.26932
                                    2 2pz  -0.61026
   18.1     0.00000     0.85465     1 1s   -0.30943     1 1s    0.28213     1 2pz  -0.74067     1 2px   0.29916     1 2pz   0.90008
                                    2 1s   -0.30925     2 1s    0.28209     2 2pz   0.74045     2 2px  -0.29811     2 2pz  -0.89991
   19.1     0.00000     0.86397     1 1s    0.43897     1 2px  -0.66208     1 2px   1.30560     1 2pz  -0.28157     2 1s   -0.43758
                                    2 2px  -0.66206     2 2px   1.30631     2 2pz  -0.28056     3 1s    0.31066     4 1s    0.25697
                                    4 1s    0.26923     5 1s   -0.25734     5 1s   -0.26975     6 1s   -0.31107
   20.1     0.00000     0.92415     1 1s   -0.35790     1 2py  -0.68849     1 2px   0.26236     1 2py   1.94108     2 1s   -0.35737
                                    2 2py   0.68835     2 2px  -0.26344     2 2py  -1.94107     3 1s   -0.54088     4 1s    0.26936
                                    4 1s    0.69070     5 1s    0.26947     5 1s    0.69139     6 1s   -0.54082
   21.1     0.00000     1.03437     1 1s   -0.90099     1 1s    1.61380     1 2px  -0.56527     1 2py   0.37275     1 2pz  -0.60569
                                    2 1s   -0.90226     2 1s    1.61693     2 2px   0.56266     2 2py  -0.37226     2 2pz   0.60602
                                    3 1s   -0.50359     3 1s   -0.37571     4 1s   -0.35964     4 1s   -0.35156     5 1s   -0.35918
                                    5 1s   -0.35144     6 1s   -0.50401     6 1s   -0.37491
   22.1     0.00000     1.11004     1 1s    0.30666     1 2py  -0.62754     1 2px  -0.33135     1 2py   0.92674     2 1s   -0.30932
                                    2 2py  -0.62797     2 2px  -0.33214     2 2py   0.92747     3 1s    0.59776     3 1s   -1.28135
                                    4 1s    0.48832     5 1s   -0.48780     6 1s   -0.59813     6 1s    1.28293
   23.1     0.00000     1.13321     1 1s   -0.67580     1 1s    1.12222     1 2py  -0.36452     1 2px  -0.30067     1 2py   0.25009
                                    2 1s   -0.67587     2 1s    1.12245     2 2py   0.36375     2 2px   0.30079     3 1s    0.70604
                                    3 1s   -1.08816     6 1s    0.70547     6 1s   -1.08701
   24.1     0.00000     1.18980     1 1s   -0.27629     1 2px   0.51240     1 2py   0.27057     1 2px  -1.05462     1 2py  -0.32397
                                    2 1s    0.27319     2 2px   0.51100     2 2py   0.26978     2 2px  -1.05292     2 2py  -0.32374
                                    3 1s    0.27544     3 1s   -0.29335     4 1s    0.66659     4 1s   -1.24105     5 1s   -0.66379
                                    5 1s    1.23687     6 1s   -0.27514     6 1s    0.29206
   25.1     0.00000     1.21542     1 1s   -0.80013     1 1s    1.34434     1 2px   0.33905     1 2py   0.28673     1 2px  -0.45916
                                    2 1s   -0.80050     2 1s    1.34310     2 2px  -0.34114     2 2py  -0.28801     2 2px   0.46349
                                    4 1s    0.70257     4 1s   -1.16353     5 1s    0.70529     5 1s   -1.16820
   26.1     0.00000     1.28844     1 1s   -1.59389     1 1s    4.27332     1 2px   0.95435     1 2py  -0.28944     1 2pz  -0.73733
                                    2 1s    1.59322     2 1s   -4.27227     2 2px   0.95458     2 2py  -0.29048     2 2pz  -0.73629
                                    3 1s   -0.35713     4 1s   -0.64031     5 1s    0.64075     6 1s    0.35643
   27.1     0.00000     1.78420     1 1s    0.82156     1 3d1+  0.49693     1 3d2+  0.37194     2 1s   -0.82104     2 3d1+ -0.49703
                                    2 3d2+ -0.37178
   28.1     0.00000     1.87057     1 3d2-  0.32660     1 3d1- -0.56712     2 3d2- -0.32614     2 3d1-  0.56763
   29.1     0.00000     2.05444     1 1s    0.40168     1 1s   -0.65247     1 2pz   0.25679     1 3d0   0.46758     1 3d1+  0.47252
                                    2 1s    0.40135     2 1s   -0.65148     2 2pz  -0.25645     2 3d0   0.46691     2 3d1+  0.47259
   30.1     0.00000     2.15996     1 2py  -0.67517     1 3d2+  0.33440     1 3d1-  0.59604     2 2py   0.67531     2 3d2+  0.33424
                                    2 3d1-  0.59612     3 1s    0.29493     6 1s    0.29522
   31.1     0.00000     2.20625     1 2px   0.45120     1 2py   0.43847     1 3d2+  0.57131     1 3d1- -0.39893     2 2px  -0.45206
                                    2 2py  -0.43869     2 3d2+  0.57133     2 3d1- -0.39870     4 1s    0.37578     5 1s    0.37590
   32.1     0.00000     2.33327     1 1s    0.35743     1 1s   -1.23939     1 3d0   0.62303     1 3d2+  0.30359     2 1s   -0.35745
                                    2 1s    1.23988     2 3d0  -0.62319     2 3d2+ -0.30428     3 1s    0.45909     6 1s   -0.45954
   33.1     0.00000     2.52533     1 1s    0.60350     1 3d0  -0.25494     1 3d2-  0.61742     1 3d1-  0.39349     2 1s   -0.60353
                                    2 3d0   0.25699     2 3d2- -0.61652     2 3d1- -0.39217     3 1s    0.28167     4 1s   -0.60173
                                    5 1s    0.60162     6 1s   -0.28050
   34.1     0.00000     2.53768     1 3d0   0.57468     1 3d1+ -0.55228     2 3d0   0.57399     2 3d1+ -0.55225
   35.1     0.00000     2.72244     1 3d2-  0.81936     2 3d2-  0.82012     3 1s    0.35129     4 1s   -0.48362     5 1s   -0.48474
                                    6 1s    0.35127
   36.1     0.00000     2.90422     1 1s    1.58682     1 2px   0.33886     1 2px   0.93389     1 2pz  -0.38077     1 3d2- -0.25817
                                    1 3d1+ -0.61314     1 3d2+  0.68811     2 1s   -1.58676     2 2px   0.33887     2 2px   0.93385
                                    2 2pz  -0.38081     2 3d2-  0.25808     2 3d1+  0.61302     2 3d2+ -0.68807


 HOMO      8.1    -0.348470 =      -9.4823eV
 LUMO      9.1     0.094444 =       2.5700eV
 LUMO-HOMO         0.442914 =      12.0523eV


 **********************************************************************************************************************************
 DATASETS  * FILE   NREC   LENGTH (MB)   RECORD NAMES
              1      19       31.11       500      610      700      900      950      970     1000      129      960     1100   
                                          VAR    BASINP    GEOM    SYMINP    ZMAT    AOBASIS   BASIS     P2S    ABASIS      S 
                                         1400     1410     1200     1210     1080     1600     1650     1300     1700   
                                           T        V       H0       H01     AOSYM     SMH    MOLCAS    ERIS     OPER   

              2       4        2.86       700     1000      520     2100   
                                         GEOM     BASIS   MCVARS     RHF  

 PROGRAMS   *        TOTAL    HF-SCF       INT
 CPU TIMES  *         0.34      0.08      0.17
 REAL TIME  *         0.52 SEC
 DISK USED  *        35.97 MB
 **********************************************************************************************************************************


 PROGRAM * MULTI (Direct Multiconfiguration SCF)       Authors: P.J. Knowles, H.-J. Werner (1984)


 Number of closed-shell orbitals:   7 (   7 )
 Number of active  orbitals:        2 (   2 )
 Number of external orbitals:      27 (  27 )

 State symmetry 1

 Number of electrons:     2    Spin symmetry=Singlet   Space symmetry=1
 Number of states:        3
 Number of CSFs:          3   (4 determinants, 4 intermediate states)

 Molecular orbitals read from record     2100.2  Type=RHF/CANONICAL (state 1.1)

 Wavefunction dump at record             2140.2

 Convergence thresholds  0.10E-01 (gradient)  0.10E-05 (energy)  0.10E-02 (step length)

 Weight factors for state symmetry  1:    0.33333   0.33333   0.33333

 Number of orbital rotations:      257   (    14 Core/Active    189 Core/Virtual   0 Active/Active     54 Active/Virtual)
 Total number of variables:        269

 Micro-Iterations solved by the two-step solver

 ITER. MIC  NCI  NEG     ENERGY(VAR)     ENERGY(PROJ)   ENERGY CHANGE     GRAD(0)  GRAD(ORB)   GRAD(CI)     STEP       TIME

   1    6    5    0     -77.72378832     -77.72940228   -0.00561396    0.10443356 0.00006848 0.00000000  0.68D-01      0.09
   2    6    5    0     -77.72934842     -77.72935046   -0.00000204    0.00215080 0.00000025 0.00000000  0.15D-02      0.17
   3    4    4    0     -77.72935046     -77.72935046   -0.00000000    0.00000140 0.00000000 0.00000000  0.19D-05      0.23

 ** WVFN ****  CONVERGENCE REACHED, FINAL GRADIENT:  0.19D-11



 Results for state 1.1
 =====================

 !MCSCF STATE  1.1 Energy             -77.977054333603
 Nuclear energy                        30.63651295
 Kinetic energy                        77.48764953
 One electron energy                 -164.53801413
 Two electron energy                   55.92444684
 Virial ratio                           2.00631591

 !MCSCF STATE  1.1 Dipole moment        0.00027847     0.00005633    -0.00035734
 Dipole moment /Debye                   0.00070775     0.00014316    -0.00090820

 Results for state 2.1
 =====================

 !MCSCF STATE  2.1 Energy             -77.659940412117
 Nuclear energy                        30.63651295
 Kinetic energy                        77.65330585
 One electron energy                 -164.28166804
 Two electron energy                   55.98521467
 Virial ratio                           2.00008544

 !MCSCF STATE  2.1 Dipole moment        0.00108167     0.00004445    -0.00106707
 Dipole moment /Debye                   0.00274915     0.00011298    -0.00271204

 Results for state 3.1
 =====================

 !MCSCF STATE  3.1 Energy             -77.551056631340
 Nuclear energy                        30.63651295
 Kinetic energy                        77.81896196
 One electron energy                 -164.02532195
 Two electron energy                   55.83775236
 Virial ratio                           1.99655733

 !MCSCF STATE  3.1 Dipole moment       -0.00118893     0.00058353     0.00038492
 Dipole moment /Debye                  -0.00302177     0.00148308     0.00097830

 State-averaged charge density matrix saved on record  2140.2 (density set 1)

 !MCSCF expec         <1.1|DMX|1.1>     0.000278468004 au =     0.000707748709 Debye
 !MCSCF trans         <2.1|DMX|1.1>     1.205228807705 au =     3.063185433088 Debye
 !MCSCF expec         <2.1|DMX|2.1>     0.001081669579 au =     0.002749149769 Debye
 !MCSCF trans         <3.1|DMX|1.1>    -0.000129832578 au =    -0.000329979883 Debye
 !MCSCF trans         <3.1|DMX|2.1>     2.238462088877 au =     5.689230475847 Debye
 !MCSCF expec         <3.1|DMX|3.1>    -0.001188934361 au =    -0.003021771792 Debye

 !MCSCF expec         <1.1|DMY|1.1>     0.000056327954 au =     0.000143162002 Debye
 !MCSCF trans         <2.1|DMY|1.1>    -0.216025594800 au =    -0.549046331231 Debye
 !MCSCF expec         <2.1|DMY|2.1>     0.000044452727 au =     0.000112980163 Debye
 !MCSCF trans         <3.1|DMY|1.1>    -0.000063834386 au =    -0.000162240199 Debye
 !MCSCF trans         <3.1|DMY|2.1>    -0.401222589467 au =    -1.019739308937 Debye
 !MCSCF expec         <3.1|DMY|3.1>     0.000583527307 au =     0.001483081332 Debye

 !MCSCF expec         <1.1|DMZ|1.1>    -0.000357335436 au =    -0.000908196598 Debye
 !MCSCF trans         <2.1|DMZ|1.1>    -0.847601654914 au =    -2.154247414095 Debye
 !MCSCF expec         <2.1|DMZ|2.1>    -0.001067067502 au =    -0.002712037423 Debye
 !MCSCF trans         <3.1|DMZ|1.1>     0.000186836241 au =     0.000474859254 Debye
 !MCSCF trans         <3.1|DMZ|2.1>    -1.574244033797 au =    -4.001067151419 Debye
 !MCSCF expec         <3.1|DMZ|3.1>     0.000384916712 au =     0.000978296617 Debye


 NATURAL ORBITALS (state averaged)
 =================================

  Orbital  Occupation    Energy     Coefficients
    1.1     2.00000   -11.27443     1 1s    0.71922     2 1s    0.68939
    2.1     2.00000   -11.27394     1 1s    0.68945     2 1s   -0.71927
    3.1     2.00000    -0.98487     1 1s    0.29718     1 1s    0.26468     2 1s    0.29720     2 1s    0.26464
    4.1     2.00000    -0.81235     1 1s    0.29073     2 1s   -0.29068
    5.1     2.00000    -0.60209     1 2py   0.31513     2 2py   0.31527
    6.1     2.00000    -0.54826     1 2px   0.39040     2 2px  -0.39025
    7.1     2.00000    -0.50324     1 2py   0.31254     2 2py  -0.31242
    8.1     1.00000    -0.03827     1 1s    0.26136     1 2pz   0.37716     1 2pz   0.50997     2 1s    0.26094     2 2pz  -0.37731
                                    2 2pz  -0.51016
    9.1     1.00000    -0.21608     1 2pz   0.30388     1 2pz   0.31773     2 2pz   0.30375     2 2pz   0.31763
   10.1    -0.00000     0.25969     1 1s   -1.38443     1 2px   0.70600     1 2pz   0.36054     2 1s   -1.38070     2 2px  -0.70619
                                    2 2pz  -0.35935     3 1s    1.03670     4 1s    1.03816     5 1s    1.03762     6 1s    1.03345
   11.1    -0.00000     0.26563     1 1s   -1.36156     1 2py  -0.41558     1 2pz   0.26978     2 1s    1.36506     2 2py  -0.41583
                                    2 2pz   0.27064     3 1s    1.28501     6 1s   -1.28764
   12.1    -0.00000     0.29952     1 1s   -1.24856     1 2py   0.65885     2 1s    1.24901     2 2py   0.65810     4 1s    1.50679
                                    5 1s   -1.50616
   13.1    -0.00000     0.34561     1 2py   0.25302     1 2py   1.29739     2 2py  -0.25321     2 2py  -1.29819     3 1s   -1.10953
                                    4 1s    1.36584     5 1s    1.36732     6 1s   -1.11009
   14.1    -0.00000     0.41490     1 1s    1.24594     1 2px   0.27962     1 2px   1.79759     1 2pz  -0.61010     2 1s   -1.24544
                                    2 2px   0.27961     2 2px   1.79787     2 2pz  -0.61032     3 1s    0.47016     4 1s    0.58164
                                    5 1s   -0.58329     6 1s   -0.46920
   15.1    -0.00000     0.71754     1 2py  -0.43239     1 2py   0.66372     2 2py  -0.43234     2 2py   0.66394     3 1s   -0.35186
                                    4 1s    0.37416     5 1s   -0.37415     6 1s    0.35171
   16.1    -0.00000     0.72767     1 1s    0.28443     1 2px   0.59765     1 2px  -0.96552     2 1s    0.28449     2 2px  -0.59766
                                    2 2px   0.96607
   17.1    -0.00000     0.79927     1 2pz   0.76022     1 2pz  -0.61578     2 2pz   0.76026     2 2pz  -0.61575
   18.1    -0.00000     0.84511     1 1s   -0.29174     1 1s    0.25902     1 2pz  -0.73400     1 2px   0.30277     1 2pz   0.92461
                                    2 1s   -0.29159     2 1s    0.25875     2 2pz   0.73415     2 2px  -0.30154     2 2pz  -0.92482
   19.1    -0.00000     0.85502     1 1s    0.53480     1 2px  -0.65354     1 2px   1.34280     1 2pz  -0.31506     2 1s   -0.53359
                                    2 2px  -0.65368     2 2px   1.34365     2 2pz  -0.31413     3 1s    0.31139     4 1s    0.25648
                                    4 1s    0.25464     5 1s   -0.25684     5 1s   -0.25514     6 1s   -0.31172
   20.1    -0.00000     0.91993     1 1s   -0.37685     1 2py  -0.69054     1 2px   0.28013     1 2py   1.94579     2 1s   -0.37629
                                    2 2py   0.69038     2 2px  -0.28130     2 2py  -1.94571     3 1s   -0.54545     4 1s    0.26620
                                    4 1s    0.70796     5 1s    0.26638     5 1s    0.70857     6 1s   -0.54523
   21.1    -0.00000     1.02989     1 1s   -0.91302     1 1s    1.64948     1 2px  -0.58887     1 2py   0.38997     1 2pz  -0.59317
                                    2 1s   -0.91420     2 1s    1.65231     2 2px   0.58663     2 2py  -0.38961     2 2pz   0.59344
                                    3 1s   -0.49655     3 1s   -0.40047     4 1s   -0.36133     4 1s   -0.35662     5 1s   -0.36089
                                    5 1s   -0.35654     6 1s   -0.49696     6 1s   -0.39980
   22.1    -0.00000     1.10344     1 1s    0.25413     1 2py  -0.63114     1 2px  -0.30992     1 2py   0.94103     2 1s   -0.25468
                                    2 2py  -0.63102     2 2px  -0.31014     2 2py   0.94153     3 1s    0.59039     3 1s   -1.27235
                                    4 1s    0.54082     5 1s   -0.54046     6 1s   -0.58957     6 1s    1.27209
   23.1    -0.00000     1.12968     1 1s   -0.64736     1 1s    1.07817     1 2py  -0.36151     1 2px  -0.29058     2 1s   -0.64763
                                    2 1s    1.07849     2 2py   0.36190     2 2px   0.29110     3 1s    0.71184     3 1s   -1.07579
                                    6 1s    0.71226     6 1s   -1.07676
   24.1    -0.00000     1.18519     1 2px   0.51993     1 2px  -1.11949     1 2py  -0.27876     2 2px   0.51834     2 2px  -1.11758
                                    2 2py  -0.27836     3 1s    0.30164     3 1s   -0.31609     4 1s    0.66242     4 1s   -1.19445
                                    5 1s   -0.65912     5 1s    1.18954     6 1s   -0.30143     6 1s    0.31487
   25.1    -0.00000     1.21234     1 1s   -0.81010     1 1s    1.36340     1 2px   0.34487     1 2py   0.27274     1 2px  -0.46475
                                    2 1s   -0.80948     2 1s    1.35911     2 2px  -0.34732     2 2py  -0.27402     2 2px   0.47049
                                    4 1s    0.69980     4 1s   -1.15876     5 1s    0.70294     5 1s   -1.16361
   26.1    -0.00000     1.27447     1 1s   -1.60753     1 1s    4.27008     1 2px   0.88546     1 2py  -0.29166     1 2pz  -0.71687
                                    2 1s    1.60741     2 1s   -4.26994     2 2px   0.88539     2 2py  -0.29282     2 2pz  -0.71594
                                    3 1s   -0.38838     4 1s   -0.69755     5 1s    0.69863     6 1s    0.38789
   27.1    -0.00000     1.77080     1 1s    0.81452     1 3d1+  0.49668     1 3d2+  0.37335     2 1s   -0.81405     2 3d1+ -0.49673
                                    2 3d2+ -0.37316
   28.1    -0.00000     1.85814     1 3d2-  0.32336     1 3d1- -0.56878     2 3d2- -0.32287     2 3d1-  0.56918
   29.1    -0.00000     2.04342     1 1s    0.39996     1 1s   -0.64456     1 2pz   0.25684     1 3d0   0.46559     1 3d1+  0.47710
                                    2 1s    0.39957     2 1s   -0.64333     2 2pz  -0.25646     2 3d0   0.46482     2 3d1+  0.47716
   30.1    -0.00000     2.14959     1 2py  -0.65841     1 3d2+  0.36012     1 3d1-  0.57991     2 2py   0.65851     2 3d2+  0.35989
                                    2 3d1-  0.58004     3 1s    0.30045     6 1s    0.30065
   31.1    -0.00000     2.19535     1 2px   0.44604     1 2py   0.46644     1 3d2+  0.55753     1 3d1- -0.42372     2 2px  -0.44691
                                    2 2py  -0.46664     2 3d2+  0.55754     2 3d1- -0.42354     4 1s    0.37895     5 1s    0.37903
   32.1    -0.00000     2.32121     1 1s    0.36025     1 1s   -1.25056     1 3d0   0.62268     1 3d2+  0.30172     2 1s   -0.36029
                                    2 1s    1.25113     2 3d0  -0.62279     2 3d2+ -0.30249     3 1s    0.46293     6 1s   -0.46340
   33.1    -0.00000     2.51277     1 1s    0.60916     1 3d0  -0.25583     1 3d2-  0.61747     1 3d1-  0.39121     2 1s   -0.60928
                                    2 3d0   0.25841     2 3d2- -0.61642     2 3d1- -0.38986     3 1s    0.28221     4 1s   -0.60527
                                    5 1s    0.60530     6 1s   -0.28083
   34.1    -0.00000     2.52307     1 3d0   0.57747     1 3d1+ -0.55019     2 3d0   0.57669     2 3d1+ -0.55016
   35.1    -0.00000     2.71316     1 3d2-  0.81903     2 3d2-  0.81985     3 1s    0.35223     4 1s   -0.48498     5 1s   -0.48616
                                    6 1s    0.35225
   36.1    -0.00000     2.89457     1 1s    1.59501     1 2px   0.33362     1 2px   0.93942     1 2pz  -0.38361     1 3d2- -0.25839
                                    1 3d1+ -0.61378     1 3d2+  0.68870     2 1s   -1.59495     2 2px   0.33362     2 2px   0.93939
                                    2 2pz  -0.38366     2 3d2-  0.25830     2 3d1+  0.61370     2 3d2+ -0.68867


 Natural orbital dump (state averaged) at molpro section  2140.2    (Orbital set 2)



 **********************************************************************************************************************************
 DATASETS  * FILE   NREC   LENGTH (MB)   RECORD NAMES
              1      20       31.84       500      610      700      900      950      970     1000      129      960     1100   
                                          VAR    BASINP    GEOM    SYMINP    ZMAT    AOBASIS   BASIS     P2S    ABASIS      S 
                                         1400     1410     1200     1210     1080     1600     1650     1300     1700     1380   
                                           T        V       H0       H01     AOSYM     SMH    MOLCAS    ERIS     OPER     JKOP   

              2       5        5.42       700     1000      520     2100     2140   
                                         GEOM     BASIS   MCVARS     RHF     MCSCF   

 PROGRAMS   *        TOTAL     MULTI    HF-SCF       INT
 CPU TIMES  *         0.62      0.28      0.08      0.17
 REAL TIME  *         0.86 SEC
 DISK USED  *        39.02 MB
 **********************************************************************************************************************************
 Molecular orbitals read from record     2140.2  Type=MCSCF/NATURAL (state averaged)
 Occupation numbers read from record     2140.2  Type=MCSCF/NATURAL (state averaged)
 Orbital energies read from record       2140.2  Type=MCSCF/NATURAL (state averaged)
 Redundancy group numbers read from rec  2140.2  Type=MCSCF/NATURAL (state averaged)

 MULTI/6-31G* energy=    -77.551056631340

           MULTI          HF-SCF
    -77.55105663    -77.94745909
 **********************************************************************************************************************************
 Molpro calculation terminated
