
 Primary working directories    : /scratch.local/johan406.molpro_temp/molpro.Xl457Z48to
 Secondary working directories  : /scratch.local/johan406.molpro_temp/molpro.Xl457Z48to
 Wavefunction directory         : /home/goodpast/johan406/wfu/
 Main file repository           : /scratch.local/johan406.molpro_temp/molpro.Xl457Z48to/

 id        : roweumn

 Nodes     nprocs
 acn06        1

 Using customized tuning parameters: mindgm=1; mindgv=20; mindgc=4; mindgr=1; noblas=0; minvec=7
 default implementation of scratch files=df  


 Variables initialized (934), CPU time= 0.00 sec
                                                                                 !leave this line blank
 
 gprint, orbitals=30
 memory, 125., m
 symmetry, nosym
 nelect=16
 basis=6-31g*
 
 geometry={
 C -0.694 0.098 0.274
 C 0.703 -0.147 -0.334
 H -1.224 1.049 0.039
 H -1.348 -0.733 0.077
 H 1.357 0.683 -0.138
 H 1.233 -1.099 -0.100
 }
 
 hf
 {multi,
 closed 7
 occ 9
 wf,spin=0;STATE,3
 }
 
 Commands  initialized (763), CPU time= 0.01 sec, 617 directives.
 Default parameters read. Elapsed time= 0.06 sec

 Checking input...
 Passed
1


                                         ***  PROGRAM SYSTEM MOLPRO  ***
                                       Copyright, TTI GmbH Stuttgart, 2015
                                    Version 2019.2 linked Oct 25 2019 22:50:27


 **********************************************************************************************************************************
 LABEL *                                                                                 
  64 bit serial version                                                                  DATE: 15-Mar-23          TIME: 16:31:14  
 **********************************************************************************************************************************

 SHA1:             8dbd9ae1082e4ce945b0f27595c9eb2d4aa09004
 **********************************************************************************************************************************


 Variable memory set to  125000000 words,  buffer space 

 SETTING NELECT         =        16.00000000                                  
 SETTING BASIS          =    6-31G*
 ZSYMEL=NOSYM


Geometry recognized as XYZ



 Recomputing integrals since basis changed


 Using spherical harmonics

 Library entry C      S 6-31G                selected for orbital group  1
 Library entry C      P 6-31G                selected for orbital group  1
 Library entry C      D 6-31G*               selected for orbital group  1
 Library entry H      S 6-31G                selected for orbital group  2


 PROGRAM * SEWARD (Integral evaluation for generally contracted gaussian basis sets)     Author: Roland Lindh, 1990

 Geometry written to block  1 of record 700


 Point group  C1  



 ATOMIC COORDINATES

 NR  ATOM    CHARGE       X              Y              Z

   1  C       6.00   -1.311469930    0.185193160    0.517784958
   2  C       6.00    1.328477466   -0.277789740   -0.631168526
   3  H       1.00   -2.313024776    1.982322705    0.073699319
   4  H       1.00   -2.547350816   -1.385169249    0.145508912
   5  H       1.00    2.564358351    1.290682943   -0.260782205
   6  H       1.00    2.330032312   -2.076809011   -0.188972612

 Bond lengths in Bohr (Angstrom)

 1-2  2.916122344  1-3  2.104756224  1-4  2.032739313  2-5  2.030934304  2-6  2.105972381
     ( 1.543145489)     ( 1.113789028)     ( 1.075679320)     ( 1.074724151)     ( 1.114432591)

 Bond angles

  1-2-5  110.88098650   1-2-6  118.90997121   2-1-3  118.89577169   2-1-4  110.83007382

  3-1-4  109.37011151   5-2-6  109.39209239

 NUCLEAR CHARGE:                   16
 NUMBER OF PRIMITIVE AOS:          72
 NUMBER OF SYMMETRY AOS:           70
 NUMBER OF CONTRACTIONS:           36   (   36A   )
 NUMBER OF CORE ORBITALS:           2   (    2A   )
 NUMBER OF VALENCE ORBITALS:       12   (   12A   )


 NUCLEAR REPULSION ENERGY   30.96882221

 Eigenvalues of metric

         1 0.131E-01 0.326E-01 0.450E-01 0.560E-01 0.754E-01 0.229E+00 0.239E+00 0.298E+00


 Contracted 2-electron integrals neglected if value below      1.0D-11
 AO integral compression algorithm  1   Integral accuracy      1.0D-11

     1.311 MB (compressed) written to integral file ( 68.6%)


 NUMBER OF SORTED TWO-ELECTRON INTEGRALS:     222111.     BUFFER LENGTH:  32768
 NUMBER OF SEGMENTS:   1  SEGMENT LENGTH:     222111      RECORD LENGTH: 524288

 Memory used in sort:       0.78 MW

 SORT1 READ      284735. AND WROTE      212526. INTEGRALS IN      1 RECORDS. CPU TIME:     0.00 SEC, REAL TIME:     0.01 SEC
 SORT2 READ      212526. AND WROTE      222111. INTEGRALS IN      5 RECORDS. CPU TIME:     0.03 SEC, REAL TIME:     0.03 SEC

 FILE SIZES:   FILE 1:    31.4 MBYTE,  FILE 4:     4.2 MBYTE,   TOTAL:     35.6 MBYTE

 OPERATOR DM      FOR CENTER  0  COORDINATES:    0.000000    0.000000    0.000000


 **********************************************************************************************************************************
 DATASETS  * FILE   NREC   LENGTH (MB)   RECORD NAMES
              1      19       31.11       500      610      700      900      950      970     1000      129      960     1100   
                                          VAR    BASINP    GEOM    SYMINP    ZMAT    AOBASIS   BASIS     P2S    ABASIS      S 
                                         1400     1410     1200     1210     1080     1600     1650     1300     1700   
                                           T        V       H0       H01     AOSYM     SMH    MOLCAS    ERIS     OPER   

 PROGRAMS   *        TOTAL       INT
 CPU TIMES  *         0.29      0.18
 REAL TIME  *         0.43 SEC
 DISK USED  *        35.97 MB
 **********************************************************************************************************************************


 PROGRAM * RHF-SCF (CLOSED SHELL)       Authors: W. Meyer, H.-J. Werner


 NUMBER OF ELECTRONS:       8+    8-    SPACE SYMMETRY=1    SPIN SYMMETRY: Singlet 
 CONVERGENCE THRESHOLDS:    1.00E-05 (Density)    1.00E-07 (Energy)
 MAX. NUMBER OF ITERATIONS:       60
 INTERPOLATION TYPE:            DIIS
 INTERPOLATION STEPS:              2 (START)      1 (STEP)
 LEVEL SHIFTS:                  0.00 (CLOSED)  0.00 (OPEN) 



 Orbital guess generated from atomic densities. Full valence occupancy:    8

 Molecular orbital dump at record        2100.2

 Initial occupancy:   8

 ITERATION    DDIFF          GRAD             ENERGY        2-EL.EN.            DIPOLE MOMENTS         DIIS   ORB.
    1      0.000D+00      0.000D+00       -77.93082788    113.210779    0.00033   -0.00062   -0.00079    0    start
    2      0.000D+00      0.702D-02       -77.94961143    112.324690    0.00064    0.00005   -0.00080    1    diag
    3      0.693D-02      0.226D-02       -77.95173769    112.701779    0.00069    0.00008   -0.00086    2    diag
    4      0.279D-02      0.795D-03       -77.95215536    112.584399    0.00077    0.00014   -0.00088    3    diag
    5      0.137D-02      0.297D-03       -77.95227544    112.592340    0.00079    0.00015   -0.00089    4    diag
    6      0.960D-03      0.857D-04       -77.95228626    112.590915    0.00082    0.00014   -0.00091    5    diag
    7      0.272D-03      0.145D-04       -77.95228651    112.591384    0.00080    0.00014   -0.00089    6    diag
    8      0.348D-04      0.270D-05       -77.95228651    112.591387    0.00083    0.00013   -0.00092    7    diag
    9      0.903D-05      0.613D-06       -77.95228651    112.591390    0.00079    0.00014   -0.00089    0    orth

 Final occupancy:   8

 !RHF STATE  1.1 Energy               -77.952286514481
 Nuclear energy                        30.96882221
 One-electron energy                 -165.21680394
 Two-electron energy                   56.29569521
 Virial quotient                       -1.00500741
 !RHF STATE  1.1 Dipole moment          0.00079263     0.00014102    -0.00088683
 Dipole moment /Debye                   0.00201453     0.00035841    -0.00225395

 ELECTRON ORBITALS
 =================

  Orbital  Occupation    Energy     Coefficients
    1.1     2.00000   -11.26162     1 1s    0.67853     2 1s    0.72944
    2.1     2.00000   -11.26099     1 1s    0.72954     2 1s   -0.67864
    3.1     2.00000    -0.98380     1 1s    0.29049     1 1s    0.25999     2 1s    0.29067     2 1s    0.26007
    4.1     2.00000    -0.80955     1 1s    0.25700     2 1s   -0.25680
    5.1     2.00000    -0.60854     1 2py   0.31506     2 2py   0.31538
    6.1     2.00000    -0.53383     1 2px   0.34492     2 2px  -0.34480
    7.1     2.00000    -0.50683     1 2py   0.27153     2 2py  -0.27087
    8.1     2.00000    -0.34755     1 2pz   0.32425     1 2pz   0.31564     2 2pz   0.32408     2 2pz   0.31553
    9.1     0.00000     0.09458     1 1s   -0.31976     1 2pz  -0.34717     1 2pz  -0.52926     2 1s   -0.31944     2 2pz   0.34734
                                    2 2pz   0.52955
   10.1     0.00000     0.26290     1 1s   -1.41157     1 2px   0.68879     1 2pz   0.37724     2 1s   -1.41728     2 2px  -0.68908
                                    2 2pz  -0.37750     3 1s    1.00825     4 1s    1.08633     5 1s    1.08462     6 1s    1.01669
   11.1     0.00000     0.28335     1 1s   -1.59465     1 2py  -0.35866     1 2pz   0.31439     2 1s    1.58499     2 2py  -0.36016
                                    2 2pz   0.31102     3 1s    1.34835     4 1s    0.33958     5 1s   -0.33143     6 1s   -1.34229
   12.1     0.00000     0.31443     1 1s    1.08130     1 2py  -0.74728     2 1s   -1.08901     2 2py  -0.74550     3 1s    0.39088
                                    4 1s   -1.54803     5 1s    1.55223     6 1s   -0.38478
   13.1     0.00000     0.34965     1 2py  -1.35630     2 2py   1.35769     3 1s    1.29676     4 1s   -1.25630     5 1s   -1.26094
                                    6 1s    1.29556
   14.1     0.00000     0.41753     1 1s    1.25691     1 2px   0.26026     1 2px   1.78066     1 2py  -0.30829     1 2pz  -0.60189
                                    2 1s   -1.25611     2 2px   0.26019     2 2px   1.78112     2 2py  -0.30560     2 2pz  -0.60258
                                    3 1s    0.57552     4 1s    0.42283     5 1s   -0.42628     6 1s   -0.57302
   15.1     0.00000     0.72746     1 2py  -0.42046     1 2py   0.74020     2 2py  -0.42197     2 2py   0.74847     3 1s   -0.40884
                                    4 1s    0.31567     5 1s   -0.33757     6 1s    0.39709
   16.1     0.00000     0.72865     1 1s   -0.40345     1 2px  -0.59038     1 2px   0.97438     2 1s   -0.37826     2 2px   0.59093
                                    2 2px  -0.99223
   17.1     0.00000     0.80666     1 2pz   0.74461     1 2px  -0.28422     1 2pz  -0.61626     2 2pz   0.74544     2 2px  -0.28489
                                    2 2pz  -0.61700
   18.1     0.00000     0.85629     1 1s    0.26577     1 2pz   0.74192     1 2px  -0.29295     1 2py  -0.30898     1 2pz  -0.90695
                                    2 1s    0.26582     2 2pz  -0.74047     2 2px   0.29652     2 2py   0.30851     2 2pz   0.90549
   19.1     0.00000     0.86984     1 1s    0.29903     1 2px  -0.68253     1 2px   1.24413     1 2pz  -0.26507     2 1s   -0.29351
                                    2 2px  -0.68061     2 2px   1.24423     2 2pz  -0.26798     4 1s    0.28395     4 1s    0.30249
                                    5 1s   -0.28615     5 1s   -0.30787
   20.1     0.00000     0.91060     1 2py  -0.66331     1 2py   1.92289     2 2py   0.66349     2 2py  -1.92399     3 1s   -0.59264
                                    4 1s    0.25824     4 1s    0.59487     5 1s    0.25689     5 1s    0.59449     6 1s   -0.59384
   21.1     0.00000     1.02558     1 1s   -0.91303     1 1s    1.62575     1 2px  -0.46539     1 2py   0.40516     1 2pz  -0.59568
                                    2 1s   -0.91517     2 1s    1.63030     2 2px   0.46147     2 2py  -0.40366     2 2pz   0.59585
                                    3 1s   -0.49092     3 1s   -0.43733     4 1s   -0.35167     4 1s   -0.30529     5 1s   -0.35072
                                    5 1s   -0.30678     6 1s   -0.49168     6 1s   -0.43433
   22.1     0.00000     1.14057     1 2py   0.67963     1 2py  -1.01391     2 2py   0.68332     2 2py  -1.01791     3 1s   -0.54191
                                    3 1s    1.22620     4 1s    0.25851     4 1s   -0.73012     5 1s   -0.25695     5 1s    0.72317
                                    6 1s    0.55073     6 1s   -1.24283
   23.1     0.00000     1.17542     1 1s   -0.72815     1 1s    1.19543     1 2py  -0.39617     1 2px  -0.29895     1 2py   0.32716
                                    2 1s   -0.73293     2 1s    1.20237     2 2py   0.38429     2 2px   0.31038     2 2py  -0.31030
                                    3 1s    0.70463     3 1s   -1.13420     6 1s    0.70243     6 1s   -1.12521
   24.1     0.00000     1.19344     1 1s   -0.30524     1 2px   0.50974     1 2px  -1.10562     2 1s    0.26946     2 2px   0.49629
                                    2 2px  -1.08672     3 1s    0.38214     3 1s   -0.52895     4 1s    0.65917     4 1s   -1.13798
                                    5 1s   -0.63726     5 1s    1.09936     6 1s   -0.37319     6 1s    0.50578
   25.1     0.00000     1.21289     1 1s   -0.75746     1 1s    1.31525     1 2px   0.32138     1 2py   0.31090     1 2px  -0.42520
                                    2 1s   -0.76136     2 1s    1.30346     2 2px  -0.33832     2 2py  -0.32019     2 2px   0.46436
                                    4 1s    0.69162     4 1s   -1.13909     5 1s    0.71553     5 1s   -1.17927
   26.1     0.00000     1.29368     1 1s   -1.61806     1 1s    4.42784     1 2px   0.97322     1 2py  -0.34845     1 2pz  -0.77740
                                    2 1s    1.61765     2 1s   -4.42786     2 2px   0.97266     2 2py  -0.34991     2 2pz  -0.77587
                                    3 1s   -0.43726     4 1s   -0.67443     5 1s    0.67862     6 1s    0.43457
   27.1     0.00000     1.77223     1 1s    0.79055     1 3d1+  0.45774     1 3d2+  0.39103     2 1s   -0.78968     2 3d1+ -0.45759
                                    2 3d2+ -0.39067
   28.1     0.00000     1.86641     1 3d2-  0.34059     1 3d1- -0.53513     2 3d2- -0.33996     2 3d1-  0.53603
   29.1     0.00000     2.06079     1 1s    0.41211     1 1s   -0.67187     1 2pz   0.25974     1 3d0   0.46442     1 3d1+  0.47878
                                    2 1s    0.41142     2 1s   -0.66918     2 2pz  -0.25885     2 3d0   0.46357     2 3d1+  0.47890
   30.1     0.00000     2.16403     1 2py  -0.64192     1 3d2+  0.39731     1 3d1-  0.54219     2 2py   0.64254     2 3d2+  0.39836
                                    2 3d1-  0.54256     3 1s    0.30039     6 1s    0.30097
   31.1     0.00000     2.26731     1 2px   0.37982     1 2py   0.53348     1 3d2+  0.54411     1 3d1- -0.46998     2 2px  -0.38179
                                    2 2py  -0.53351     2 3d2+  0.54293     2 3d1- -0.46990     4 1s    0.44288     5 1s    0.44235
   32.1     0.00000     2.36706     1 1s   -0.36348     1 1s    1.38098     1 2pz  -0.26634     1 3d0  -0.63734     1 3d2+ -0.30461
                                    2 1s    0.36349     2 1s   -1.38192     2 2pz  -0.26615     2 3d0   0.63817     2 3d2+  0.30638
                                    3 1s   -0.49004     4 1s   -0.27488     5 1s    0.27583     6 1s    0.49050
   33.1     0.00000     2.53264     1 3d0   0.57768     1 3d1+ -0.53852     2 3d0   0.57008     2 3d1+ -0.54039     4 1s    0.27185
                                    5 1s    0.25307
   34.1     0.00000     2.55616     1 1s   -0.76838     1 2py   0.27330     1 3d2- -0.60391     1 3d1- -0.42526     2 1s    0.77148
                                    2 2py   0.27321     2 3d2-  0.60661     2 3d1-  0.42071     3 1s   -0.33358     4 1s    0.57936
                                    5 1s   -0.58855     6 1s    0.32680
   35.1     0.00000     2.71568     1 2py  -0.25307     1 3d2-  0.80966     2 2py   0.25412     2 3d2-  0.81043     3 1s    0.46040
                                    4 1s   -0.39795     5 1s   -0.40067     6 1s    0.45949
   36.1     0.00000     2.91232     1 1s    1.51622     1 2px   0.34262     1 2px   0.88955     1 2pz  -0.36366     1 3d2- -0.30116
                                    1 3d1+ -0.60888     1 3d2+  0.68205     2 1s   -1.51609     2 2px   0.34274     2 2px   0.88962
                                    2 2pz  -0.36374     2 3d2-  0.30243     2 3d1+  0.60877     2 3d2+ -0.68169


 HOMO      8.1    -0.347554 =      -9.4574eV
 LUMO      9.1     0.094584 =       2.5738eV
 LUMO-HOMO         0.442138 =      12.0312eV


 **********************************************************************************************************************************
 DATASETS  * FILE   NREC   LENGTH (MB)   RECORD NAMES
              1      19       31.11       500      610      700      900      950      970     1000      129      960     1100   
                                          VAR    BASINP    GEOM    SYMINP    ZMAT    AOBASIS   BASIS     P2S    ABASIS      S 
                                         1400     1410     1200     1210     1080     1600     1650     1300     1700   
                                           T        V       H0       H01     AOSYM     SMH    MOLCAS    ERIS     OPER   

              2       4        2.86       700     1000      520     2100   
                                         GEOM     BASIS   MCVARS     RHF  

 PROGRAMS   *        TOTAL    HF-SCF       INT
 CPU TIMES  *         0.40      0.11      0.18
 REAL TIME  *         0.57 SEC
 DISK USED  *        35.97 MB
 **********************************************************************************************************************************


 PROGRAM * MULTI (Direct Multiconfiguration SCF)       Authors: P.J. Knowles, H.-J. Werner (1984)


 Number of closed-shell orbitals:   7 (   7 )
 Number of active  orbitals:        2 (   2 )
 Number of external orbitals:      27 (  27 )

 State symmetry 1

 Number of electrons:     2    Spin symmetry=Singlet   Space symmetry=1
 Number of states:        3
 Number of CSFs:          3   (4 determinants, 4 intermediate states)

 Molecular orbitals read from record     2100.2  Type=RHF/CANONICAL (state 1.1)

 Wavefunction dump at record             2140.2

 Convergence thresholds  0.10E-01 (gradient)  0.10E-05 (energy)  0.10E-02 (step length)

 Weight factors for state symmetry  1:    0.33333   0.33333   0.33333

 Number of orbital rotations:      257   (    14 Core/Active    189 Core/Virtual   0 Active/Active     54 Active/Virtual)
 Total number of variables:        269

 Micro-Iterations solved by the two-step solver

 ITER. MIC  NCI  NEG     ENERGY(VAR)     ENERGY(PROJ)   ENERGY CHANGE     GRAD(0)  GRAD(ORB)   GRAD(CI)     STEP       TIME

   1    8    5    0     -77.72877323     -77.73431188   -0.00553865    0.10394560 0.00007412 0.00000000  0.68D-01      0.14
   2    6    5    0     -77.73425996     -77.73426194   -0.00000198    0.00213289 0.00000041 0.00000000  0.15D-02      0.23
   3    5    4    0     -77.73426194     -77.73426194   -0.00000000    0.00000136 0.00000000 0.00000000  0.24D-05      0.30

 ** WVFN ****  CONVERGENCE REACHED, FINAL GRADIENT:  0.66D-11



 Results for state 1.1
 =====================

 !MCSCF STATE  1.1 Energy             -77.982322328931
 Nuclear energy                        30.96882221
 Kinetic energy                        77.60649613
 One electron energy                 -165.19359768
 Two electron energy                   56.24245314
 Virial ratio                           2.00484272

 !MCSCF STATE  1.1 Dipole moment        0.00061523     0.00012882    -0.00076118
 Dipole moment /Debye                   0.00156366     0.00032742    -0.00193460

 Results for state 2.1
 =====================

 !MCSCF STATE  2.1 Energy             -77.664283502484
 Nuclear energy                        30.96882221
 Kinetic energy                        77.77171090
 One electron energy                 -164.93944854
 Two electron energy                   56.30634282
 Virial ratio                           1.99861868

 !MCSCF STATE  2.1 Dipole moment        0.00236224    -0.00023317    -0.00213575
 Dipole moment /Debye                   0.00600382    -0.00059263    -0.00542817

 Results for state 3.1
 =====================

 !MCSCF STATE  3.1 Energy             -77.556179991562
 Nuclear energy                        30.96882221
 Kinetic energy                        77.93692472
 One electron energy                 -164.68529911
 Two electron energy                   56.16029690
 Virial ratio                           1.99511471

 !MCSCF STATE  3.1 Dipole moment       -0.00223918     0.00061890     0.00103125
 Dipole moment /Debye                  -0.00569106     0.00157298     0.00262101

 State-averaged charge density matrix saved on record  2140.2 (density set 1)

 !MCSCF expec         <1.1|DMX|1.1>     0.000615232977 au =     0.001563663829 Debye
 !MCSCF trans         <2.1|DMX|1.1>    -1.197425699779 au =    -3.043353210045 Debye
 !MCSCF expec         <2.1|DMX|2.1>     0.002362237455 au =     0.006003815470 Debye
 !MCSCF trans         <3.1|DMX|1.1>    -0.000321543094 au =    -0.000817227496 Debye
 !MCSCF trans         <3.1|DMX|2.1>    -2.234372039149 au =    -5.678835287259 Debye
 !MCSCF expec         <3.1|DMX|3.1>    -0.002239183290 au =    -0.005691063465 Debye

 !MCSCF expec         <1.1|DMY|1.1>     0.000128824813 au =     0.000327418569 Debye
 !MCSCF trans         <2.1|DMY|1.1>     0.228995831953 au =     0.582011226574 Debye
 !MCSCF expec         <2.1|DMY|2.1>    -0.000233174853 au =    -0.000592632543 Debye
 !MCSCF trans         <3.1|DMY|1.1>     0.000080047941 au =     0.000203448245 Debye
 !MCSCF trans         <3.1|DMY|2.1>     0.427301601716 au =     1.086021204890 Debye
 !MCSCF expec         <3.1|DMY|3.1>     0.000618899133 au =     0.001572981660 Debye

 !MCSCF expec         <1.1|DMZ|1.1>    -0.000761179281 au =    -0.001934598038 Debye
 !MCSCF trans         <2.1|DMZ|1.1>     0.856620816803 au =     2.177170335570 Debye
 !MCSCF expec         <2.1|DMZ|2.1>    -0.002135747944 au =    -0.005428174260 Debye
 !MCSCF trans         <3.1|DMZ|1.1>     0.000313015007 au =     0.000795552682 Debye
 !MCSCF trans         <3.1|DMZ|2.1>     1.598437180808 au =     4.062555969998 Debye
 !MCSCF expec         <3.1|DMZ|3.1>     0.001031254156 au =     0.002621014939 Debye


 NATURAL ORBITALS (state averaged)
 =================================

  Orbital  Occupation    Energy     Coefficients
    1.1     2.00000   -11.26769     1 1s    0.73309     2 1s    0.67459
    2.1     2.00000   -11.26719     1 1s    0.67465     2 1s   -0.73315
    3.1     2.00000    -0.98939     1 1s    0.29604     1 1s    0.26116     2 1s    0.29610     2 1s    0.26109
    4.1     2.00000    -0.81460     1 1s    0.28920     2 1s   -0.28905
    5.1     2.00000    -0.61592     1 2py   0.31742     2 2py   0.31749
    6.1     2.00000    -0.54147     1 2px   0.35815     2 2px  -0.35786
    7.1     2.00000    -0.51210     1 2py   0.28521     2 2py  -0.28477
    8.1     1.00000    -0.21553     1 2pz   0.30292     1 2pz   0.31971     2 2pz   0.30270     2 2pz   0.31955
    9.1     1.00000    -0.03811     1 1s   -0.25770     1 2pz  -0.37668     1 2pz  -0.51201     2 1s   -0.25684     2 2pz   0.37701
                                    2 2pz   0.51245
   10.1    -0.00000     0.26004     1 1s   -1.41939     1 2px   0.69576     1 2pz   0.35987     2 1s   -1.42328     2 2px  -0.69569
                                    2 2pz  -0.35985     3 1s    1.00314     4 1s    1.09606     5 1s    1.09245     6 1s    1.01114
   11.1    -0.00000     0.27873     1 1s   -1.53626     1 2py  -0.39954     1 2pz   0.30729     2 1s    1.52691     2 2py  -0.40069
                                    2 2pz   0.30405     3 1s    1.35931     6 1s   -1.35320
   12.1    -0.00000     0.30847     1 1s    1.18376     1 2py  -0.72516     2 1s   -1.19258     2 2py  -0.72240     3 1s    0.31225
                                    4 1s   -1.55833     5 1s    1.56244     6 1s   -0.30447
   13.1    -0.00000     0.34657     1 2py  -1.34974     2 2py   1.35180     3 1s    1.30090     4 1s   -1.24622     5 1s   -1.25188
                                    6 1s    1.30027
   14.1    -0.00000     0.41129     1 1s    1.20292     1 2px   0.27521     1 2px   1.75338     1 2py  -0.30267     1 2pz  -0.58921
                                    2 1s   -1.20216     2 2px   0.27515     2 2px   1.75391     2 2py  -0.29999     2 2pz  -0.58953
                                    3 1s    0.59111     4 1s    0.43970     5 1s   -0.44327     6 1s   -0.58869
   15.1    -0.00000     0.72010     1 2py  -0.42795     1 2py   0.74352     2 2py  -0.42874     2 2py   0.74868     3 1s   -0.40326
                                    4 1s    0.31813     5 1s   -0.33489     6 1s    0.39427
   16.1    -0.00000     0.72150     1 1s   -0.33458     1 2px  -0.58917     1 2px   0.95575     2 1s   -0.31322     2 2px   0.58888
                                    2 2px  -0.96993
   17.1    -0.00000     0.79947     1 2pz   0.74883     1 2px  -0.26820     1 2pz  -0.62105     2 2pz   0.74923     2 2px  -0.26876
                                    2 2pz  -0.62133
   18.1    -0.00000     0.84663     1 1s    0.25064     1 2pz   0.73580     1 2px  -0.29912     1 2py  -0.27381     1 2pz  -0.93337
                                    2 1s    0.25067     2 2pz  -0.73487     2 2px   0.30140     2 2py   0.27330     2 2pz   0.93245
   19.1    -0.00000     0.86013     1 1s    0.39744     1 2px  -0.67282     1 2pz   0.25182     1 2px   1.27964     1 2pz  -0.29983
                                    2 1s   -0.39255     2 2px  -0.67149     2 2pz   0.25339     2 2px   1.28030     2 2pz  -0.30198
                                    4 1s    0.28351     4 1s    0.28338     5 1s   -0.28553     5 1s   -0.28840
   20.1    -0.00000     0.90612     1 2py  -0.66679     1 2py   1.93043     2 2py   0.66696     2 2py  -1.93156     3 1s   -0.59292
                                    4 1s    0.25869     4 1s    0.61387     5 1s    0.25761     5 1s    0.61373     6 1s   -0.59385
   21.1    -0.00000     1.02034     1 1s   -0.92281     1 1s    1.65972     1 2px  -0.48920     1 2py   0.43118     1 2pz  -0.58517
                                    2 1s   -0.92478     2 1s    1.66381     2 2px   0.48591     2 2py  -0.42976     2 2pz   0.58524
                                    3 1s   -0.48794     3 1s   -0.46267     4 1s   -0.35150     4 1s   -0.30743     5 1s   -0.35056
                                    5 1s   -0.30912     6 1s   -0.48875     6 1s   -0.45976
   22.1    -0.00000     1.13279     1 2py   0.68079     1 2py  -1.02494     2 2py   0.68338     2 2py  -1.02821     3 1s   -0.52845
                                    3 1s    1.20647     4 1s    0.28297     4 1s   -0.78590     5 1s   -0.28090     5 1s    0.77930
                                    6 1s    0.53517     6 1s   -1.21970
   23.1    -0.00000     1.17182     1 1s   -0.68136     1 1s    1.11836     1 2py  -0.40406     1 2px  -0.27533     1 2py   0.32476
                                    2 1s   -0.68639     2 1s    1.12375     2 2py   0.39471     2 2px   0.29037     2 2py  -0.31180
                                    3 1s    0.70856     3 1s   -1.11621     6 1s    0.70929     6 1s   -1.11287
   24.1    -0.00000     1.18911     1 2px   0.51649     1 2px  -1.17199     2 2px   0.50298     2 2px  -1.15298     3 1s    0.40804
                                    3 1s   -0.55378     4 1s    0.64930     4 1s   -1.07442     5 1s   -0.62907     5 1s    1.03799
                                    6 1s   -0.39681     6 1s    0.52760
   25.1    -0.00000     1.20933     1 1s   -0.79085     1 1s    1.37472     1 2px   0.33338     1 2py   0.28532     1 2px  -0.43995
                                    2 1s   -0.78969     2 1s    1.34981     2 2px  -0.34993     2 2py  -0.29367     2 2px   0.48116
                                    4 1s    0.68512     4 1s   -1.13671     5 1s    0.70833     5 1s   -1.17324
   26.1    -0.00000     1.27988     1 1s   -1.63145     1 1s    4.41972     1 2px   0.90096     1 2py  -0.34138     1 2pz  -0.75690
                                    2 1s    1.63222     2 1s   -4.42175     2 2px   0.89973     2 2py  -0.34316     2 2pz  -0.75561
                                    3 1s   -0.48087     4 1s   -0.72467     5 1s    0.73054     6 1s    0.47843
   27.1    -0.00000     1.75890     1 1s    0.78496     1 3d1+  0.45812     1 3d2+  0.39237     2 1s   -0.78414     2 3d1+ -0.45793
                                    2 3d2+ -0.39198
   28.1    -0.00000     1.85387     1 3d2-  0.33773     1 3d1- -0.53743     2 3d2- -0.33705     2 3d1-  0.53819
   29.1    -0.00000     2.04957     1 1s    0.41070     1 1s   -0.66372     1 2pz   0.25972     1 3d0   0.46281     1 3d1+  0.48303
                                    2 1s    0.40994     2 1s   -0.66072     2 2pz  -0.25877     2 3d0   0.46184     2 3d1+  0.48314
   30.1    -0.00000     2.15311     1 2px   0.25173     1 2py  -0.63455     1 3d2+  0.40933     1 3d1-  0.53484     2 2px  -0.25181
                                    2 2py   0.63513     2 3d2+  0.41032     2 3d1-  0.53526     3 1s    0.30397     6 1s    0.30450
   31.1    -0.00000     2.25658     1 2px   0.37687     1 2py   0.54584     1 3d2+  0.53724     1 3d1- -0.48058     2 2px  -0.37888
                                    2 2py  -0.54585     2 3d2+  0.53601     2 3d1- -0.48058     4 1s    0.44215     5 1s    0.44154
   32.1    -0.00000     2.35511     1 1s   -0.36589     1 1s    1.39150     1 2pz  -0.26896     1 3d0  -0.63706     1 3d2+ -0.30278
                                    2 1s    0.36597     2 1s   -1.39255     2 2pz  -0.26885     2 3d0   0.63779     2 3d2+  0.30467
                                    3 1s   -0.49393     4 1s   -0.27527     5 1s    0.27624     6 1s    0.49435
   33.1    -0.00000     2.51829     1 3d0   0.58072     1 3d1+ -0.53708     2 3d0   0.57369     2 3d1+ -0.53879     4 1s    0.27380
                                    5 1s    0.25595
   34.1    -0.00000     2.54377     1 1s   -0.77521     1 2py   0.27213     1 3d2- -0.60417     1 3d1- -0.42307     2 1s    0.77837
                                    2 2py   0.27196     2 3d2-  0.60644     2 3d1-  0.41875     3 1s   -0.33433     4 1s    0.58284
                                    5 1s   -0.59163     6 1s    0.32752
   35.1    -0.00000     2.70618     1 2py  -0.25092     1 3d2-  0.80987     2 2py   0.25200     2 3d2-  0.81075     3 1s    0.46136
                                    4 1s   -0.40009     5 1s   -0.40291     6 1s    0.46053
   36.1    -0.00000     2.90259     1 1s    1.52444     1 2px   0.33752     1 2px   0.89487     1 2pz  -0.36645     1 3d2- -0.30132
                                    1 3d1+ -0.60949     1 3d2+  0.68259     2 1s   -1.52431     2 2px   0.33763     2 2px   0.89496
                                    2 2pz  -0.36655     2 3d2-  0.30262     2 3d1+  0.60946     2 3d2+ -0.68224


 Natural orbital dump (state averaged) at molpro section  2140.2    (Orbital set 2)



 **********************************************************************************************************************************
 DATASETS  * FILE   NREC   LENGTH (MB)   RECORD NAMES
              1      20       31.84       500      610      700      900      950      970     1000      129      960     1100   
                                          VAR    BASINP    GEOM    SYMINP    ZMAT    AOBASIS   BASIS     P2S    ABASIS      S 
                                         1400     1410     1200     1210     1080     1600     1650     1300     1700     1380   
                                           T        V       H0       H01     AOSYM     SMH    MOLCAS    ERIS     OPER     JKOP   

              2       5        5.42       700     1000      520     2100     2140   
                                         GEOM     BASIS   MCVARS     RHF     MCSCF   

 PROGRAMS   *        TOTAL     MULTI    HF-SCF       INT
 CPU TIMES  *         0.75      0.35      0.11      0.18
 REAL TIME  *         1.01 SEC
 DISK USED  *        39.03 MB
 **********************************************************************************************************************************
 Molecular orbitals read from record     2140.2  Type=MCSCF/NATURAL (state averaged)
 Occupation numbers read from record     2140.2  Type=MCSCF/NATURAL (state averaged)
 Orbital energies read from record       2140.2  Type=MCSCF/NATURAL (state averaged)
 Redundancy group numbers read from rec  2140.2  Type=MCSCF/NATURAL (state averaged)

 MULTI/6-31G* energy=    -77.556179991562

           MULTI          HF-SCF
    -77.55617999    -77.95228651
 **********************************************************************************************************************************
 Molpro calculation terminated
