
 Primary working directories    : /scratch.local/johan406.molpro_temp/molpro.TRtZa1X8w8
 Secondary working directories  : /scratch.local/johan406.molpro_temp/molpro.TRtZa1X8w8
 Wavefunction directory         : /home/goodpast/johan406/wfu/
 Main file repository           : /scratch.local/johan406.molpro_temp/molpro.TRtZa1X8w8/

 id        : roweumn

 Nodes     nprocs
 acn06        1

 Using customized tuning parameters: mindgm=1; mindgv=20; mindgc=4; mindgr=1; noblas=0; minvec=7
 default implementation of scratch files=df  


 Variables initialized (934), CPU time= 0.00 sec
                                                                                 !leave this line blank
 
 gprint, orbitals=30
 memory, 125., m
 symmetry, nosym
 nelect=16
 basis=6-31g*
 
 geometry={
 C -0.698 0.142 0.283
 C 0.707 -0.192 -0.343
 H -1.144 0.956 0.084
 H -1.238 -0.930 -0.026
 H 1.247 0.880 -0.035
 H 1.152 -1.006 -0.144
 }
 
 hf
 {multi,
 closed 7
 occ 9
 wf,spin=0;STATE,3
 }
 
 Commands  initialized (763), CPU time= 0.01 sec, 617 directives.
 Default parameters read. Elapsed time= 0.07 sec

 Checking input...
 Passed
1


                                         ***  PROGRAM SYSTEM MOLPRO  ***
                                       Copyright, TTI GmbH Stuttgart, 2015
                                    Version 2019.2 linked Oct 25 2019 22:50:27


 **********************************************************************************************************************************
 LABEL *                                                                                 
  64 bit serial version                                                                  DATE: 15-Mar-23          TIME: 16:32:58  
 **********************************************************************************************************************************

 SHA1:             8dbd9ae1082e4ce945b0f27595c9eb2d4aa09004
 **********************************************************************************************************************************


 Variable memory set to  125000000 words,  buffer space 

 SETTING NELECT         =        16.00000000                                  
 SETTING BASIS          =    6-31G*
 ZSYMEL=NOSYM


Geometry recognized as XYZ



 Recomputing integrals since basis changed


 Using spherical harmonics

 Library entry C      S 6-31G                selected for orbital group  1
 Library entry C      P 6-31G                selected for orbital group  1
 Library entry C      D 6-31G*               selected for orbital group  1
 Library entry H      S 6-31G                selected for orbital group  2


 PROGRAM * SEWARD (Integral evaluation for generally contracted gaussian basis sets)     Author: Roland Lindh, 1990

 Geometry written to block  1 of record 700


 Point group  C1  



 ATOMIC COORDINATES

 NR  ATOM    CHARGE       X              Y              Z

   1  C       6.00   -1.319028835    0.268341110    0.534792493
   2  C       6.00    1.336036370   -0.362827416   -0.648176061
   3  H       1.00   -2.161846687    1.806578175    0.158736994
   4  H       1.00   -2.339480942   -1.757445296   -0.049132879
   5  H       1.00    2.356488477    1.662958990   -0.066140414
   6  H       1.00    2.176964495   -1.901064481   -0.272120562

 Bond lengths in Bohr (Angstrom)

 1-2  2.974417514  1-3  1.793859788  1-4  2.342242922  2-5  2.341772525  2-6  1.792972705
     ( 1.573993964)     ( 0.949269719)     ( 1.239461577)     ( 1.239212653)     ( 0.948800295)

 Bond angles

  1-2-5   96.11697280   1-2-6  121.15078137   2-1-3  121.19662128   2-1-4   96.09724983

  3-1-4  118.99209833   5-2-6  119.05537775

 NUCLEAR CHARGE:                   16
 NUMBER OF PRIMITIVE AOS:          72
 NUMBER OF SYMMETRY AOS:           70
 NUMBER OF CONTRACTIONS:           36   (   36A   )
 NUMBER OF CORE ORBITALS:           2   (    2A   )
 NUMBER OF VALENCE ORBITALS:       12   (   12A   )


 NUCLEAR REPULSION ENERGY   31.14557854

 Eigenvalues of metric

         1 0.133E-01 0.222E-01 0.421E-01 0.690E-01 0.878E-01 0.201E+00 0.243E+00 0.255E+00


 Contracted 2-electron integrals neglected if value below      1.0D-11
 AO integral compression algorithm  1   Integral accuracy      1.0D-11

     1.311 MB (compressed) written to integral file ( 69.0%)


 NUMBER OF SORTED TWO-ELECTRON INTEGRALS:     222111.     BUFFER LENGTH:  32768
 NUMBER OF SEGMENTS:   1  SEGMENT LENGTH:     222111      RECORD LENGTH: 524288

 Memory used in sort:       0.78 MW

 SORT1 READ      284735. AND WROTE      212526. INTEGRALS IN      1 RECORDS. CPU TIME:     0.00 SEC, REAL TIME:     0.00 SEC
 SORT2 READ      212526. AND WROTE      222111. INTEGRALS IN      5 RECORDS. CPU TIME:     0.02 SEC, REAL TIME:     0.03 SEC

 FILE SIZES:   FILE 1:    31.4 MBYTE,  FILE 4:     4.2 MBYTE,   TOTAL:     35.6 MBYTE

 OPERATOR DM      FOR CENTER  0  COORDINATES:    0.000000    0.000000    0.000000


 **********************************************************************************************************************************
 DATASETS  * FILE   NREC   LENGTH (MB)   RECORD NAMES
              1      19       31.11       500      610      700      900      950      970     1000      129      960     1100   
                                          VAR    BASINP    GEOM    SYMINP    ZMAT    AOBASIS   BASIS     P2S    ABASIS      S 
                                         1400     1410     1200     1210     1080     1600     1650     1300     1700   
                                           T        V       H0       H01     AOSYM     SMH    MOLCAS    ERIS     OPER   

 PROGRAMS   *        TOTAL       INT
 CPU TIMES  *         0.28      0.18
 REAL TIME  *         0.45 SEC
 DISK USED  *        35.97 MB
 **********************************************************************************************************************************


 PROGRAM * RHF-SCF (CLOSED SHELL)       Authors: W. Meyer, H.-J. Werner


 NUMBER OF ELECTRONS:       8+    8-    SPACE SYMMETRY=1    SPIN SYMMETRY: Singlet 
 CONVERGENCE THRESHOLDS:    1.00E-05 (Density)    1.00E-07 (Energy)
 MAX. NUMBER OF ITERATIONS:       60
 INTERPOLATION TYPE:            DIIS
 INTERPOLATION STEPS:              2 (START)      1 (STEP)
 LEVEL SHIFTS:                  0.00 (CLOSED)  0.00 (OPEN) 



 Orbital guess generated from atomic densities. Full valence occupancy:    8

 Molecular orbital dump at record        2100.2

 Initial occupancy:   8

 ITERATION    DDIFF          GRAD             ENERGY        2-EL.EN.            DIPOLE MOMENTS         DIIS   ORB.
    1      0.000D+00      0.000D+00       -77.84354983    113.342637   -0.00051    0.00041   -0.00008    0    start
    2      0.000D+00      0.711D-02       -77.86373180    112.439838    0.00044    0.00006   -0.00060    1    diag
    3      0.754D-02      0.234D-02       -77.86622464    112.795769   -0.00005    0.00038   -0.00007    2    diag
    4      0.296D-02      0.829D-03       -77.86672917    112.673327    0.00051    0.00012   -0.00058    3    diag
    5      0.151D-02      0.335D-03       -77.86689956    112.679922   -0.00013    0.00048    0.00009    4    diag
    6      0.107D-02      0.119D-03       -77.86692676    112.679977    0.00134   -0.00032   -0.00141    5    diag
    7      0.443D-03      0.358D-04       -77.86692797    112.680314   -0.00035    0.00060    0.00031    6    diag
    8      0.718D-04      0.194D-04       -77.86692825    112.680597    0.00037    0.00020   -0.00043    7    diag
    9      0.352D-04      0.442D-05       -77.86692827    112.680644    0.00032    0.00023   -0.00037    8    diag
   10      0.109D-04      0.111D-05       -77.86692827    112.680631    0.00032    0.00023   -0.00038    9    orth
   11      0.255D-05      0.206D-06       -77.86692827    112.680632    0.00032    0.00023   -0.00038    0    orth

 Final occupancy:   8

 !RHF STATE  1.1 Energy               -77.866928274829
 Nuclear energy                        31.14557854
 One-electron energy                 -165.35282286
 Two-electron energy                   56.34031604
 Virial quotient                       -1.00212870
 !RHF STATE  1.1 Dipole moment          0.00031984     0.00023094    -0.00037554
 Dipole moment /Debye                   0.00081291     0.00058695    -0.00095446

 ELECTRON ORBITALS
 =================

  Orbital  Occupation    Energy     Coefficients
    1.1     2.00000   -11.26683     1 1s   -0.71360     2 1s   -0.69517
    2.1     2.00000   -11.26625     1 1s    0.69527     2 1s   -0.71369
    3.1     2.00000    -0.99203     1 1s    0.28853     1 1s    0.25048     2 1s    0.28880     2 1s    0.25063
    4.1     2.00000    -0.83273     1 1s    0.24839
    5.1     2.00000    -0.60529     1 2py   0.28729     2 2py   0.29063
    6.1     2.00000    -0.59048     1 2py   0.27614     2 2py  -0.27295
    7.1     2.00000    -0.43417     1 2px   0.30656     2 2px  -0.30643
    8.1     2.00000    -0.34831     1 2pz   0.32202     1 2pz   0.31399     2 2pz   0.32194     2 2pz   0.31395
    9.1     0.00000     0.08419     1 1s    0.33574     1 2pz   0.34871     1 2pz   0.50798     2 1s    0.33549     2 2pz  -0.34880
                                    2 2pz  -0.50811
   10.1     0.00000     0.23161     1 1s   -1.11275     1 2px   0.52756     1 2py   0.26330     1 2pz   0.33297     2 1s   -1.11319
                                    2 2px  -0.52731     2 2py  -0.26267     2 2pz  -0.33259     3 1s    0.67449     4 1s    0.99186
                                    5 1s    0.99135     6 1s    0.67500
   11.1     0.00000     0.28480     1 1s    0.77674     1 2px  -0.27379     1 2py  -0.61457     2 1s   -0.77792     2 2px  -0.27433
                                    2 2py  -0.61494     4 1s   -1.33174     5 1s    1.33280
   12.1     0.00000     0.31652     1 1s    1.93048     1 2px   0.25531     1 2py   0.42597     1 2pz  -0.40788     2 1s   -1.92751
                                    2 2px   0.25677     2 2py   0.42214     2 2pz  -0.40695     3 1s   -1.62022     6 1s    1.61463
   13.1     0.00000     0.34325     1 1s   -1.11908     1 2px   0.25773     1 2py  -1.35205     2 1s   -1.12735     2 2px  -0.25614
                                    2 2py   1.35475     3 1s    2.05725     4 1s   -0.61931     5 1s   -0.62006     6 1s    2.06511
   14.1     0.00000     0.40199     1 1s   -0.86324     1 2px  -1.55688     1 2py   0.76363     1 2pz   0.52292     2 1s    0.86304
                                    2 2px  -1.55654     2 2py   0.76407     2 2pz   0.52297     3 1s   -1.21446     6 1s    1.21418
   15.1     0.00000     0.71201     1 1s    0.30868     1 2px   0.26986     1 2py  -0.34614     1 2px  -0.72496     1 2py   0.91027
                                    2 1s   -0.31292     2 2px   0.27332     2 2py  -0.34609     2 2px  -0.73020     2 2py   0.91482
                                    3 1s   -0.45883     3 1s   -0.54455     6 1s    0.45953     6 1s    0.54976
   16.1     0.00000     0.73369     1 1s   -0.51968     1 2px  -0.58360     1 2px   0.94053     1 2py  -0.25985     2 1s   -0.51909
                                    2 2px   0.58234     2 2px  -0.93500     2 2py   0.25391     3 1s    0.40473     4 1s   -0.25173
                                    5 1s   -0.25156     6 1s    0.40068
   17.1     0.00000     0.80361     1 2pz   0.76727     1 2pz  -0.68008     2 2pz   0.76759     2 2pz  -0.68070
   18.1     0.00000     0.85083     1 1s    0.41351     1 2pz  -0.71016     1 2py   0.60562     1 2pz   0.82163     2 1s    0.41435
                                    2 2pz   0.71018     2 2py  -0.60594     2 2pz  -0.82136     3 1s   -0.27870     6 1s   -0.27940
   19.1     0.00000     0.88352     1 1s   -0.70763     1 2py   0.62674     1 2px   0.28602     1 2py  -1.94396     1 2pz   0.51814
                                    2 1s   -0.70674     2 2py  -0.62470     2 2px  -0.28984     2 2py   1.94123     2 2pz  -0.51764
                                    3 1s    0.26707     3 1s    1.03487     4 1s   -0.35777     5 1s   -0.35718     6 1s    0.26688
                                    6 1s    1.03497
   20.1     0.00000     0.90409     1 1s    0.26773     1 1s   -0.65193     1 2px   0.68136     1 2px  -1.03070     1 2py  -0.38301
                                    2 1s   -0.26557     2 1s    0.65464     2 2px   0.68083     2 2px  -1.02878     2 2py  -0.39752
                                    4 1s   -0.33946     5 1s    0.34059
   21.1     0.00000     1.01841     1 1s   -0.87045     1 1s    1.37513     1 2pz  -0.48549     2 1s   -0.87166     2 1s    1.38042
                                    2 2pz   0.48619     3 1s   -0.32870     3 1s   -0.48319     4 1s   -0.49637     5 1s   -0.49662
                                    6 1s   -0.32882     6 1s   -0.48458
   22.1     0.00000     1.07038     1 1s   -0.35713     1 1s    0.55049     1 2py   0.46038     1 2px  -0.55403     1 2py  -0.64647
                                    2 1s    0.35456     2 1s   -0.54507     2 2py   0.45965     2 2px  -0.55248     2 2py  -0.64744
                                    4 1s    0.69971     4 1s   -1.32757     5 1s   -0.69603     5 1s    1.32298
   23.1     0.00000     1.09276     1 1s   -0.86071     1 1s    1.64661     1 2px  -0.43811     2 1s   -0.86295     2 1s    1.65122
                                    2 2px   0.43982     3 1s   -0.53850     4 1s    0.64687     4 1s   -1.04261     5 1s    0.65026
                                    5 1s   -1.04826     6 1s   -0.53946
   24.1     0.00000     1.27661     1 1s    0.86901     1 1s   -2.81870     1 2py  -0.45930     1 2px  -1.41194     1 2py   1.00729
                                    1 2pz   0.64419     2 1s   -0.87102     2 1s    2.82138     2 2py  -0.45823     2 2px  -1.41116
                                    2 2py   1.00765     2 2pz   0.64394     3 1s    0.48346     3 1s   -0.70377     4 1s    0.34547
                                    4 1s    0.27145     5 1s   -0.34551     5 1s   -0.27192     6 1s   -0.48050     6 1s    0.70097
   25.1     0.00000     1.33723     1 1s    1.35175     1 1s   -3.34495     1 2py   0.33149     1 2py  -0.31910     1 2pz   0.54292
                                    2 1s   -1.33864     2 1s    3.32395     2 2py   0.32383     2 2py  -0.31116     2 2pz   0.53978
                                    3 1s   -0.45457     3 1s    1.45955     6 1s    0.44242     6 1s   -1.43874
   26.1     0.00000     1.36642     1 1s   -0.72533     1 1s    1.17246     1 2py  -0.46771     1 2px  -0.27595     1 2py   0.47006
                                    2 1s   -0.74532     2 1s    1.21969     2 2py   0.47515     2 2px   0.27633     2 2py  -0.47926
                                    3 1s    0.73460     3 1s   -1.22080     6 1s    0.74383     6 1s   -1.24809
   27.1     0.00000     1.71157     1 1s    0.25819     1 3d0  -0.26683     1 3d1+  0.35508     1 3d2+  0.36336     1 3d1- -0.28145
                                    2 1s   -0.25790     2 3d0   0.26685     2 3d1+ -0.35501     2 3d2+ -0.36326     2 3d1-  0.28189
   28.1     0.00000     1.89024     1 1s   -0.33255     1 3d2-  0.32081     1 3d1+ -0.36842     1 3d1- -0.45990     2 1s    0.33196
                                    2 3d2- -0.32095     2 3d1+  0.36829     2 3d1-  0.46050     3 1s    0.25777     6 1s   -0.25754
   29.1     0.00000     2.05500     1 1s    0.43487     1 1s   -0.63370     1 3d0   0.48030     1 3d1+  0.47318     2 1s    0.43482
                                    2 1s   -0.63392     2 3d0   0.47958     2 3d1+  0.47343
   30.1     0.00000     2.12048     1 2px   0.32394     1 2py  -0.43151     1 3d2- -0.35142     1 3d2+  0.47773     1 3d1-  0.35696
                                    2 2px  -0.32352     2 2py   0.43163     2 3d2- -0.35167     2 3d2+  0.47654     2 3d1-  0.35666
                                    3 1s    0.29155     6 1s    0.29123
   31.1     0.00000     2.26893     1 2py  -0.71937     1 3d0  -0.27223     1 3d1+  0.29655     1 3d1-  0.54300     2 2py   0.72005
                                    2 3d0  -0.27279     2 3d1+  0.29639     2 3d1-  0.54247     3 1s    0.33104     4 1s   -0.44580
                                    5 1s   -0.44611     6 1s    0.33184
   32.1     0.00000     2.33865     1 1s    0.37250     1 1s   -1.39741     1 2px  -0.41437     1 2py   0.31185     1 2pz   0.31773
                                    1 3d0   0.58635     1 3d2+  0.25765     2 1s   -0.37201     2 1s    1.39805     2 2px  -0.41371
                                    2 2py   0.31129     2 2pz   0.31797     2 3d0  -0.58641     2 3d2+ -0.25896     4 1s    0.48073
                                    5 1s   -0.48144
   33.1     0.00000     2.45317     1 3d0  -0.37440     1 3d1+  0.37874     1 3d2+  0.44424     1 3d1- -0.31925     2 3d0  -0.37510
                                    2 3d1+  0.37875     2 3d2+  0.44368     2 3d1- -0.31970
   34.1     0.00000     2.61292     1 1s   -0.36952     1 2py  -0.26606     1 3d0   0.27638     1 3d2-  0.58973     1 3d2+  0.26811
                                    1 3d1-  0.41007     2 1s    0.36999     2 2py  -0.26697     2 3d0  -0.27530     2 3d2- -0.58810
                                    2 3d2+ -0.26932     2 3d1- -0.41021     3 1s    0.81876     6 1s   -0.81885
   35.1     0.00000     2.81413     1 1s   -0.28302     1 2py  -0.32669     1 3d0   0.35432     1 3d2-  0.67473     1 3d1+ -0.27091
                                    1 3d2+  0.30523     2 1s   -0.29548     2 2py   0.32562     2 3d0   0.35667     2 3d2-  0.67738
                                    2 3d1+ -0.26696     2 3d2+  0.30255     3 1s    0.78454     6 1s    0.78648
   36.1     0.00000     2.87706     1 1s   -1.61830     1 2px  -0.29681     1 2px  -0.88702     1 2py   0.26925     1 2pz   0.39433
                                    1 3d2-  0.28629     1 3d1+  0.60120     1 3d2+ -0.64819     2 1s    1.61677     2 2px  -0.29726
                                    2 2px  -0.88799     2 2py   0.27128     2 2pz   0.39404     2 3d2- -0.28228     2 3d1+ -0.60273
                                    2 3d2+  0.65015


 HOMO      8.1    -0.348308 =      -9.4779eV
 LUMO      9.1     0.084189 =       2.2909eV
 LUMO-HOMO         0.432497 =      11.7688eV


 **********************************************************************************************************************************
 DATASETS  * FILE   NREC   LENGTH (MB)   RECORD NAMES
              1      19       31.11       500      610      700      900      950      970     1000      129      960     1100   
                                          VAR    BASINP    GEOM    SYMINP    ZMAT    AOBASIS   BASIS     P2S    ABASIS      S 
                                         1400     1410     1200     1210     1080     1600     1650     1300     1700   
                                           T        V       H0       H01     AOSYM     SMH    MOLCAS    ERIS     OPER   

              2       4        2.86       700     1000      520     2100   
                                         GEOM     BASIS   MCVARS     RHF  

 PROGRAMS   *        TOTAL    HF-SCF       INT
 CPU TIMES  *         0.40      0.12      0.18
 REAL TIME  *         0.70 SEC
 DISK USED  *        35.97 MB
 **********************************************************************************************************************************


 PROGRAM * MULTI (Direct Multiconfiguration SCF)       Authors: P.J. Knowles, H.-J. Werner (1984)


 Number of closed-shell orbitals:   7 (   7 )
 Number of active  orbitals:        2 (   2 )
 Number of external orbitals:      27 (  27 )

 State symmetry 1

 Number of electrons:     2    Spin symmetry=Singlet   Space symmetry=1
 Number of states:        3
 Number of CSFs:          3   (4 determinants, 4 intermediate states)

 Molecular orbitals read from record     2100.2  Type=RHF/CANONICAL (state 1.1)

 Wavefunction dump at record             2140.2

 Convergence thresholds  0.10E-01 (gradient)  0.10E-05 (energy)  0.10E-02 (step length)

 Weight factors for state symmetry  1:    0.33333   0.33333   0.33333

 Number of orbital rotations:      257   (    14 Core/Active    189 Core/Virtual   0 Active/Active     54 Active/Virtual)
 Total number of variables:        269

 Micro-Iterations solved by the two-step solver

 ITER. MIC  NCI  NEG     ENERGY(VAR)     ENERGY(PROJ)   ENERGY CHANGE     GRAD(0)  GRAD(ORB)   GRAD(CI)     STEP       TIME

   1   11    5    1     -77.64946788     -77.65785324   -0.00838536    0.10070738 0.00144072 0.00000000  0.22D+00      0.37
   2   12    6    0     -77.66062327     -77.66412462   -0.00350136    0.06145788 0.00044292 0.00000000  0.11D+00      0.53
   3   13    7    0     -77.66440233     -77.66458227   -0.00017994    0.01062383 0.00004533 0.00000000  0.37D-01      0.67
   4   12    6    0     -77.66458528     -77.66458622   -0.00000094    0.00089941 0.00000006 0.00000000  0.20D-02      0.80
   5    6    4    0     -77.66458622     -77.66458622   -0.00000000    0.00000139 0.00000000 0.00000000  0.68D-05      0.87

 ** WVFN ****  CONVERGENCE REACHED, FINAL GRADIENT:  0.37D-10



 Results for state 1.1
 =====================

 !MCSCF STATE  1.1 Energy             -77.864370254390
 Nuclear energy                        31.14557854
 Kinetic energy                        77.74159962
 One electron energy                 -165.39520353
 Two electron energy                   56.38525473
 Virial ratio                           2.00157921

 !MCSCF STATE  1.1 Dipole moment        0.05656984     0.00462601    -0.01221491
 Dipole moment /Debye                   0.14377678     0.01175737    -0.03104516

 Results for state 2.1
 =====================

 !MCSCF STATE  2.1 Energy             -77.666481627422
 Nuclear energy                        31.14557854
 Kinetic energy                        77.92032952
 One electron energy                 -165.12995999
 Two electron energy                   56.31789982
 Virial ratio                           1.99674221

 !MCSCF STATE  2.1 Dipole moment       -0.09014765     0.04231677     0.05144290
 Dipole moment /Debye                  -0.22911747     0.10755145     0.13074624

 Results for state 3.1
 =====================

 !MCSCF STATE  3.1 Energy             -77.462906780243
 Nuclear energy                        31.14557854
 Kinetic energy                        78.10331799
 One electron energy                 -164.91961143
 Two electron energy                   56.31112611
 Virial ratio                           1.99180046

 !MCSCF STATE  3.1 Dipole moment        0.00805354     0.03828994    -0.07171909
 Dipole moment /Debye                   0.02046872     0.09731693    -0.18227980

 State-averaged charge density matrix saved on record  2140.2 (density set 1)

 !MCSCF expec         <1.1|DMX|1.1>     0.056569843305 au =     0.143776782348 Debye
 !MCSCF trans         <2.1|DMX|1.1>     0.769624257013 au =     1.956061619140 Debye
 !MCSCF expec         <2.1|DMX|2.1>    -0.090147653877 au =    -0.229117474140 Debye
 !MCSCF trans         <3.1|DMX|1.1>     0.046144563574 au =     0.117280099889 Debye
 !MCSCF trans         <3.1|DMX|2.1>     0.930921103657 au =     2.366010458632 Debye
 !MCSCF expec         <3.1|DMX|3.1>     0.008053539878 au =     0.020468715883 Debye

 !MCSCF expec         <1.1|DMY|1.1>     0.004626008429 au =     0.011757370504 Debye
 !MCSCF trans         <2.1|DMY|1.1>    -0.130755911840 au =    -0.332326610415 Debye
 !MCSCF expec         <2.1|DMY|2.1>     0.042316767315 au =     0.107551449473 Debye
 !MCSCF trans         <3.1|DMY|1.1>    -0.010267126290 au =    -0.026094722836 Debye
 !MCSCF trans         <3.1|DMY|2.1>    -0.158844367872 au =    -0.403715668497 Debye
 !MCSCF expec         <3.1|DMY|3.1>     0.038289935045 au =     0.097316933112 Debye

 !MCSCF expec         <1.1|DMZ|1.1>    -0.012214905890 au =    -0.031045160512 Debye
 !MCSCF trans         <2.1|DMZ|1.1>    -0.588333074803 au =    -1.495295576257 Debye
 !MCSCF expec         <2.1|DMZ|2.1>     0.051442896830 au =     0.130746237724 Debye
 !MCSCF trans         <3.1|DMZ|1.1>    -0.026051687197 au =    -0.066212447146 Debye
 !MCSCF trans         <3.1|DMZ|2.1>    -0.709033131184 au =    -1.802064425553 Debye
 !MCSCF expec         <3.1|DMZ|3.1>    -0.071719089604 au =    -0.182279803755 Debye


 NATURAL ORBITALS (state averaged)
 =================================

  Orbital  Occupation    Energy     Coefficients
    1.1     2.00000   -11.26055     2 1s   -0.99585
    2.1     2.00000   -11.25307     1 1s    0.99587
    3.1     2.00000    -0.99217     1 1s    0.28908     1 1s    0.25389     2 1s    0.28463
    4.1     2.00000    -0.82622     1 1s    0.26584     2 1s   -0.25093     2 1s   -0.25923
    5.1     2.00000    -0.60715     1 2py   0.25831     2 2py   0.31072
    6.1     2.00000    -0.58704     1 2py   0.31951     2 2py  -0.27105
    7.1     2.00000    -0.39799     1 2pz   0.26418     1 2pz   0.25899     2 2pz   0.31622     2 2pz   0.26574
    8.1     1.00000    -0.25887     2 2px   0.35178
    9.1     1.00000    -0.06198     1 2pz   0.39298     1 2pz   0.44955     2 2pz  -0.43033     2 2pz  -0.47179
   10.1    -0.00000     0.22391     1 1s   -1.13013     1 2px   0.52659     1 2py   0.28301     1 2pz   0.28253     2 1s   -1.09456
                                    2 2px  -0.53009     2 2py  -0.30149     2 2pz  -0.28349     3 1s    0.65125     4 1s    1.00781
                                    5 1s    1.01588     6 1s    0.60875
   11.1    -0.00000     0.27297     1 1s    1.01883     1 2py  -0.60089     2 1s   -0.96321     2 2py  -0.63789     4 1s   -1.33598
                                    5 1s    1.34993
   12.1    -0.00000     0.31771     1 1s    1.82403     1 2px   0.29492     1 2py   0.47891     1 2pz  -0.40134     2 1s   -1.88382
                                    2 2px   0.27424     2 2py   0.48605     2 2pz  -0.36324     3 1s   -1.58875     6 1s    1.63483
   13.1    -0.00000     0.34567     1 1s   -1.16015     1 2px   0.26007     1 2py  -1.35256     2 1s   -1.16989     2 2px  -0.28402
                                    2 2py   1.34017     3 1s    2.08613     4 1s   -0.60914     5 1s   -0.56890     6 1s    2.07977
   14.1    -0.00000     0.40382     1 1s   -0.75505     1 2px  -0.25461     1 2px  -1.56427     1 2py   0.72083     1 2pz   0.53509
                                    2 1s    0.79041     2 2px  -1.56900     2 2py   0.71982     2 2pz   0.44560     3 1s   -1.23663
                                    6 1s    1.22429
   15.1    -0.00000     0.71164     1 1s    0.27113     1 2py  -0.33943     1 2px  -0.68200     1 2py   0.88042     2 1s   -0.28027
                                    2 2px   0.30174     2 2py  -0.35697     2 2px  -0.77026     2 2py   0.94545     3 1s   -0.45091
                                    3 1s   -0.51640     6 1s    0.46594     6 1s    0.54680
   16.1    -0.00000     0.73270     1 1s   -0.51921     1 2px  -0.57699     1 2px   0.93464     1 2py  -0.29568     2 1s   -0.42388
                                    2 2px   0.56578     2 2px  -0.90009     3 1s    0.41560     4 1s   -0.28901     5 1s    0.25689
                                    5 1s   -0.29441     6 1s    0.34406
   17.1    -0.00000     0.80090     1 2pz   0.71446     1 2pz  -0.62911     2 2pz   0.80649     2 2pz  -0.80237
   18.1    -0.00000     0.84732     1 2pz  -0.76234     1 2px   0.33711     1 2py   0.42873     1 2pz   0.97042     2 1s    0.26198
                                    2 2pz   0.64462     2 2py  -0.36795     2 2pz  -0.87345
   19.1    -0.00000     0.88655     1 1s   -0.67115     1 2py   0.62123     1 2px   0.36380     1 2py  -1.94643     1 2pz   0.43765
                                    2 1s   -0.77694     2 2py  -0.66879     2 2py   2.02299     2 2pz  -0.41977     3 1s    0.27122
                                    3 1s    1.04876     4 1s   -0.34531     5 1s   -0.40524     6 1s    0.25845     6 1s    1.05165
   20.1    -0.00000     0.90297     1 1s    0.25424     1 1s   -0.69014     1 2px   0.65440     1 2px  -0.91783     1 2py  -0.50686
                                    2 1s   -0.32355     2 1s    0.65410     2 2px   0.65563     2 2px  -0.95039     4 1s   -0.41181
                                    5 1s    0.39880
   21.1    -0.00000     1.00685     1 1s   -0.79085     1 1s    1.19964     1 2px  -0.26006     1 2pz  -0.43770     2 1s   -0.75515
                                    2 1s    1.18064     2 2px   0.28461     2 2pz   0.45018     3 1s   -0.30187     3 1s   -0.42029
                                    4 1s   -0.52060     5 1s   -0.61352     6 1s   -0.31456     6 1s   -0.43767
   22.1    -0.00000     1.04969     1 2px   0.30983     1 2py   0.45603     1 2px  -0.61972     1 2py  -0.69492     2 1s    0.41936
                                    2 1s   -0.63255     2 2px   0.30825     2 2py   0.49011     2 2px  -0.70282     2 2py  -0.62364
                                    4 1s    0.66275     4 1s   -1.27145     5 1s   -0.67398     5 1s    1.38773
   23.1    -0.00000     1.07841     1 1s   -0.98258     1 1s    1.85708     1 2px  -0.49448     1 2pz  -0.25607     2 1s   -0.91409
                                    2 1s    1.74169     2 2px   0.43891     2 2pz   0.25716     3 1s   -0.59942     4 1s    0.63692
                                    4 1s   -1.11530     5 1s    0.53435     5 1s   -0.93229     6 1s   -0.59237
   24.1    -0.00000     1.27054     1 1s    0.94509     1 1s   -2.99133     1 2py  -0.44297     1 2px  -1.42764     1 2py   0.99796
                                    1 2pz   0.65842     2 1s   -0.93470     2 1s    2.97736     2 2py  -0.43977     2 2px  -1.42463
                                    2 2py   0.99206     2 2pz   0.66960     3 1s    0.46106     3 1s   -0.63505     4 1s    0.33944
                                    4 1s    0.29458     5 1s   -0.33615     5 1s   -0.29562     6 1s   -0.45829     6 1s    0.63629
   25.1    -0.00000     1.34045     1 1s    1.29444     1 1s   -3.17834     1 2py   0.34679     1 2py  -0.36475     1 2pz   0.49257
                                    2 1s   -1.31389     2 1s    3.21319     2 2px  -0.25823     2 2py   0.34328     2 2py  -0.36356
                                    2 2pz   0.50652     3 1s   -0.46110     3 1s    1.47039     6 1s    0.46741     6 1s   -1.48945
   26.1    -0.00000     1.37168     1 1s   -0.75081     1 1s    1.22429     1 2py  -0.47690     1 2px  -0.26990     1 2py   0.47797
                                    2 1s   -0.74021     2 1s    1.19473     2 2py   0.46064     2 2px   0.28664     2 2py  -0.46505
                                    3 1s    0.74251     3 1s   -1.24140     6 1s    0.73297     6 1s   -1.22593
   27.1    -0.00000     1.70655     1 1s    0.27851     1 3d0  -0.26795     1 3d1+  0.35065     1 3d2+  0.35708     1 3d1- -0.28292
                                    2 1s   -0.25993     2 3d0   0.26678     2 3d1+ -0.35761     2 3d2+ -0.37016     2 3d1-  0.27882
   28.1    -0.00000     1.88763     1 1s   -0.31565     1 3d2-  0.32129     1 3d1+ -0.36598     1 3d1- -0.45832     2 1s    0.30895
                                    2 3d2- -0.32022     2 3d1+  0.37302     2 3d1-  0.45750     3 1s    0.26544     6 1s   -0.25807
   29.1    -0.00000     2.05569     1 1s    0.42663     1 1s   -0.60468     1 3d0   0.46808     1 3d1+  0.47592     2 1s    0.43584
                                    2 1s   -0.65490     2 3d0   0.48863     2 3d1+  0.47342
   30.1    -0.00000     2.11292     1 2px   0.33121     1 2py  -0.41319     1 3d2- -0.35220     1 3d2+  0.48529     1 3d1-  0.33921
                                    2 2px  -0.32103     2 2py   0.40386     2 3d2- -0.36293     2 3d2+  0.48454     2 3d1-  0.33302
                                    3 1s    0.28135     6 1s    0.28142
   31.1    -0.00000     2.26348     1 2py  -0.73182     1 3d0  -0.26070     1 3d1+  0.29413     1 3d1-  0.54779     2 2py   0.74620
                                    2 3d0  -0.27963     2 3d1+  0.28950     2 3d1-  0.56596     3 1s    0.34645     4 1s   -0.42349
                                    5 1s   -0.44309     6 1s    0.34070
   32.1    -0.00000     2.33515     1 1s    0.37625     1 1s   -1.38734     1 2px  -0.40515     1 2py   0.31619     1 2pz   0.30900
                                    1 3d0   0.60443     1 3d2+  0.25788     2 1s   -0.37435     2 1s    1.37788     2 2px  -0.40569
                                    2 2py   0.31051     2 2pz   0.31623     2 3d0  -0.55485     2 3d2+ -0.26133     4 1s    0.48695
                                    5 1s   -0.46649
   33.1    -0.00000     2.44852     1 3d0  -0.35865     1 3d1+  0.39023     1 3d2+  0.44173     1 3d1- -0.33349     2 3d0  -0.38402
                                    2 3d2-  0.25078     2 3d1+  0.36510     2 3d2+  0.44538     2 3d1- -0.30344
   34.1    -0.00000     2.60983     1 1s   -0.38524     1 2py  -0.25671     1 3d0   0.27071     1 3d2-  0.57674     1 3d2+  0.27149
                                    1 3d1-  0.40349     2 1s    0.38688     2 2py  -0.26267     2 3d0  -0.29987     2 3d2- -0.58884
                                    2 3d2+ -0.27446     2 3d1- -0.41132     3 1s    0.80896     6 1s   -0.84073
   35.1    -0.00000     2.81229     1 2py  -0.34718     1 3d0   0.35122     1 3d2-  0.66838     1 3d1+ -0.30289     1 3d2+  0.33929
                                    2 1s   -0.37562     2 2py   0.30415     2 3d0   0.37095     2 3d2-  0.67341     2 3d2+  0.26185
                                    3 1s    0.80460     6 1s    0.76999
   36.1    -0.00000     2.87086     1 1s   -1.65834     1 2px  -0.28800     1 2px  -0.88724     1 2py   0.25315     1 2pz   0.39906
                                    1 3d0   0.25839     1 3d2-  0.31799     1 3d1+  0.58512     1 3d2+ -0.63386     2 1s    1.62573
                                    2 2px  -0.29281     2 2px  -0.90348     2 2py   0.29298     2 2pz   0.39931     2 3d2- -0.25079
                                    2 3d1+ -0.62065     2 3d2+  0.65626


 Natural orbital dump (state averaged) at molpro section  2140.2    (Orbital set 2)



 **********************************************************************************************************************************
 DATASETS  * FILE   NREC   LENGTH (MB)   RECORD NAMES
              1      20       31.84       500      610      700      900      950      970     1000      129      960     1100   
                                          VAR    BASINP    GEOM    SYMINP    ZMAT    AOBASIS   BASIS     P2S    ABASIS      S 
                                         1400     1410     1200     1210     1080     1600     1650     1300     1700     1380   
                                           T        V       H0       H01     AOSYM     SMH    MOLCAS    ERIS     OPER     JKOP   

              2       5        5.42       700     1000      520     2100     2140   
                                         GEOM     BASIS   MCVARS     RHF     MCSCF   

 PROGRAMS   *        TOTAL     MULTI    HF-SCF       INT
 CPU TIMES  *         1.32      0.92      0.12      0.18
 REAL TIME  *         1.70 SEC
 DISK USED  *        39.03 MB
 **********************************************************************************************************************************
 Molecular orbitals read from record     2140.2  Type=MCSCF/NATURAL (state averaged)
 Occupation numbers read from record     2140.2  Type=MCSCF/NATURAL (state averaged)
 Orbital energies read from record       2140.2  Type=MCSCF/NATURAL (state averaged)
 Redundancy group numbers read from rec  2140.2  Type=MCSCF/NATURAL (state averaged)

 MULTI/6-31G* energy=    -77.462906780243

           MULTI          HF-SCF
    -77.46290678    -77.86692827
 **********************************************************************************************************************************
 Molpro calculation terminated
