
 Primary working directories    : /scratch.local/johan406.molpro_temp/molpro.a2u97mDdNt
 Secondary working directories  : /scratch.local/johan406.molpro_temp/molpro.a2u97mDdNt
 Wavefunction directory         : /home/goodpast/johan406/wfu/
 Main file repository           : /scratch.local/johan406.molpro_temp/molpro.a2u97mDdNt/

 id        : roweumn

 Nodes     nprocs
 acn06        1

 Using customized tuning parameters: mindgm=1; mindgv=20; mindgc=4; mindgr=1; noblas=0; minvec=7
 default implementation of scratch files=df  


 Variables initialized (934), CPU time= 0.00 sec
                                                                                 !leave this line blank
 
 gprint, orbitals=30
 memory, 125., m
 symmetry, nosym
 nelect=16
 basis=6-31g*
 
 geometry={
 C -0.701 0.151 0.285
 C 0.710 -0.201 -0.346
 H -1.149 0.936 0.094
 H -1.237 -0.959 -0.042
 H 1.246 0.909 -0.019
 H 1.158 -0.986 -0.155
 }
 
 hf
 {multi,
 closed 7
 occ 9
 wf,spin=0;STATE,3
 }
 
 Commands  initialized (763), CPU time= 0.01 sec, 617 directives.
 Default parameters read. Elapsed time= 0.06 sec

 Checking input...
 Passed
1


                                         ***  PROGRAM SYSTEM MOLPRO  ***
                                       Copyright, TTI GmbH Stuttgart, 2015
                                    Version 2019.2 linked Oct 25 2019 22:50:27


 **********************************************************************************************************************************
 LABEL *                                                                                 
  64 bit serial version                                                                  DATE: 15-Mar-23          TIME: 16:33:21  
 **********************************************************************************************************************************

 SHA1:             8dbd9ae1082e4ce945b0f27595c9eb2d4aa09004
 **********************************************************************************************************************************


 Variable memory set to  125000000 words,  buffer space 

 SETTING NELECT         =        16.00000000                                  
 SETTING BASIS          =    6-31G*
 ZSYMEL=NOSYM


Geometry recognized as XYZ



 Recomputing integrals since basis changed


 Using spherical harmonics

 Library entry C      S 6-31G                selected for orbital group  1
 Library entry C      P 6-31G                selected for orbital group  1
 Library entry C      D 6-31G*               selected for orbital group  1
 Library entry H      S 6-31G                selected for orbital group  2


 PROGRAM * SEWARD (Integral evaluation for generally contracted gaussian basis sets)     Author: Roland Lindh, 1990

 Geometry written to block  1 of record 700


 Point group  C1  



 ATOMIC COORDINATES

 NR  ATOM    CHARGE       X              Y              Z

   1  C       6.00   -1.324698013    0.285348645    0.538571946
   2  C       6.00    1.341705548   -0.379834951   -0.653845239
   3  H       1.00   -2.171295317    1.768783653    0.177634256
   4  H       1.00   -2.337591216   -1.812247353   -0.079368497
   5  H       1.00    2.354598751    1.717761047   -0.035904796
   6  H       1.00    2.188302852   -1.863269959   -0.292907549

 Bond lengths in Bohr (Angstrom)

 1-2  2.995669527  1-3  1.745732635  1-4  2.409919501  2-5  2.409919501  2-6  1.745732635
     ( 1.585240045)     ( 0.923801927)     ( 1.275274480)     ( 1.275274480)     ( 0.923801927)

 Bond angles

  1-2-5   94.51776344   1-2-6  122.55010377   2-1-3  122.55010377   2-1-4   94.51776344

  3-1-4  118.86720327   5-2-6  118.86720327

 NUCLEAR CHARGE:                   16
 NUMBER OF PRIMITIVE AOS:          72
 NUMBER OF SYMMETRY AOS:           70
 NUMBER OF CONTRACTIONS:           36   (   36A   )
 NUMBER OF CORE ORBITALS:           2   (    2A   )
 NUMBER OF VALENCE ORBITALS:       12   (   12A   )


 NUCLEAR REPULSION ENERGY   31.07847869

 Eigenvalues of metric

         1 0.138E-01 0.201E-01 0.387E-01 0.752E-01 0.933E-01 0.191E+00 0.227E+00 0.258E+00


 Contracted 2-electron integrals neglected if value below      1.0D-11
 AO integral compression algorithm  1   Integral accuracy      1.0D-11

     1.311 MB (compressed) written to integral file ( 68.8%)


 NUMBER OF SORTED TWO-ELECTRON INTEGRALS:     222111.     BUFFER LENGTH:  32768
 NUMBER OF SEGMENTS:   1  SEGMENT LENGTH:     222111      RECORD LENGTH: 524288

 Memory used in sort:       0.78 MW

 SORT1 READ      284735. AND WROTE      212526. INTEGRALS IN      1 RECORDS. CPU TIME:     0.00 SEC, REAL TIME:     0.00 SEC
 SORT2 READ      212526. AND WROTE      222111. INTEGRALS IN      5 RECORDS. CPU TIME:     0.02 SEC, REAL TIME:     0.03 SEC

 FILE SIZES:   FILE 1:    31.4 MBYTE,  FILE 4:     4.2 MBYTE,   TOTAL:     35.6 MBYTE

 OPERATOR DM      FOR CENTER  0  COORDINATES:    0.000000    0.000000    0.000000


 **********************************************************************************************************************************
 DATASETS  * FILE   NREC   LENGTH (MB)   RECORD NAMES
              1      19       31.11       500      610      700      900      950      970     1000      129      960     1100   
                                          VAR    BASINP    GEOM    SYMINP    ZMAT    AOBASIS   BASIS     P2S    ABASIS      S 
                                         1400     1410     1200     1210     1080     1600     1650     1300     1700   
                                           T        V       H0       H01     AOSYM     SMH    MOLCAS    ERIS     OPER   

 PROGRAMS   *        TOTAL       INT
 CPU TIMES  *         0.27      0.17
 REAL TIME  *         0.42 SEC
 DISK USED  *        35.97 MB
 **********************************************************************************************************************************


 PROGRAM * RHF-SCF (CLOSED SHELL)       Authors: W. Meyer, H.-J. Werner


 NUMBER OF ELECTRONS:       8+    8-    SPACE SYMMETRY=1    SPIN SYMMETRY: Singlet 
 CONVERGENCE THRESHOLDS:    1.00E-05 (Density)    1.00E-07 (Energy)
 MAX. NUMBER OF ITERATIONS:       60
 INTERPOLATION TYPE:            DIIS
 INTERPOLATION STEPS:              2 (START)      1 (STEP)
 LEVEL SHIFTS:                  0.00 (CLOSED)  0.00 (OPEN) 



 Orbital guess generated from atomic densities. Full valence occupancy:    8

 Molecular orbital dump at record        2100.2

 Initial occupancy:   8

 ITERATION    DDIFF          GRAD             ENERGY        2-EL.EN.            DIPOLE MOMENTS         DIIS   ORB.
    1      0.000D+00      0.000D+00       -77.80896343    113.120073   -0.00000    0.00000   -0.00000    0    start
    2      0.000D+00      0.718D-02       -77.83011072    112.194828   -0.00000    0.00000   -0.00000    1    diag
    3      0.778D-02      0.242D-02       -77.83284079    112.550343   -0.00000    0.00000   -0.00000    2    diag
    4      0.308D-02      0.861D-03       -77.83340573    112.422077   -0.00000    0.00000   -0.00000    3    diag
    5      0.160D-02      0.354D-03       -77.83359726    112.428493   -0.00000    0.00000   -0.00000    4    diag
    6      0.112D-02      0.129D-03       -77.83363091    112.428670   -0.00000    0.00000   -0.00000    5    diag
    7      0.494D-03      0.329D-04       -77.83363284    112.429281   -0.00000    0.00000   -0.00000    6    diag
    8      0.108D-03      0.912D-05       -77.83363297    112.429478   -0.00000    0.00000   -0.00000    7    diag
    9      0.271D-04      0.232D-05       -77.83363298    112.429456   -0.00000    0.00000   -0.00000    8    diag
   10      0.570D-05      0.497D-06       -77.83363298    112.429457   -0.00000    0.00000   -0.00000    0    orth

 Final occupancy:   8

 !RHF STATE  1.1 Energy               -77.833632976124
 Nuclear energy                        31.07847869
 One-electron energy                 -165.12684007
 Two-electron energy                   56.21472841
 Virial quotient                       -1.00134020
 !RHF STATE  1.1 Dipole moment         -0.00000000     0.00000000    -0.00000000
 Dipole moment /Debye                  -0.00000000     0.00000000    -0.00000000

 ELECTRON ORBITALS
 =================

  Orbital  Occupation    Energy     Coefficients
    1.1     2.00000   -11.27141     1 1s    0.70445     2 1s    0.70445
    2.1     2.00000   -11.27086     1 1s    0.70454     2 1s   -0.70454
    3.1     2.00000    -0.99329     1 1s    0.28909     2 1s    0.28909
    4.1     2.00000    -0.84450     1 1s    0.24808
    5.1     2.00000    -0.60090     1 2px   0.25709     1 2py  -0.27231     2 2px  -0.25709     2 2py   0.27231
    6.1     2.00000    -0.59578     1 2py   0.28333     2 2py   0.28333
    7.1     2.00000    -0.42309     1 2px   0.29933     2 2px  -0.29933     4 1s   -0.25342     5 1s   -0.25342
    8.1     2.00000    -0.34886     1 2pz   0.32174     1 2pz   0.31227     2 2pz   0.32174     2 2pz   0.31227
    9.1     0.00000     0.08060     1 1s    0.33355     1 2pz   0.35049     1 2pz   0.50258     2 1s    0.33355     2 2pz  -0.35049
                                    2 2pz  -0.50258
   10.1     0.00000     0.22378     1 1s   -1.03820     1 2px   0.50435     1 2py   0.29656     1 2pz   0.31969     2 1s   -1.03820
                                    2 2px  -0.50435     2 2py  -0.29656     2 2pz  -0.31969     3 1s    0.61229     4 1s    0.95749
                                    5 1s    0.95749     6 1s    0.61229
   11.1     0.00000     0.27451     1 1s   -0.64394     1 2px   0.29353     1 2py   0.59418     2 1s    0.64394     2 2px   0.29353
                                    2 2py   0.59418     4 1s    1.25945     5 1s   -1.25945
   12.1     0.00000     0.31700     1 1s    2.00312     1 2px   0.27792     1 2py   0.37384     1 2pz  -0.42755     2 1s   -2.00312
                                    2 2px   0.27792     2 2py   0.37384     2 2pz  -0.42755     3 1s   -1.61000     6 1s    1.61000
   13.1     0.00000     0.34215     1 1s   -1.29786     1 2px   0.31782     1 2py  -1.32521     2 1s   -1.29786     2 2px  -0.31782
                                    2 2py   1.32521     3 1s    2.18076     4 1s   -0.52620     5 1s   -0.52620     6 1s    2.18076
   14.1     0.00000     0.40169     1 1s    0.69404     1 2px   1.52938     1 2py  -0.82086     1 2pz  -0.50146     2 1s   -0.69404
                                    2 2px   1.52938     2 2py  -0.82086     2 2pz  -0.50146     3 1s    1.37009     6 1s   -1.37009
   15.1     0.00000     0.69910     1 1s    0.36834     1 2px   0.28215     1 2py  -0.33303     1 2px  -0.81329     1 2py   0.93808
                                    2 1s   -0.36834     2 2px   0.28215     2 2py  -0.33303     2 2px  -0.81329     2 2py   0.93808
                                    3 1s   -0.45360     3 1s   -0.64247     6 1s    0.45360     6 1s    0.64247
   16.1     0.00000     0.74091     1 1s   -0.57392     1 2px  -0.58826     1 2px   0.95262     1 2py  -0.29693     2 1s   -0.57392
                                    2 2px   0.58826     2 2px  -0.95262     2 2py   0.29693     3 1s    0.48026     4 1s   -0.26451
                                    5 1s   -0.26451     6 1s    0.48026
   17.1     0.00000     0.80195     1 2pz   0.77173     1 2pz  -0.68613     2 2pz   0.77173     2 2pz  -0.68613
   18.1     0.00000     0.84803     1 1s    0.44431     1 2pz  -0.70519     1 2py   0.60377     1 2pz   0.80736     2 1s    0.44431
                                    2 2pz   0.70519     2 2py  -0.60377     2 2pz  -0.80736     3 1s   -0.30212     6 1s   -0.30212
   19.1     0.00000     0.88256     1 1s    0.83325     1 2py  -0.62182     1 2px  -0.33388     1 2py   1.94816     1 2pz  -0.54788
                                    2 1s    0.83325     2 2py   0.62182     2 2px   0.33388     2 2py  -1.94816     2 2pz   0.54788
                                    3 1s   -0.27279     3 1s   -1.13658     4 1s    0.36071     5 1s    0.36071     6 1s   -0.27279
                                    6 1s   -1.13658
   20.1     0.00000     0.90633     1 1s    0.30459     1 1s   -0.77675     1 2px   0.67190     1 2px  -1.02541     1 2py  -0.40559
                                    2 1s   -0.30459     2 1s    0.77675     2 2px   0.67190     2 2px  -1.02541     2 2py  -0.40559
                                    4 1s   -0.33559     5 1s    0.33559
   21.1     0.00000     1.02601     1 1s   -0.86877     1 1s    1.38128     1 2pz  -0.48363     2 1s   -0.86877     2 1s    1.38128
                                    2 2pz   0.48363     3 1s   -0.30820     3 1s   -0.51825     4 1s   -0.51098     5 1s   -0.51098
                                    6 1s   -0.30820     6 1s   -0.51825
   22.1     0.00000     1.05197     1 1s   -0.38042     1 1s    0.63487     1 2py   0.44526     1 2px  -0.51793     1 2py  -0.63074
                                    2 1s    0.38042     2 1s   -0.63487     2 2py   0.44526     2 2px  -0.51793     2 2py  -0.63074
                                    4 1s    0.69699     4 1s   -1.31259     5 1s   -0.69699     5 1s    1.31259
   23.1     0.00000     1.07668     1 1s   -0.85187     1 1s    1.70811     1 2px  -0.44942     2 1s   -0.85187     2 1s    1.70811
                                    2 2px   0.44942     3 1s   -0.62028     4 1s    0.65262     4 1s   -1.02484     5 1s    0.65262
                                    5 1s   -1.02484     6 1s   -0.62028
   24.1     0.00000     1.28278     1 1s   -1.07832     1 1s    3.24761     1 2py   0.40564     1 2px   1.41989     1 2py  -0.95263
                                    1 2pz  -0.71945     2 1s    1.07832     2 1s   -3.24761     2 2py   0.40564     2 2px   1.41989
                                    2 2py  -0.95263     2 2pz  -0.71945     3 1s   -0.37566     3 1s    0.44460     4 1s   -0.39078
                                    4 1s   -0.25644     5 1s    0.39078     5 1s    0.25644     6 1s    0.37566     6 1s   -0.44460
   25.1     0.00000     1.36193     1 1s   -1.15952     1 1s    2.74295     1 2px   0.28590     1 2py  -0.40479     1 2py   0.49820
                                    1 2pz  -0.40500     2 1s    1.15952     2 1s   -2.74295     2 2px   0.28590     2 2py  -0.40479
                                    2 2py   0.49820     2 2pz  -0.40500     3 1s    0.53492     3 1s   -1.58418     6 1s   -0.53492
                                    6 1s    1.58418
   26.1     0.00000     1.39950     1 1s   -0.75775     1 1s    1.24610     1 2py  -0.47287     1 2px  -0.29356     1 2py   0.49183
                                    2 1s   -0.75775     2 1s    1.24610     2 2py   0.47287     2 2px   0.29356     2 2py  -0.49183
                                    3 1s    0.74413     3 1s   -1.26880     6 1s    0.74413     6 1s   -1.26880
   27.1     0.00000     1.70706     1 3d0  -0.27401     1 3d1+  0.34656     1 3d2+  0.36497     1 3d1- -0.28175     2 3d0   0.27401
                                    2 3d1+ -0.34656     2 3d2+ -0.36497     2 3d1-  0.28175
   28.1     0.00000     1.90039     1 1s    0.31433     1 3d2- -0.30861     1 3d1+  0.37911     1 3d1-  0.46130     2 1s   -0.31433
                                    2 3d2-  0.30861     2 3d1+ -0.37911     2 3d1- -0.46130     3 1s   -0.26178     6 1s    0.26178
   29.1     0.00000     2.04465     1 1s    0.42500     1 1s   -0.61453     1 3d0   0.48075     1 3d1+  0.47028     2 1s    0.42500
                                    2 1s   -0.61453     2 3d0   0.48075     2 3d1+  0.47028
   30.1     0.00000     2.08942     1 2px   0.32617     1 2py  -0.38123     1 3d2- -0.36153     1 3d2+  0.48257     1 3d1-  0.32250
                                    2 2px  -0.32617     2 2py   0.38123     2 3d2- -0.36153     2 3d2+  0.48257     2 3d1-  0.32250
                                    3 1s    0.29285     6 1s    0.29285
   31.1     0.00000     2.24431     1 1s   -0.26667     1 2py  -0.71585     1 3d0  -0.27123     1 3d1+  0.31743     1 3d1-  0.54769
                                    2 1s   -0.26667     2 2py   0.71585     2 3d0  -0.27123     2 3d1+  0.31743     2 3d1-  0.54769
                                    3 1s    0.37160     4 1s   -0.40232     5 1s   -0.40232     6 1s    0.37160
   32.1     0.00000     2.30188     1 1s    0.35086     1 1s   -1.26029     1 2px  -0.38036     1 2py   0.30984     1 2pz   0.29271
                                    1 3d0   0.56945     1 3d2+  0.26220     1 3d1- -0.25272     2 1s   -0.35086     2 1s    1.26029
                                    2 2px  -0.38036     2 2py   0.30984     2 2pz   0.29271     2 3d0  -0.56945     2 3d2+ -0.26220
                                    2 3d1-  0.25272     4 1s    0.45949     5 1s   -0.45949
   33.1     0.00000     2.44346     1 3d0  -0.36383     1 3d1+  0.36152     1 3d2+  0.45064     1 3d1- -0.33807     2 3d0  -0.36383
                                    2 3d1+  0.36152     2 3d2+  0.45064     2 3d1- -0.33807
   34.1     0.00000     2.63471     1 1s   -0.34299     1 2py  -0.26507     1 3d0   0.29382     1 3d2-  0.59122     1 3d2+  0.28643
                                    1 3d1-  0.39837     2 1s    0.34299     2 2py  -0.26507     2 3d0  -0.29382     2 3d2- -0.59122
                                    2 3d2+ -0.28643     2 3d1- -0.39837     3 1s    0.87829     6 1s   -0.87829
   35.1     0.00000     2.85657     1 1s   -0.33060     1 2py  -0.34309     1 3d0   0.36702     1 3d2-  0.68253     1 3d1+ -0.26811
                                    1 3d2+  0.30874     2 1s   -0.33060     2 2py   0.34309     2 3d0   0.36702     2 3d2-  0.68253
                                    2 3d1+ -0.26811     2 3d2+  0.30874     3 1s    0.84678     6 1s    0.84678
   36.1     0.00000     2.86339     1 1s    1.64721     1 2px   0.27827     1 2px   0.90520     1 2py  -0.29252     1 2pz  -0.40588
                                    1 3d2- -0.29992     1 3d1+ -0.59997     1 3d2+  0.62829     2 1s   -1.64721     2 2px   0.27827
                                    2 2px   0.90520     2 2py  -0.29252     2 2pz  -0.40588     2 3d2-  0.29992     2 3d1+  0.59997
                                    2 3d2+ -0.62829


 HOMO      8.1    -0.348860 =      -9.4930eV
 LUMO      9.1     0.080598 =       2.1932eV
 LUMO-HOMO         0.429458 =      11.6862eV


 **********************************************************************************************************************************
 DATASETS  * FILE   NREC   LENGTH (MB)   RECORD NAMES
              1      19       31.11       500      610      700      900      950      970     1000      129      960     1100   
                                          VAR    BASINP    GEOM    SYMINP    ZMAT    AOBASIS   BASIS     P2S    ABASIS      S 
                                         1400     1410     1200     1210     1080     1600     1650     1300     1700   
                                           T        V       H0       H01     AOSYM     SMH    MOLCAS    ERIS     OPER   

              2       4        2.86       700     1000      520     2100   
                                         GEOM     BASIS   MCVARS     RHF  

 PROGRAMS   *        TOTAL    HF-SCF       INT
 CPU TIMES  *         0.37      0.10      0.17
 REAL TIME  *         0.54 SEC
 DISK USED  *        35.97 MB
 **********************************************************************************************************************************


 PROGRAM * MULTI (Direct Multiconfiguration SCF)       Authors: P.J. Knowles, H.-J. Werner (1984)


 Number of closed-shell orbitals:   7 (   7 )
 Number of active  orbitals:        2 (   2 )
 Number of external orbitals:      27 (  27 )

 State symmetry 1

 Number of electrons:     2    Spin symmetry=Singlet   Space symmetry=1
 Number of states:        3
 Number of CSFs:          3   (4 determinants, 4 intermediate states)

 Molecular orbitals read from record     2100.2  Type=RHF/CANONICAL (state 1.1)

 Wavefunction dump at record             2140.2

 Convergence thresholds  0.10E-01 (gradient)  0.10E-05 (energy)  0.10E-02 (step length)

 Weight factors for state symmetry  1:    0.33333   0.33333   0.33333

 Number of orbital rotations:      257   (    14 Core/Active    189 Core/Virtual   0 Active/Active     54 Active/Virtual)
 Total number of variables:        269

 Micro-Iterations solved by the two-step solver

 ITER. MIC  NCI  NEG     ENERGY(VAR)     ENERGY(PROJ)   ENERGY CHANGE     GRAD(0)  GRAD(ORB)   GRAD(CI)     STEP       TIME

   1    7    6    1     -77.61859327     -77.62429880   -0.00570552    0.09969615 0.00034532 0.00000000  0.71D-01      0.80
 ? Warning
 ? No accurate parameter found! (Right and left value are equal)
 ? The problem occurs in mu_tools.F90::mu_bisec()
   2   11    6    0     -77.62520901     -77.63891494   -0.01370594    0.11167090 0.00002087 0.00000000  0.20D+00      0.94
   3   12    5    0     -77.63967845     -77.64054992   -0.00087147    0.02628618 0.00021096 0.00000000  0.76D-01      1.08
   4   17    7    0     -77.64064720     -77.64079054   -0.00014334    0.00619288 0.00000159 0.00000000  0.57D-01      1.24
   5   17    6    0     -77.64080272     -77.64083288   -0.00003015    0.00278980 0.00000067 0.00000000  0.37D-01      1.41
   6   19    7    0     -77.64083579     -77.64084408   -0.00000829    0.00121423 0.00000122 0.00000000  0.27D-01      1.59
   7   17    6    0     -77.64084482     -77.64084708   -0.00000225    0.00062511 0.00000044 0.00000000  0.18D-01      1.76
   8   19    6    0     -77.64084725     -77.64084762   -0.00000037    0.00027287 0.00000118 0.00000000  0.84D-02      1.95
   9   10    6    0     -77.64084763     -77.64084764   -0.00000001    0.00005197 0.00000002 0.00000000  0.71D-03      2.04
  10    9    5    0     -77.64084764     -77.64084764   -0.00000000    0.00000021 0.00000000 0.00000000  0.30D-05      2.13

 ** WVFN ****  CONVERGENCE REACHED, FINAL GRADIENT:  0.34D-11



 Results for state 1.1
 =====================

 !MCSCF STATE  1.1 Energy             -77.827003430647
 Nuclear energy                        31.07847869
 Kinetic energy                        77.76298837
 One electron energy                 -165.15207938
 Two electron energy                   56.24659726
 Virial ratio                           2.00082321

 !MCSCF STATE  1.1 Dipole moment       -0.00000000     0.00000000    -0.00000000
 Dipole moment /Debye                  -0.00000000     0.00000000    -0.00000000

 Results for state 2.1
 =====================

 !MCSCF STATE  2.1 Energy             -77.667079916600
 Nuclear energy                        31.07847869
 Kinetic energy                        77.93691487
 One electron energy                 -164.95290603
 Two electron energy                   56.20734742
 Virial ratio                           1.99653778

 !MCSCF STATE  2.1 Dipole moment        0.00000000    -0.00000000    -0.00000000
 Dipole moment /Debye                   0.00000000    -0.00000000    -0.00000000

 Results for state 3.1
 =====================

 !MCSCF STATE  3.1 Energy             -77.428459574378
 Nuclear energy                        31.07847869
 Kinetic energy                        78.11180423
 One electron energy                 -164.79643026
 Two electron energy                   56.28949200
 Virial ratio                           1.99125171

 !MCSCF STATE  3.1 Dipole moment       -0.00000000    -0.00000000     0.00000000
 Dipole moment /Debye                  -0.00000000    -0.00000000     0.00000000

 State-averaged charge density matrix saved on record  2140.2 (density set 1)


 NATURAL ORBITALS (state averaged)
 =================================

  Orbital  Occupation    Energy     Coefficients
    1.1     2.00000   -11.25516     1 1s    0.70443     2 1s    0.70443
    2.1     2.00000   -11.25476     1 1s    0.70447     2 1s   -0.70447
    3.1     2.00000    -0.99028     1 1s    0.28381     2 1s    0.28381
    4.1     2.00000    -0.83327     1 1s    0.25259     2 1s   -0.25259
    5.1     2.00000    -0.59612     1 2py   0.27801     2 2py   0.27801
    6.1     2.00000    -0.59314     1 2py  -0.29918     2 2py   0.29918
    7.1     2.00000    -0.37732     1 2pz   0.34300     1 2pz   0.30930     2 2pz   0.34300     2 2pz   0.30930
    8.1     1.00000    -0.26971     1 2px  -0.34011     2 2px   0.34011
    9.1     1.00000    -0.07115     1 2pz   0.42460     1 2pz   0.44970     2 2pz  -0.42460     2 2pz  -0.44970
   10.1    -0.00000     0.21510     1 1s   -1.04017     1 2px   0.50761     1 2py   0.32705     1 2pz   0.26166     2 1s   -1.04017
                                    2 2px  -0.50761     2 2py  -0.32705     2 2pz  -0.26166     3 1s    0.56573     4 1s    0.97538
                                    5 1s    0.97538     6 1s    0.56573
   11.1    -0.00000     0.26136     1 1s   -0.93040     1 2py   0.60381     2 1s    0.93040     2 2py   0.60381     4 1s    1.28105
                                    5 1s   -1.28105
   12.1    -0.00000     0.32103     1 1s    1.90375     1 2px   0.30260     1 2py   0.46387     1 2pz  -0.38730     2 1s   -1.90375
                                    2 2px   0.30260     2 2py   0.46387     2 2pz  -0.38730     3 1s   -1.62267     6 1s    1.62267
   13.1    -0.00000     0.34709     1 1s   -1.34248     1 2px   0.33173     1 2py  -1.32013     2 1s   -1.34248     2 2px  -0.33173
                                    2 2py   1.32013     3 1s    2.20370     4 1s   -0.49462     5 1s   -0.49462     6 1s    2.20370
   14.1    -0.00000     0.40776     1 1s    0.62489     1 2px   0.25163     1 2px   1.55957     1 2py  -0.76469     1 2pz  -0.47091
                                    2 1s   -0.62489     2 2px   0.25163     2 2px   1.55957     2 2py  -0.76469     2 2pz  -0.47091
                                    3 1s    1.36898     6 1s   -1.36898
   15.1    -0.00000     0.70225     1 1s    0.33717     1 2px   0.27874     1 2py  -0.33626     1 2px  -0.80387     1 2py   0.93972
                                    2 1s   -0.33717     2 2px   0.27874     2 2py  -0.33626     2 2px  -0.80387     2 2py   0.93972
                                    3 1s   -0.45415     3 1s   -0.62374     6 1s    0.45415     6 1s    0.62374
   16.1    -0.00000     0.74201     1 1s   -0.52616     1 2px  -0.57374     1 2px   0.92889     1 2py  -0.30287     2 1s   -0.52616
                                    2 2px   0.57374     2 2px  -0.92889     2 2py   0.30287     3 1s    0.46406     4 1s    0.25673
                                    4 1s   -0.32468     5 1s    0.25673     5 1s   -0.32468     6 1s    0.46406
   17.1    -0.00000     0.80177     1 2pz   0.76464     1 2pz  -0.73127     2 2pz   0.76464     2 2pz  -0.73127
   18.1    -0.00000     0.84737     1 2pz  -0.69664     1 2px   0.30675     1 2py   0.36810     1 2pz   0.92761     2 2pz   0.69664
                                    2 2px  -0.30675     2 2py  -0.36810     2 2pz  -0.92761
   19.1    -0.00000     0.88886     1 1s    0.84320     1 2py  -0.64670     1 2px  -0.29273     1 2py   1.99379     1 2pz  -0.46094
                                    2 1s    0.84320     2 2py   0.64670     2 2px   0.29273     2 2py  -1.99379     2 2pz   0.46094
                                    3 1s   -0.27214     3 1s   -1.15012     4 1s    0.38943     5 1s    0.38943     6 1s   -0.27214
                                    6 1s   -1.15012
   20.1    -0.00000     0.90919     1 1s    0.33727     1 1s   -0.78158     1 2px   0.63596     1 2px  -0.87053     1 2py  -0.33563
                                    2 1s   -0.33727     2 1s    0.78158     2 2px   0.63596     2 2px  -0.87053     2 2py  -0.33563
                                    4 1s   -0.44353     5 1s    0.44353
   21.1    -0.00000     1.01031     1 1s   -0.63126     1 1s    0.89308     1 2px  -0.29056     1 2pz  -0.39833     2 1s   -0.63126
                                    2 1s    0.89308     2 2px   0.29056     2 2pz   0.39833     3 1s   -0.25134     3 1s   -0.33274
                                    4 1s   -0.65778     4 1s    0.26330     5 1s   -0.65778     5 1s    0.26330     6 1s   -0.25134
                                    6 1s   -0.33274
   22.1    -0.00000     1.02597     1 1s   -0.31046     1 1s    0.44419     1 2px   0.33732     1 2py   0.47133     1 2px  -0.69219
                                    1 2py  -0.65325     2 1s    0.31046     2 1s   -0.44419     2 2px   0.33732     2 2py   0.47133
                                    2 2px  -0.69219     2 2py  -0.65325     4 1s    0.65197     4 1s   -1.31930     5 1s   -0.65197
                                    5 1s    1.31930
   23.1    -0.00000     1.06028     1 1s   -1.04628     1 1s    2.03293     1 2px  -0.49517     1 2py   0.30166     1 2pz  -0.32137
                                    2 1s   -1.04628     2 1s    2.03293     2 2px   0.49517     2 2py  -0.30166     2 2pz   0.32137
                                    3 1s   -0.75732     4 1s    0.49557     4 1s   -0.96488     5 1s    0.49557     5 1s   -0.96488
                                    6 1s   -0.75732
   24.1    -0.00000     1.27856     1 1s   -1.10961     1 1s    3.31247     1 2py   0.39945     1 2px   1.42703     1 2py  -0.95099
                                    1 2pz  -0.72138     2 1s    1.10961     2 1s   -3.31247     2 2py   0.39945     2 2px   1.42703
                                    2 2py  -0.95099     2 2pz  -0.72138     3 1s   -0.36845     3 1s    0.42306     4 1s   -0.37032
                                    4 1s   -0.28119     5 1s    0.37032     5 1s    0.28119     6 1s    0.36845     6 1s   -0.42306
   25.1    -0.00000     1.36969     1 1s   -1.14413     1 1s    2.69173     1 2px   0.29436     1 2py  -0.40667     1 2py   0.51487
                                    1 2pz  -0.38269     2 1s    1.14413     2 1s   -2.69173     2 2px   0.29436     2 2py  -0.40667
                                    2 2py   0.51487     2 2pz  -0.38269     3 1s    0.53256     3 1s   -1.58825     6 1s   -0.53256
                                    6 1s    1.58825
   26.1    -0.00000     1.40895     1 1s   -0.76840     1 1s    1.25803     1 2py  -0.47138     1 2px  -0.29382     1 2py   0.48924
                                    2 1s   -0.76840     2 1s    1.25803     2 2py   0.47138     2 2px   0.29382     2 2py  -0.48924
                                    3 1s    0.74210     3 1s   -1.26653     6 1s    0.74210     6 1s   -1.26653
   27.1    -0.00000     1.70554     1 3d0  -0.27519     1 3d1+  0.34545     1 3d2+  0.36480     1 3d1- -0.28086     2 3d0   0.27519
                                    2 3d1+ -0.34545     2 3d2+ -0.36480     2 3d1-  0.28086
   28.1    -0.00000     1.90255     1 1s    0.29054     1 3d2- -0.30900     1 3d1+  0.38078     1 3d1-  0.45769     2 1s   -0.29054
                                    2 3d2-  0.30900     2 3d1+ -0.38078     2 3d1- -0.45769     3 1s   -0.26761     6 1s    0.26761
   29.1    -0.00000     2.05087     1 1s    0.41384     1 1s   -0.61772     1 3d0   0.48159     1 3d1+  0.46876     2 1s    0.41384
                                    2 1s   -0.61772     2 3d0   0.48159     2 3d1+  0.46876
   30.1    -0.00000     2.08321     1 2px   0.32687     1 2py  -0.35387     1 3d2- -0.36534     1 3d2+  0.48866     1 3d1-  0.29777
                                    2 2px  -0.32687     2 2py   0.35387     2 3d2- -0.36534     2 3d2+  0.48866     2 3d1-  0.29777
                                    3 1s    0.27252     6 1s    0.27252
   31.1    -0.00000     2.24226     1 1s   -0.27564     1 2py  -0.73839     1 3d0  -0.26603     1 3d1+  0.31049     1 3d1-  0.56468
                                    2 1s   -0.27564     2 2py   0.73839     2 3d0  -0.26603     2 3d1+  0.31049     2 3d1-  0.56468
                                    3 1s    0.25241     3 1s    0.38728     4 1s   -0.38637     5 1s   -0.38637     6 1s    0.25241
                                    6 1s    0.38728
   32.1    -0.00000     2.30157     1 1s    0.35365     1 1s   -1.23600     1 2px  -0.36706     1 2py   0.30994     1 2pz   0.28455
                                    1 3d0   0.56173     1 3d2+  0.26553     1 3d1- -0.26170     2 1s   -0.35365     2 1s    1.23600
                                    2 2px  -0.36706     2 2py   0.30994     2 2pz   0.28455     2 3d0  -0.56173     2 3d2+ -0.26553
                                    2 3d1-  0.26170     4 1s    0.45111     5 1s   -0.45111
   33.1    -0.00000     2.44299     1 3d0  -0.36010     1 3d1+  0.36254     1 3d2+  0.45049     1 3d1- -0.33423     2 3d0  -0.36010
                                    2 3d1+  0.36254     2 3d2+  0.45049     2 3d1- -0.33423
   34.1    -0.00000     2.63576     1 1s   -0.34804     1 2py  -0.25235     1 2py  -0.25943     1 3d0   0.30224     1 3d2-  0.58307
                                    1 3d2+  0.29339     1 3d1-  0.39703     2 1s    0.34804     2 2py  -0.25235     2 2py  -0.25943
                                    2 3d0  -0.30224     2 3d2- -0.58307     2 3d2+ -0.29339     2 3d1- -0.39703     3 1s    0.88430
                                    6 1s   -0.88430
   35.1    -0.00000     2.85896     1 1s   -0.32933     1 2py  -0.34334     1 3d0   0.37522     1 3d2-  0.67710     1 3d1+ -0.27197
                                    1 3d2+  0.30425     2 1s   -0.32933     2 2py   0.34334     2 3d0   0.37522     2 3d2-  0.67710
                                    2 3d1+ -0.27197     2 3d2+  0.30425     3 1s    0.84975     6 1s    0.84975
   36.1    -0.00000     2.85968     1 1s    1.68085     1 2px   0.27073     1 2px   0.91588     1 2py  -0.29639     1 2pz  -0.41258
                                    1 3d0  -0.25353     1 3d2- -0.30133     1 3d1+ -0.60194     1 3d2+  0.62285     2 1s   -1.68085
                                    2 2px   0.27073     2 2px   0.91588     2 2py  -0.29639     2 2pz  -0.41258     2 3d0   0.25353
                                    2 3d2-  0.30133     2 3d1+  0.60194     2 3d2+ -0.62285


 Natural orbital dump (state averaged) at molpro section  2140.2    (Orbital set 2)



 **********************************************************************************************************************************
 DATASETS  * FILE   NREC   LENGTH (MB)   RECORD NAMES
              1      20       31.84       500      610      700      900      950      970     1000      129      960     1100   
                                          VAR    BASINP    GEOM    SYMINP    ZMAT    AOBASIS   BASIS     P2S    ABASIS      S 
                                         1400     1410     1200     1210     1080     1600     1650     1300     1700     1380   
                                           T        V       H0       H01     AOSYM     SMH    MOLCAS    ERIS     OPER     JKOP   

              2       5        5.42       700     1000      520     2100     2140   
                                         GEOM     BASIS   MCVARS     RHF     MCSCF   

 PROGRAMS   *        TOTAL     MULTI    HF-SCF       INT
 CPU TIMES  *         2.53      2.16      0.10      0.17
 REAL TIME  *         2.80 SEC
 DISK USED  *        39.03 MB
 **********************************************************************************************************************************
 Molecular orbitals read from record     2140.2  Type=MCSCF/NATURAL (state averaged)
 Occupation numbers read from record     2140.2  Type=MCSCF/NATURAL (state averaged)
 Orbital energies read from record       2140.2  Type=MCSCF/NATURAL (state averaged)
 Redundancy group numbers read from rec  2140.2  Type=MCSCF/NATURAL (state averaged)

 MULTI/6-31G* energy=    -77.428459574378

           MULTI          HF-SCF
    -77.42845957    -77.83363298
 **********************************************************************************************************************************
 Molpro calculation terminated with 1 warning(s)
