
 Primary working directories    : /scratch.local/johan406.molpro_temp/molpro.52VPLaFRFM
 Secondary working directories  : /scratch.local/johan406.molpro_temp/molpro.52VPLaFRFM
 Wavefunction directory         : /home/goodpast/johan406/wfu/
 Main file repository           : /scratch.local/johan406.molpro_temp/molpro.52VPLaFRFM/

 id        : roweumn

 Nodes     nprocs
 acn06        1

 Using customized tuning parameters: mindgm=1; mindgv=20; mindgc=4; mindgr=1; noblas=0; minvec=7
 default implementation of scratch files=df  


 Variables initialized (934), CPU time= 0.01 sec
                                                                                 !leave this line blank
 
 gprint, orbitals=30
 memory, 125., m
 symmetry, nosym
 nelect=16
 basis=6-31g*
 
 geometry={
 C -0.701 0.152 0.286
 C 0.710 -0.202 -0.346
 H -1.151 0.931 0.096
 H -1.238 -0.963 -0.045
 H 1.247 0.913 -0.016
 H 1.160 -0.981 -0.157
 }
 
 hf
 {multi,
 closed 7
 occ 9
 wf,spin=0;STATE,3
 }
 
 Commands  initialized (763), CPU time= 0.00 sec, 617 directives.
 Default parameters read. Elapsed time= 0.06 sec

 Checking input...
 Passed
1


                                         ***  PROGRAM SYSTEM MOLPRO  ***
                                       Copyright, TTI GmbH Stuttgart, 2015
                                    Version 2019.2 linked Oct 25 2019 22:50:27


 **********************************************************************************************************************************
 LABEL *                                                                                 
  64 bit serial version                                                                  DATE: 15-Mar-23          TIME: 16:33:27  
 **********************************************************************************************************************************

 SHA1:             8dbd9ae1082e4ce945b0f27595c9eb2d4aa09004
 **********************************************************************************************************************************


 Variable memory set to  125000000 words,  buffer space 

 SETTING NELECT         =        16.00000000                                  
 SETTING BASIS          =    6-31G*
 ZSYMEL=NOSYM


Geometry recognized as XYZ



 Recomputing integrals since basis changed


 Using spherical harmonics

 Library entry C      S 6-31G                selected for orbital group  1
 Library entry C      P 6-31G                selected for orbital group  1
 Library entry C      D 6-31G*               selected for orbital group  1
 Library entry H      S 6-31G                selected for orbital group  2


 PROGRAM * SEWARD (Integral evaluation for generally contracted gaussian basis sets)     Author: Roland Lindh, 1990

 Geometry written to block  1 of record 700


 Point group  C1  



 ATOMIC COORDINATES

 NR  ATOM    CHARGE       X              Y              Z

   1  C       6.00   -1.324698013    0.287238371    0.540461672
   2  C       6.00    1.341705548   -0.381724677   -0.653845239
   3  H       1.00   -2.175074769    1.759335022    0.181413708
   4  H       1.00   -2.339480942   -1.819806258   -0.085037676
   5  H       1.00    2.356488477    1.725319952   -0.030235618
   6  H       1.00    2.192082304   -1.853821328   -0.296687002

 Bond lengths in Bohr (Angstrom)

 1-2  2.997263504  1-3  1.737562838  1-4  2.420882255  2-5  2.420394683  2-6  1.737173332
     ( 1.586083541)     ( 0.919478657)     ( 1.281075720)     ( 1.280817708)     ( 0.919272538)

 Bond angles

  1-2-5   94.35993302   1-2-6  122.86706985   2-1-3  122.82921770   2-1-4   94.34118045

  3-1-4  118.61016296   5-2-6  118.65229930

 NUCLEAR CHARGE:                   16
 NUMBER OF PRIMITIVE AOS:          72
 NUMBER OF SYMMETRY AOS:           70
 NUMBER OF CONTRACTIONS:           36   (   36A   )
 NUMBER OF CORE ORBITALS:           2   (    2A   )
 NUMBER OF VALENCE ORBITALS:       12   (   12A   )


 NUCLEAR REPULSION ENERGY   31.08012225

 Eigenvalues of metric

         1 0.138E-01 0.197E-01 0.382E-01 0.762E-01 0.942E-01 0.189E+00 0.225E+00 0.258E+00


 Contracted 2-electron integrals neglected if value below      1.0D-11
 AO integral compression algorithm  1   Integral accuracy      1.0D-11

     1.311 MB (compressed) written to integral file ( 68.8%)


 NUMBER OF SORTED TWO-ELECTRON INTEGRALS:     222111.     BUFFER LENGTH:  32768
 NUMBER OF SEGMENTS:   1  SEGMENT LENGTH:     222111      RECORD LENGTH: 524288

 Memory used in sort:       0.78 MW

 SORT1 READ      284735. AND WROTE      212526. INTEGRALS IN      1 RECORDS. CPU TIME:     0.01 SEC, REAL TIME:     0.01 SEC
 SORT2 READ      212526. AND WROTE      222111. INTEGRALS IN      5 RECORDS. CPU TIME:     0.02 SEC, REAL TIME:     0.02 SEC

 FILE SIZES:   FILE 1:    31.4 MBYTE,  FILE 4:     4.2 MBYTE,   TOTAL:     35.6 MBYTE

 OPERATOR DM      FOR CENTER  0  COORDINATES:    0.000000    0.000000    0.000000


 **********************************************************************************************************************************
 DATASETS  * FILE   NREC   LENGTH (MB)   RECORD NAMES
              1      19       31.11       500      610      700      900      950      970     1000      129      960     1100   
                                          VAR    BASINP    GEOM    SYMINP    ZMAT    AOBASIS   BASIS     P2S    ABASIS      S 
                                         1400     1410     1200     1210     1080     1600     1650     1300     1700   
                                           T        V       H0       H01     AOSYM     SMH    MOLCAS    ERIS     OPER   

 PROGRAMS   *        TOTAL       INT
 CPU TIMES  *         0.26      0.17
 REAL TIME  *         0.38 SEC
 DISK USED  *        35.97 MB
 **********************************************************************************************************************************


 PROGRAM * RHF-SCF (CLOSED SHELL)       Authors: W. Meyer, H.-J. Werner


 NUMBER OF ELECTRONS:       8+    8-    SPACE SYMMETRY=1    SPIN SYMMETRY: Singlet 
 CONVERGENCE THRESHOLDS:    1.00E-05 (Density)    1.00E-07 (Energy)
 MAX. NUMBER OF ITERATIONS:       60
 INTERPOLATION TYPE:            DIIS
 INTERPOLATION STEPS:              2 (START)      1 (STEP)
 LEVEL SHIFTS:                  0.00 (CLOSED)  0.00 (OPEN) 



 Orbital guess generated from atomic densities. Full valence occupancy:    8

 Molecular orbital dump at record        2100.2

 Initial occupancy:   8

 ITERATION    DDIFF          GRAD             ENERGY        2-EL.EN.            DIPOLE MOMENTS         DIIS   ORB.
    1      0.000D+00      0.000D+00       -77.80303008    113.107401    0.00046    0.00002   -0.00086    0    start
    2      0.000D+00      0.720D-02       -77.82438270    112.174454    0.00069    0.00008   -0.00079    1    diag
    3      0.783D-02      0.243D-02       -77.82715814    112.530975    0.00084    0.00007   -0.00091    2    diag
    4      0.311D-02      0.868D-03       -77.82773490    112.401508    0.00087    0.00012   -0.00087    3    diag
    5      0.161D-02      0.357D-03       -77.82792930    112.407872    0.00099    0.00008   -0.00097    4    diag
    6      0.113D-02      0.131D-03       -77.82796371    112.408062    0.00085    0.00018   -0.00081    5    diag
    7      0.497D-03      0.341D-04       -77.82796578    112.408678    0.00113    0.00001   -0.00111    6    diag
    8      0.112D-03      0.103D-04       -77.82796592    112.408866    0.00075    0.00025   -0.00071    7    diag
    9      0.266D-04      0.562D-05       -77.82796593    112.408883    0.00100    0.00009   -0.00097    8    diag
   10      0.731D-05      0.164D-05       -77.82796594    112.408869    0.00092    0.00014   -0.00089    0    orth

 Final occupancy:   8

 !RHF STATE  1.1 Energy               -77.827965935681
 Nuclear energy                        31.08012225
 One-electron energy                 -165.11252291
 Two-electron energy                   56.20443472
 Virial quotient                       -1.00115274
 !RHF STATE  1.1 Dipole moment          0.00092471     0.00013593    -0.00089339
 Dipole moment /Debye                   0.00235022     0.00034547    -0.00227061

 ELECTRON ORBITALS
 =================

  Orbital  Occupation    Energy     Coefficients
    1.1     2.00000   -11.27211     1 1s    0.67689     2 1s    0.73097
    2.1     2.00000   -11.27156     1 1s    0.73105     2 1s   -0.67698
    3.1     2.00000    -0.99381     1 1s    0.28914     2 1s    0.28936
    4.1     2.00000    -0.84675     1 1s   -0.24811
    5.1     2.00000    -0.60277     1 2px  -0.25988     1 2py   0.26937     2 2px   0.25878     2 2py  -0.27342
    6.1     2.00000    -0.59406     1 2py   0.28452     2 2py   0.28079
    7.1     2.00000    -0.42158     1 2px   0.29746     2 2px  -0.29736     4 1s   -0.25560     5 1s   -0.25534
    8.1     2.00000    -0.34920     1 2pz   0.32183     1 2pz   0.31190     2 2pz   0.32164     2 2pz   0.31178
    9.1     0.00000     0.08006     1 1s   -0.33299     1 2pz  -0.35074     1 2pz  -0.50182     2 1s   -0.33272     2 2pz   0.35093
                                    2 2pz   0.50216
   10.1     0.00000     0.22274     1 1s   -1.02773     1 2px   0.50212     1 2py   0.30200     1 2pz   0.31830     2 1s   -1.02775
                                    2 2px  -0.50243     2 2py  -0.30173     2 2pz  -0.31756     3 1s    0.60400     4 1s    0.95266
                                    5 1s    0.95266     6 1s    0.60428
   11.1     0.00000     0.27277     1 1s    0.62786     1 2px  -0.29466     1 2py  -0.58979     2 1s   -0.62854     2 2px  -0.29488
                                    2 2py  -0.59020     4 1s   -1.24774     5 1s    1.24845
   12.1     0.00000     0.31708     1 1s    2.01357     1 2px   0.27888     1 2py   0.36719     1 2pz  -0.43045     2 1s   -2.01378
                                    2 2px   0.27892     2 2py   0.36744     2 2pz  -0.42948     3 1s   -1.61038     6 1s    1.61042
   13.1     0.00000     0.34201     1 1s   -1.32743     1 2px   0.32895     1 2py  -1.31943     2 1s   -1.32704     2 2px  -0.32982
                                    2 2py   1.32039     3 1s    2.20028     4 1s   -0.51064     5 1s   -0.51149     6 1s    2.20183
   14.1     0.00000     0.40215     1 1s   -0.67144     1 2px  -1.53014     1 2py   0.82733     1 2pz   0.49991     2 1s    0.67073
                                    2 2px  -1.53018     2 2py   0.82768     2 2pz   0.50069     3 1s   -1.39524     6 1s    1.39607
   15.1     0.00000     0.69675     1 1s    0.37640     1 2px   0.28162     1 2py  -0.33149     1 2px  -0.82921     1 2py   0.94151
                                    2 1s   -0.37876     2 2px   0.28183     2 2py  -0.33126     2 2px  -0.83008     2 2py   0.94305
                                    3 1s   -0.45239     3 1s   -0.65894     6 1s    0.45266     6 1s    0.66103
   16.1     0.00000     0.74209     1 1s    0.58165     1 2px   0.58928     1 2px  -0.95638     1 2py   0.30073     2 1s    0.58144
                                    2 2px  -0.58950     2 2px   0.95693     2 2py  -0.30015     3 1s   -0.49300     4 1s    0.26447
                                    5 1s    0.26440     6 1s   -0.49335
   17.1     0.00000     0.80161     1 2pz   0.77182     1 2pz  -0.68622     2 2pz   0.77253     2 2pz  -0.68696
   18.1     0.00000     0.84752     1 1s    0.44974     1 2pz  -0.70460     1 2py   0.60454     1 2pz   0.80539     2 1s    0.45043
                                    2 2pz   0.70393     2 2py  -0.60444     2 2pz  -0.80482     3 1s   -0.30641     6 1s   -0.30693
   19.1     0.00000     0.88239     1 1s    0.85436     1 2py  -0.62215     1 2px  -0.34112     1 2py   1.94903     1 2pz  -0.55273
                                    2 1s    0.84972     2 2py   0.62024     2 2px   0.34907     2 2py  -1.94727     2 2pz   0.55076
                                    3 1s   -0.27272     3 1s   -1.15267     4 1s    0.36021     5 1s    0.35982     6 1s   -0.27259
                                    6 1s   -1.15388
   20.1     0.00000     0.90673     1 1s    0.31115     1 1s   -0.79164     1 2px   0.67124     1 2px  -1.02859     1 2py  -0.39635
                                    2 1s   -0.30915     2 1s    0.79572     2 2px   0.67044     2 2py   0.25002     2 2px  -1.02573
                                    2 2py  -0.41154     4 1s   -0.33445     5 1s    0.33502
   21.1     0.00000     1.02795     1 1s   -0.87082     1 1s    1.39438     1 2pz  -0.48694     2 1s   -0.87208     2 1s    1.39855
                                    2 2pz   0.48726     3 1s   -0.30633     3 1s   -0.53599     4 1s   -0.51111     5 1s   -0.51373
                                    6 1s   -0.30620     6 1s   -0.53519
   22.1     0.00000     1.04923     1 1s   -0.38354     1 1s    0.64759     1 2py   0.44383     1 2px  -0.51121     1 2py  -0.63003
                                    2 1s    0.38451     2 1s   -0.64830     2 2py   0.44385     2 2px  -0.51078     2 2py  -0.63054
                                    4 1s    0.69837     4 1s   -1.31227     5 1s   -0.69434     5 1s    1.30913
   23.1     0.00000     1.07431     1 1s   -0.84616     1 1s    1.71310     1 2px  -0.45280     1 2py   0.25798     2 1s   -0.84846
                                    2 1s    1.71788     2 2px   0.45347     2 2py  -0.25614     3 1s   -0.63221     4 1s    0.65332
                                    4 1s   -1.02080     5 1s    0.65535     5 1s   -1.02457     6 1s   -0.63276
   24.1     0.00000     1.28382     1 1s   -1.10120     1 1s    3.29246     1 2py   0.39775     1 2px   1.41650     1 2py  -0.93984
                                    1 2pz  -0.72818     2 1s    1.09848     2 1s   -3.28637     2 2py   0.39806     2 2px   1.41789
                                    2 2py  -0.94319     2 2pz  -0.72656     3 1s   -0.36185     3 1s    0.40892     4 1s   -0.39723
                                    4 1s   -0.25017     5 1s    0.39674     5 1s    0.25015     6 1s    0.36111     6 1s   -0.41327
   25.1     0.00000     1.36673     1 1s   -1.13788     1 1s    2.67465     1 2px   0.29358     1 2py  -0.41376     1 2py   0.52066
                                    1 2pz  -0.38883     2 1s    1.13249     2 1s   -2.66597     2 2px   0.29217     2 2py  -0.41103
                                    2 2py   0.51766     2 2pz  -0.38645     3 1s    0.54555     3 1s   -1.60389     6 1s   -0.54114
                                    6 1s    1.59562
   26.1     0.00000     1.40547     1 1s   -0.75833     1 1s    1.24771     1 2py  -0.47159     1 2px  -0.29830     1 2py   0.49364
                                    2 1s   -0.76583     2 1s    1.26581     2 2py   0.47419     2 2px   0.29814     2 2py  -0.49661
                                    3 1s    0.74338     3 1s   -1.27110     6 1s    0.74660     6 1s   -1.28088
   27.1     0.00000     1.70618     1 3d0  -0.27404     1 3d1+  0.34478     1 3d2+  0.36595     1 3d1- -0.28163     2 3d0   0.27429
                                    2 3d1+ -0.34467     2 3d2+ -0.36569     2 3d1-  0.28240
   28.1     0.00000     1.90247     1 1s   -0.31179     1 3d2-  0.30595     1 3d1+ -0.38053     1 3d1- -0.46137     2 1s    0.31096
                                    2 3d2- -0.30542     2 3d1+  0.38092     2 3d1-  0.46212     3 1s    0.26299     6 1s   -0.26309
   29.1     0.00000     2.04279     1 1s    0.41872     1 1s   -0.61768     1 3d0   0.48243     1 3d1+  0.46878     2 1s    0.41810
                                    2 1s   -0.61575     2 3d0   0.48142     2 3d1+  0.46859
   30.1     0.00000     2.08440     1 2px   0.32744     1 2py  -0.37582     1 3d2- -0.35863     1 3d2+  0.48291     1 3d1-  0.31981
                                    2 2px  -0.32866     2 2py   0.37675     2 3d2- -0.35788     2 3d2+  0.48317     2 3d1-  0.32039
                                    3 1s    0.29067     6 1s    0.29124
   31.1     0.00000     2.24060     1 1s   -0.27577     1 2py  -0.71183     1 3d0  -0.27031     1 3d1+  0.32068     1 3d1-  0.54766
                                    2 1s   -0.27595     2 2py   0.71268     2 3d0  -0.26954     2 3d1+  0.32053     2 3d1-  0.54714
                                    3 1s    0.37564     4 1s   -0.39622     5 1s   -0.39618     6 1s    0.37632
   32.1     0.00000     2.29580     1 1s   -0.34725     1 1s    1.24215     1 2px   0.37406     1 2py  -0.30634     1 2pz  -0.28937
                                    1 3d0  -0.56793     1 3d2+ -0.26294     1 3d1-  0.25298     2 1s    0.34716     2 1s   -1.24195
                                    2 2px   0.37391     2 2py  -0.30752     2 2pz  -0.28923     2 3d0   0.56870     2 3d2+  0.26355
                                    2 3d1- -0.25330     4 1s   -0.45460     5 1s    0.45571
   33.1     0.00000     2.44238     1 3d0  -0.36289     1 3d1+  0.35854     1 3d2+  0.45151     1 3d1- -0.33953     2 3d0  -0.36353
                                    2 3d1+  0.35861     2 3d2+  0.45072     2 3d1- -0.34038
   34.1     0.00000     2.63888     1 1s   -0.32294     1 2py  -0.25417     1 2py  -0.26666     1 3d0   0.29340     1 3d2-  0.59189
                                    1 3d2+  0.28940     1 3d1-  0.39903     2 1s    0.32248     2 2py  -0.25429     2 2py  -0.26529
                                    2 3d0  -0.29302     2 3d2- -0.59193     2 3d2+ -0.29007     2 3d1- -0.39670     3 1s    0.88894
                                    6 1s   -0.88809
   35.1     0.00000     2.86165     1 1s   -1.66498     1 2px  -0.27206     1 2px  -0.90094     1 2py   0.28168     1 2pz   0.40994
                                    1 3d0   0.26129     1 3d2-  0.33002     1 3d1+  0.58997     1 3d2+ -0.61229     2 1s    1.64009
                                    2 2px  -0.27835     2 2px  -0.91499     2 2py   0.30689     2 2pz   0.40630     2 3d2- -0.28001
                                    2 3d1+ -0.60955     2 3d2+  0.63458
   36.1     0.00000     2.86585     1 1s   -0.27782     1 2py  -0.35538     1 3d0   0.35947     1 3d2-  0.67354     1 3d1+ -0.29064
                                    1 3d2+  0.32870     2 1s   -0.39745     2 2py   0.33474     2 3d0   0.37838     2 3d2-  0.69654
                                    2 3d2+  0.28401     3 1s    0.85774     6 1s    0.85676


 HOMO      8.1    -0.349195 =      -9.5021eV
 LUMO      9.1     0.080060 =       2.1785eV
 LUMO-HOMO         0.429255 =      11.6806eV


 **********************************************************************************************************************************
 DATASETS  * FILE   NREC   LENGTH (MB)   RECORD NAMES
              1      19       31.11       500      610      700      900      950      970     1000      129      960     1100   
                                          VAR    BASINP    GEOM    SYMINP    ZMAT    AOBASIS   BASIS     P2S    ABASIS      S 
                                         1400     1410     1200     1210     1080     1600     1650     1300     1700   
                                           T        V       H0       H01     AOSYM     SMH    MOLCAS    ERIS     OPER   

              2       4        2.86       700     1000      520     2100   
                                         GEOM     BASIS   MCVARS     RHF  

 PROGRAMS   *        TOTAL    HF-SCF       INT
 CPU TIMES  *         0.35      0.09      0.17
 REAL TIME  *         0.52 SEC
 DISK USED  *        35.97 MB
 **********************************************************************************************************************************


 PROGRAM * MULTI (Direct Multiconfiguration SCF)       Authors: P.J. Knowles, H.-J. Werner (1984)


 Number of closed-shell orbitals:   7 (   7 )
 Number of active  orbitals:        2 (   2 )
 Number of external orbitals:      27 (  27 )

 State symmetry 1

 Number of electrons:     2    Spin symmetry=Singlet   Space symmetry=1
 Number of states:        3
 Number of CSFs:          3   (4 determinants, 4 intermediate states)

 Molecular orbitals read from record     2100.2  Type=RHF/CANONICAL (state 1.1)

 Wavefunction dump at record             2140.2

 Convergence thresholds  0.10E-01 (gradient)  0.10E-05 (energy)  0.10E-02 (step length)

 Weight factors for state symmetry  1:    0.33333   0.33333   0.33333

 Number of orbital rotations:      257   (    14 Core/Active    189 Core/Virtual   0 Active/Active     54 Active/Virtual)
 Total number of variables:        269

 Micro-Iterations solved by the two-step solver

 ITER. MIC  NCI  NEG     ENERGY(VAR)     ENERGY(PROJ)   ENERGY CHANGE     GRAD(0)  GRAD(ORB)   GRAD(CI)     STEP       TIME

   1   13    6    1     -77.61311073     -77.62305597   -0.00994524    0.09959323 0.00007824 0.00000000  0.23D+00      0.40
   2   12    6    0     -77.62933921     -77.63505818   -0.00571897    0.07931446 0.00044839 0.00000000  0.13D+00      0.56
   3   14    6    0     -77.63562109     -77.63619176   -0.00057067    0.01563559 0.00000300 0.00000000  0.78D-01      0.74
   4   17    6    0     -77.63624848     -77.63635061   -0.00010213    0.00557239 0.00000126 0.00000000  0.50D-01      0.95
   5   20    7    0     -77.63636061     -77.63638371   -0.00002309    0.00230686 0.00000099 0.00000000  0.34D-01      1.14
   6   19    6    0     -77.63638562     -77.63638980   -0.00000418    0.00097357 0.00000205 0.00000000  0.18D-01      1.32
   7   16    6    0     -77.63638999     -77.63639019   -0.00000020    0.00025370 0.00000069 0.00000000  0.28D-02      1.45
   8   14    6    0     -77.63639019     -77.63639019   -0.00000000    0.00000432 0.00000000 0.00000000  0.39D-04      1.57

 ** WVFN ****  CONVERGENCE REACHED, FINAL GRADIENT:  0.55D-09



 Results for state 1.1
 =====================

 !MCSCF STATE  1.1 Energy             -77.821339994007
 Nuclear energy                        31.08012225
 Kinetic energy                        77.76719189
 One electron energy                 -165.12948006
 Two electron energy                   56.22801782
 Virial ratio                           2.00069628

 !MCSCF STATE  1.1 Dipole moment        0.00310073     0.00046983    -0.00084743
 Dipole moment /Debye                   0.00788075     0.00119410    -0.00215381

 Results for state 2.1
 =====================

 !MCSCF STATE  2.1 Energy             -77.662654538636
 Nuclear energy                        31.08012225
 Kinetic energy                        77.94409656
 One electron energy                 -164.94503761
 Two electron energy                   56.20226081
 Virial ratio                           1.99638918

 !MCSCF STATE  2.1 Dipole moment       -0.00254668     0.00236935     0.00058421
 Dipole moment /Debye                  -0.00647258     0.00602189     0.00148481

 Results for state 3.1
 =====================

 !MCSCF STATE  3.1 Energy             -77.425176039625
 Nuclear energy                        31.08012225
 Kinetic energy                        78.12216536
 One electron energy                 -164.80529875
 Two electron energy                   56.30000046
 Virial ratio                           1.99107821

 !MCSCF STATE  3.1 Dipole moment       -0.00047739     0.00300384    -0.00403386
 Dipole moment /Debye                  -0.00121332     0.00763450    -0.01025237

 State-averaged charge density matrix saved on record  2140.2 (density set 1)

 !MCSCF expec         <1.1|DMX|1.1>     0.003100729594 au =     0.007880752322 Debye
 !MCSCF trans         <2.1|DMX|1.1>    -0.034721817408 au =    -0.088248276688 Debye
 !MCSCF expec         <2.1|DMX|2.1>    -0.002546677406 au =    -0.006472584361 Debye
 !MCSCF trans         <3.1|DMX|1.1>     0.001400572475 au =     0.003559666992 Debye
 !MCSCF trans         <3.1|DMX|2.1>    -0.037031523450 au =    -0.094118579369 Debye
 !MCSCF expec         <3.1|DMX|3.1>    -0.000477387229 au =    -0.001213317835 Debye

 !MCSCF expec         <1.1|DMY|1.1>     0.000469827510 au =     0.001194104203 Debye
 !MCSCF trans         <2.1|DMY|1.1>     0.005674069694 au =     0.014421102053 Debye
 !MCSCF expec         <2.1|DMY|2.1>     0.002369347146 au =     0.006021885319 Debye
 !MCSCF trans         <3.1|DMY|1.1>    -0.000290526463 au =    -0.000738396247 Debye
 !MCSCF trans         <3.1|DMY|2.1>     0.006087625072 au =     0.015472186131 Debye
 !MCSCF expec         <3.1|DMY|3.1>     0.003003840554 au =     0.007634501076 Debye

 !MCSCF expec         <1.1|DMZ|1.1>    -0.000847429719 au =    -0.002153810426 Debye
 !MCSCF trans         <2.1|DMZ|1.1>     0.027276464879 au =     0.069325317606 Debye
 !MCSCF expec         <2.1|DMZ|2.1>     0.000584208847 au =     0.001484813520 Debye
 !MCSCF trans         <3.1|DMZ|1.1>    -0.000910568829 au =    -0.002314283524 Debye
 !MCSCF trans         <3.1|DMZ|2.1>     0.028979792126 au =     0.073654460072 Debye
 !MCSCF expec         <3.1|DMZ|3.1>    -0.004033858220 au =    -0.010252373374 Debye


 NATURAL ORBITALS (state averaged)
 =================================

  Orbital  Occupation    Energy     Coefficients
    1.1     2.00000   -11.25535     1 1s    0.42003     2 1s    0.90334
    2.1     2.00000   -11.25484     1 1s    0.90337     2 1s   -0.42008
    3.1     2.00000    -0.99035     1 1s    0.28395     2 1s    0.28372
    4.1     2.00000    -0.83519     1 1s   -0.25103     2 1s    0.25072
    5.1     2.00000    -0.59465     2 2py  -0.34963
    6.1     2.00000    -0.59403     1 2py   0.33327
    7.1     2.00000    -0.37729     1 2pz   0.34166     1 2pz   0.30885     2 2pz   0.34386     2 2pz   0.30910
    8.1     1.00000    -0.26869     1 2px  -0.33588     2 2px   0.34065     4 1s    0.25116     5 1s    0.25292
    9.1     1.00000    -0.07141     1 2pz  -0.42365     1 2pz  -0.44916     2 2pz   0.42543     2 2pz   0.45006
   10.1    -0.00000     0.21417     1 1s   -1.03163     1 2px   0.50581     1 2py   0.33130     1 2pz   0.26095     2 1s   -1.02890
                                    2 2px  -0.50596     2 2py  -0.33151     2 2pz  -0.26014     3 1s    0.56014     4 1s    0.97008
                                    5 1s    0.96932     6 1s    0.55802
   11.1    -0.00000     0.25986     1 1s    0.91278     1 2py  -0.60000     2 1s   -0.91189     2 2py  -0.60210     4 1s   -1.26955
                                    5 1s    1.27156
   12.1    -0.00000     0.32128     1 1s    1.91777     1 2px   0.30423     1 2py   0.45744     1 2pz  -0.39187     2 1s   -1.91801
                                    2 2px   0.30389     2 2py   0.45523     2 2pz  -0.38865     3 1s   -1.62418     6 1s    1.62181
   13.1    -0.00000     0.34719     1 1s   -1.36896     1 2px   0.34234     1 2py  -1.31484     2 1s   -1.37288     2 2px  -0.34329
                                    2 2py   1.31616     3 1s    2.22148     4 1s   -0.48071     5 1s   -0.48011     6 1s    2.22567
   14.1    -0.00000     0.40836     1 1s   -0.60382     1 2px  -0.25208     1 2px  -1.55999     1 2py   0.77221     1 2pz   0.47170
                                    2 1s    0.60397     2 2px  -0.25169     2 2px  -1.56054     2 2py   0.77301     2 2pz   0.46842
                                    3 1s   -1.39463     6 1s    1.39584
   15.1    -0.00000     0.70013     1 1s    0.34608     1 2px   0.27736     1 2py  -0.33433     1 2px  -0.81887     1 2py   0.94211
                                    2 1s   -0.34711     2 2px   0.27937     2 2py  -0.33496     2 2px  -0.82148     2 2py   0.94537
                                    3 1s   -0.45293     3 1s   -0.63993     6 1s    0.45345     6 1s    0.64196
   16.1    -0.00000     0.74341     1 1s    0.53638     1 2px   0.57454     1 2px  -0.93258     1 2py   0.30945     2 1s    0.53172
                                    2 2px  -0.57481     2 2px   0.93296     2 2py  -0.30691     3 1s   -0.47903     4 1s   -0.25470
                                    4 1s    0.32550     5 1s   -0.25580     5 1s    0.32610     6 1s   -0.47685
   17.1    -0.00000     0.80178     1 2pz   0.76284     1 2pz  -0.72708     2 2pz   0.76743     2 2pz  -0.73603
   18.1    -0.00000     0.84730     1 2pz  -0.69856     1 2px   0.30899     1 2py   0.37269     1 2pz   0.92708     2 2pz   0.69221
                                    2 2px  -0.30603     2 2py  -0.37009     2 2pz  -0.92153
   19.1    -0.00000     0.88888     1 1s    0.86226     1 2py  -0.64589     1 2px  -0.30236     1 2py   1.99144     1 2pz  -0.46914
                                    2 1s    0.85965     2 2py   0.64593     2 2px   0.30401     2 2py  -1.99230     2 2pz   0.46543
                                    3 1s   -0.27233     3 1s   -1.16529     4 1s    0.38792     5 1s    0.39103     6 1s   -0.27190
                                    6 1s   -1.16621
   20.1    -0.00000     0.90979     1 1s    0.34343     1 1s   -0.79673     1 2px   0.63387     1 2px  -0.86991     1 2py  -0.32716
                                    2 1s   -0.34419     2 1s    0.80170     2 2px   0.63308     2 2px  -0.86757     2 2py  -0.33624
                                    4 1s   -0.44551     5 1s    0.44636
   21.1    -0.00000     1.01181     1 1s   -0.60816     1 1s    0.84791     1 2px  -0.28419     1 2pz  -0.39217     2 1s   -0.60230
                                    2 1s    0.84286     2 2px   0.29462     2 2pz   0.39213     3 1s   -0.32145     4 1s   -0.66445
                                    4 1s    0.27355     5 1s   -0.68195     5 1s    0.30902     6 1s   -0.32146
   22.1    -0.00000     1.02323     1 1s   -0.30249     1 1s    0.43576     1 2px   0.34206     1 2py   0.46982     1 2px  -0.69043
                                    1 2py  -0.65355     2 1s    0.31879     2 1s   -0.46029     2 2px   0.33461     2 2py   0.47231
                                    2 2px  -0.69151     2 2py  -0.65289     4 1s    0.65880     4 1s   -1.32070     5 1s   -0.64052
                                    5 1s    1.31248
   23.1    -0.00000     1.05830     1 1s   -1.06014     1 1s    2.07010     1 2px  -0.50266     1 2py   0.31716     1 2pz  -0.33425
                                    2 1s   -1.06054     2 1s    2.07156     2 2px   0.50265     2 2py  -0.31700     2 2pz   0.33451
                                    3 1s   -0.78543     4 1s    0.47809     4 1s   -0.95392     5 1s    0.47731     5 1s   -0.95328
                                    6 1s   -0.78546
   24.1    -0.00000     1.27966     1 1s   -1.13023     1 1s    3.35156     1 2py   0.39278     1 2px   1.42380     1 2py  -0.93970
                                    1 2pz  -0.72867     2 1s    1.12744     2 1s   -3.34560     2 2py   0.39303     2 2px   1.42479
                                    2 2py  -0.94269     2 2pz  -0.72788     3 1s   -0.35600     3 1s    0.39103     4 1s   -0.37598
                                    4 1s   -0.27522     5 1s    0.37534     5 1s    0.27545     6 1s    0.35520     6 1s   -0.39505
   25.1    -0.00000     1.37483     1 1s   -1.12453     1 1s    2.63016     1 2px   0.30140     1 2py  -0.41475     1 2py   0.53498
                                    1 2pz  -0.36810     2 1s    1.11939     2 1s   -2.62212     2 2px   0.30015     2 2py  -0.41137
                                    2 2py   0.53160     2 2pz  -0.36628     3 1s    0.54234     3 1s   -1.60644     6 1s   -0.53742
                                    6 1s    1.59803
   26.1    -0.00000     1.41528     1 1s   -0.76841     1 1s    1.25849     1 2py  -0.47044     1 2px  -0.29788     1 2py   0.49116
                                    2 1s   -0.77638     2 1s    1.27744     2 2py   0.47262     2 2px   0.29862     2 2py  -0.49409
                                    3 1s    0.74126     3 1s   -1.26823     6 1s    0.74446     6 1s   -1.27873
   27.1    -0.00000     1.70509     1 3d0  -0.27531     1 3d1+  0.34361     1 3d2+  0.36543     1 3d1- -0.28083     2 3d0   0.27547
                                    2 3d1+ -0.34380     2 3d2+ -0.36581     2 3d1-  0.28134
   28.1    -0.00000     1.90511     1 1s   -0.28783     1 3d2-  0.30636     1 3d1+ -0.38197     1 3d1- -0.45793     2 1s    0.28679
                                    2 3d2- -0.30567     2 3d1+  0.38268     2 3d1-  0.45851     3 1s    0.26882     6 1s   -0.26862
   29.1    -0.00000     2.04932     1 1s    0.40272     1 1s   -0.62173     1 3d0   0.48312     1 3d1+  0.46524     2 1s    0.40250
                                    2 1s   -0.62192     2 3d0   0.48313     2 3d1+  0.46491
   30.1    -0.00000     2.07874     1 1s   -0.25951     1 2px   0.32770     1 2py  -0.34853     1 3d2- -0.35979     1 3d2+  0.48738
                                    1 3d1-  0.29532     2 1s   -0.25960     2 2px  -0.32841     2 2py   0.34897     2 3d2- -0.35968
                                    2 3d2+  0.48761     2 3d1-  0.29573     3 1s    0.26650     6 1s    0.26710
   31.1    -0.00000     2.23900     1 1s   -0.28582     1 2py  -0.73369     1 3d0  -0.26463     1 3d1+  0.31386     1 3d1-  0.56407
                                    2 1s   -0.28399     2 2py   0.73494     2 3d0  -0.26446     2 3d1+  0.31350     2 3d1-  0.56428
                                    3 1s    0.25386     3 1s    0.39142     4 1s   -0.38010     5 1s   -0.38061     6 1s    0.25562
                                    6 1s    0.39172
   32.1    -0.00000     2.29577     1 1s   -0.34994     1 1s    1.21804     1 2px   0.36065     1 2py  -0.30614     1 2pz  -0.28105
                                    1 3d0  -0.56144     1 3d2+ -0.26631     1 3d1-  0.26150     2 1s    0.34984     2 1s   -1.21738
                                    2 2px   0.36054     2 2py  -0.30732     2 2pz  -0.28116     2 3d0   0.56015     2 3d2+  0.26698
                                    2 3d1- -0.26222     4 1s   -0.44629     5 1s    0.44665
   33.1    -0.00000     2.44232     1 3d0  -0.35882     1 3d1+  0.36030     1 3d2+  0.45110     1 3d1- -0.33627     2 3d0  -0.36045
                                    2 3d1+  0.35921     2 3d2+  0.45055     2 3d1- -0.33593
   34.1    -0.00000     2.64031     1 1s   -0.32586     1 2py  -0.25805     1 2py  -0.26130     1 3d0   0.30071     1 3d2-  0.58355
                                    1 3d2+  0.29637     1 3d1-  0.39767     2 1s    0.32541     2 2py  -0.25872     2 2py  -0.26013
                                    2 3d0  -0.30147     2 3d2- -0.58408     2 3d2+ -0.29705     2 3d1- -0.39571     3 1s    0.89410
                                    6 1s   -0.89462
   35.1    -0.00000     2.85862     1 1s   -1.68691     1 2px  -0.26777     1 2px  -0.91891     1 2py   0.29797     1 2pz   0.41486
                                    1 3d0   0.25728     1 3d2-  0.30691     1 3d1+  0.60181     1 3d2+ -0.61844     2 1s    1.68636
                                    2 2px  -0.26770     2 2px  -0.91895     2 2py   0.29843     2 2pz   0.41504     2 3d0  -0.25671
                                    2 3d2- -0.30677     2 3d1+ -0.60226     2 3d2+  0.61808
   36.1    -0.00000     2.86871     1 1s   -0.33653     1 2py  -0.34533     1 3d0   0.37684     1 3d2-  0.68021     1 3d1+ -0.27283
                                    1 3d2+  0.30213     2 1s   -0.33640     2 2py   0.34544     2 3d0   0.37756     2 3d2-  0.68013
                                    2 3d1+ -0.27233     2 3d2+  0.30222     3 1s    0.86052     6 1s    0.86093


 Natural orbital dump (state averaged) at molpro section  2140.2    (Orbital set 2)



 **********************************************************************************************************************************
 DATASETS  * FILE   NREC   LENGTH (MB)   RECORD NAMES
              1      20       31.84       500      610      700      900      950      970     1000      129      960     1100   
                                          VAR    BASINP    GEOM    SYMINP    ZMAT    AOBASIS   BASIS     P2S    ABASIS      S 
                                         1400     1410     1200     1210     1080     1600     1650     1300     1700     1380   
                                           T        V       H0       H01     AOSYM     SMH    MOLCAS    ERIS     OPER     JKOP   

              2       5        5.42       700     1000      520     2100     2140   
                                         GEOM     BASIS   MCVARS     RHF     MCSCF   

 PROGRAMS   *        TOTAL     MULTI    HF-SCF       INT
 CPU TIMES  *         1.95      1.60      0.09      0.17
 REAL TIME  *         2.22 SEC
 DISK USED  *        39.03 MB
 **********************************************************************************************************************************
 Molecular orbitals read from record     2140.2  Type=MCSCF/NATURAL (state averaged)
 Occupation numbers read from record     2140.2  Type=MCSCF/NATURAL (state averaged)
 Orbital energies read from record       2140.2  Type=MCSCF/NATURAL (state averaged)
 Redundancy group numbers read from rec  2140.2  Type=MCSCF/NATURAL (state averaged)

 MULTI/6-31G* energy=    -77.425176039625

           MULTI          HF-SCF
    -77.42517604    -77.82796594
 **********************************************************************************************************************************
 Molpro calculation terminated
