
 Primary working directories    : /scratch.local/johan406.molpro_temp/molpro.iFeFv7ByDq
 Secondary working directories  : /scratch.local/johan406.molpro_temp/molpro.iFeFv7ByDq
 Wavefunction directory         : /home/goodpast/johan406/wfu/
 Main file repository           : /scratch.local/johan406.molpro_temp/molpro.iFeFv7ByDq/

 id        : roweumn

 Nodes     nprocs
 acn06        1

 Using customized tuning parameters: mindgm=1; mindgv=20; mindgc=4; mindgr=1; noblas=0; minvec=7
 default implementation of scratch files=df  


 Variables initialized (934), CPU time= 0.00 sec
                                                                                 !leave this line blank
 
 gprint, orbitals=30
 memory, 125., m
 symmetry, nosym
 nelect=16
 basis=6-31g*
 
 geometry={
 C -0.710 0.168 0.290
 C 0.719 -0.217 -0.350
 H -1.209 0.882 0.122
 H -1.255 -0.974 -0.064
 H 1.264 0.924 0.003
 H 1.218 -0.932 -0.183
 }
 
 hf
 {multi,
 closed 7
 occ 9
 wf,spin=0;STATE,3
 }
 
 Commands  initialized (763), CPU time= 0.01 sec, 617 directives.
 Default parameters read. Elapsed time= 0.07 sec

 Checking input...
 Passed
1


                                         ***  PROGRAM SYSTEM MOLPRO  ***
                                       Copyright, TTI GmbH Stuttgart, 2015
                                    Version 2019.2 linked Oct 25 2019 22:50:27


 **********************************************************************************************************************************
 LABEL *                                                                                 
  64 bit serial version                                                                  DATE: 15-Mar-23          TIME: 16:34:27  
 **********************************************************************************************************************************

 SHA1:             8dbd9ae1082e4ce945b0f27595c9eb2d4aa09004
 **********************************************************************************************************************************


 Variable memory set to  125000000 words,  buffer space 

 SETTING NELECT         =        16.00000000                                  
 SETTING BASIS          =    6-31G*
 ZSYMEL=NOSYM


Geometry recognized as XYZ



 Recomputing integrals since basis changed


 Using spherical harmonics

 Library entry C      S 6-31G                selected for orbital group  1
 Library entry C      P 6-31G                selected for orbital group  1
 Library entry C      D 6-31G*               selected for orbital group  1
 Library entry H      S 6-31G                selected for orbital group  2


 PROGRAM * SEWARD (Integral evaluation for generally contracted gaussian basis sets)     Author: Roland Lindh, 1990

 Geometry written to block  1 of record 700


 Point group  C1  



 ATOMIC COORDINATES

 NR  ATOM    CHARGE       X              Y              Z

   1  C       6.00   -1.341705548    0.317473989    0.548020576
   2  C       6.00    1.358713084   -0.410070569   -0.661404144
   3  H       1.00   -2.284678885    1.666738442    0.230546587
   4  H       1.00   -2.371606286   -1.840593245   -0.120942472
   5  H       1.00    2.388613821    1.746106939    0.005669178
   6  H       1.00    2.301686420   -1.761224748   -0.345819881

 Bond lengths in Bohr (Angstrom)

 1-2  3.047013296  1-3  1.676455490  1-4  2.483034691  2-5  2.480883672  2-6  1.677620266
     ( 1.612409997)     ( 0.887142040)     ( 1.313965372)     ( 1.312827102)     ( 0.887758413)

 Bond angles

  1-2-5   93.07628543   1-2-6  128.00961923   2-1-3  127.98862680   2-1-4   93.04585874

  3-1-4  114.53046341   5-2-6  114.58620517

 NUCLEAR CHARGE:                   16
 NUMBER OF PRIMITIVE AOS:          72
 NUMBER OF SYMMETRY AOS:           70
 NUMBER OF CONTRACTIONS:           36   (   36A   )
 NUMBER OF CORE ORBITALS:           2   (    2A   )
 NUMBER OF VALENCE ORBITALS:       12   (   12A   )


 NUCLEAR REPULSION ENERGY   30.91637065

 Eigenvalues of metric

         1 0.152E-01 0.164E-01 0.331E-01 0.836E-01 0.101E+00 0.175E+00 0.205E+00 0.260E+00


 Contracted 2-electron integrals neglected if value below      1.0D-11
 AO integral compression algorithm  1   Integral accuracy      1.0D-11

     1.311 MB (compressed) written to integral file ( 68.5%)


 NUMBER OF SORTED TWO-ELECTRON INTEGRALS:     222111.     BUFFER LENGTH:  32768
 NUMBER OF SEGMENTS:   1  SEGMENT LENGTH:     222111      RECORD LENGTH: 524288

 Memory used in sort:       0.78 MW

 SORT1 READ      284735. AND WROTE      212526. INTEGRALS IN      1 RECORDS. CPU TIME:     0.00 SEC, REAL TIME:     0.00 SEC
 SORT2 READ      212526. AND WROTE      222111. INTEGRALS IN      5 RECORDS. CPU TIME:     0.02 SEC, REAL TIME:     0.03 SEC

 FILE SIZES:   FILE 1:    31.4 MBYTE,  FILE 4:     4.2 MBYTE,   TOTAL:     35.6 MBYTE

 OPERATOR DM      FOR CENTER  0  COORDINATES:    0.000000    0.000000    0.000000


 **********************************************************************************************************************************
 DATASETS  * FILE   NREC   LENGTH (MB)   RECORD NAMES
              1      19       31.11       500      610      700      900      950      970     1000      129      960     1100   
                                          VAR    BASINP    GEOM    SYMINP    ZMAT    AOBASIS   BASIS     P2S    ABASIS      S 
                                         1400     1410     1200     1210     1080     1600     1650     1300     1700   
                                           T        V       H0       H01     AOSYM     SMH    MOLCAS    ERIS     OPER   

 PROGRAMS   *        TOTAL       INT
 CPU TIMES  *         0.28      0.17
 REAL TIME  *         0.39 SEC
 DISK USED  *        35.97 MB
 **********************************************************************************************************************************


 PROGRAM * RHF-SCF (CLOSED SHELL)       Authors: W. Meyer, H.-J. Werner


 NUMBER OF ELECTRONS:       8+    8-    SPACE SYMMETRY=1    SPIN SYMMETRY: Singlet 
 CONVERGENCE THRESHOLDS:    1.00E-05 (Density)    1.00E-07 (Energy)
 MAX. NUMBER OF ITERATIONS:       60
 INTERPOLATION TYPE:            DIIS
 INTERPOLATION STEPS:              2 (START)      1 (STEP)
 LEVEL SHIFTS:                  0.00 (CLOSED)  0.00 (OPEN) 



 Orbital guess generated from atomic densities. Full valence occupancy:    8

 Molecular orbital dump at record        2100.2

 Initial occupancy:   8

 ITERATION    DDIFF          GRAD             ENERGY        2-EL.EN.            DIPOLE MOMENTS         DIIS   ORB.
    1      0.000D+00      0.000D+00       -77.74969728    112.561906    0.00151   -0.00104   -0.00154    0    start
    2      0.000D+00      0.726D-02       -77.77266503    111.652528    0.00056    0.00068   -0.00017    1    diag
    3      0.812D-02      0.255D-02       -77.77598256    111.994043    0.00216   -0.00023   -0.00174    2    diag
    4      0.341D-02      0.930D-03       -77.77670333    111.858121    0.00086    0.00085   -0.00028    3    diag
    5      0.178D-02      0.412D-03       -77.77696980    111.865678    0.00292   -0.00052   -0.00241    4    diag
    6      0.132D-02      0.155D-03       -77.77701563    111.866109   -0.00092    0.00221    0.00167    5    diag
    7      0.532D-03      0.772D-04       -77.77702140    111.866415    0.00234   -0.00011   -0.00180    6    diag
    8      0.156D-03      0.311D-04       -77.77702274    111.866984    0.00152    0.00047   -0.00093    7    diag
    9      0.861D-04      0.857D-05       -77.77702286    111.867122    0.00158    0.00043   -0.00099    8    diag
   10      0.267D-04      0.205D-05       -77.77702287    111.867088    0.00158    0.00043   -0.00099    9    orth
   11      0.562D-05      0.391D-06       -77.77702287    111.867086    0.00158    0.00043   -0.00099    0    orth

 Final occupancy:   8

 !RHF STATE  1.1 Energy               -77.777022867371
 Nuclear energy                        30.91637065
 One-electron energy                 -164.62693671
 Two-electron energy                   55.93354319
 Virial quotient                       -0.99965640
 !RHF STATE  1.1 Dipole moment          0.00157508     0.00043012    -0.00098761
 Dipole moment /Debye                   0.00400319     0.00109317    -0.00251009

 ELECTRON ORBITALS
 =================

  Orbital  Occupation    Energy     Coefficients
    1.1     2.00000   -11.28007     1 1s   -0.64557     2 1s   -0.75879
    2.1     2.00000   -11.27957     1 1s   -0.75885     2 1s    0.64565
    3.1     2.00000    -0.99400     1 1s    0.29049     2 1s    0.29040
    4.1     2.00000    -0.86835     2 1s   -0.24937
    5.1     2.00000    -0.62095     1 2px   0.27803     1 2py  -0.25861     2 2px  -0.27770     2 2py   0.25999
    6.1     2.00000    -0.57800     1 2py   0.28325     2 2py   0.28265
    7.1     2.00000    -0.40972     1 2px   0.27941     2 2px  -0.27930     4 1s   -0.26983     5 1s   -0.26913
    8.1     2.00000    -0.34927     1 2pz   0.32084     1 2pz   0.30875     2 2pz   0.32059     2 2pz   0.30862
    9.1     0.00000     0.07477     1 1s   -0.30943     1 2pz  -0.35669     1 2pz  -0.50009     2 1s   -0.30910     2 2pz   0.35688
                                    2 2pz   0.50052
   10.1     0.00000     0.21723     1 1s   -0.96309     1 2px   0.49020     1 2py   0.35738     1 2pz   0.28777     2 1s   -0.96279
                                    2 2px  -0.48907     2 2py  -0.35445     2 2pz  -0.28706     3 1s    0.54605     4 1s    0.93863
                                    5 1s    0.93453     6 1s    0.54740
   11.1     0.00000     0.26336     1 1s    0.48699     1 2px  -0.31593     1 2py  -0.56726     2 1s   -0.49427     2 2px  -0.31918
                                    2 2py  -0.56934     4 1s   -1.17145     5 1s    1.17792
   12.1     0.00000     0.30875     1 1s   -2.02128     1 2px  -0.26172     1 2py  -0.26637     1 2pz   0.43649     2 1s    2.02311
                                    2 2px  -0.26166     2 2py  -0.27035     2 2pz   0.43579     3 1s    1.51321     6 1s   -1.51746
   13.1     0.00000     0.34140     1 1s   -1.55943     1 2px   0.45252     1 2py  -1.23108     1 2pz   0.26089     2 1s   -1.54930
                                    2 2px  -0.45444     2 2py   1.23225     2 2pz  -0.25762     3 1s    2.35525     4 1s   -0.38324
                                    5 1s   -0.38579     6 1s    2.35080
   14.1     0.00000     0.40265     1 1s    0.35726     1 2px   0.25193     1 2px   1.52069     1 2py  -0.87000     1 2pz  -0.47004
                                    2 1s   -0.36067     2 2px   0.25170     2 2px   1.51961     2 2py  -0.86894     2 2pz  -0.47150
                                    3 1s    1.68558     6 1s   -1.68147
   15.1     0.00000     0.66818     1 1s    0.34860     1 2px   0.26121     1 2py  -0.31691     1 2px  -1.09459     1 2py   0.98404
                                    2 1s   -0.34579     2 2px   0.26097     2 2py  -0.31665     2 2px  -1.09265     2 2py   0.98310
                                    3 1s   -0.44076     3 1s   -0.81546     6 1s    0.44088     6 1s    0.81233
   16.1     0.00000     0.76256     1 1s    0.56867     1 2px   0.60464     1 2px  -0.97410     2 1s    0.56813     2 2px  -0.60573
                                    2 2px   0.97490     3 1s   -0.51974     6 1s   -0.51894
   17.1     0.00000     0.79832     1 2pz   0.77618     1 2pz  -0.69269     2 2pz   0.77732     2 2pz  -0.69370
   18.1     0.00000     0.84139     1 1s    0.25723     1 1s   -0.50401     1 2pz   0.71053     1 2py  -0.56176     1 2pz  -0.80294
                                    2 1s    0.25733     2 1s   -0.50484     2 2pz  -0.70945     2 2py   0.56160     2 2pz   0.80205
                                    3 1s    0.33062     6 1s    0.33047
   19.1     0.00000     0.89893     1 1s   -1.06933     1 2py   0.63062     1 2px   0.55883     1 2py  -1.97669     1 2pz   0.53048
                                    2 1s   -1.03345     2 2py  -0.61991     2 2px  -0.60057     2 2py   1.96325     2 2pz  -0.52324
                                    3 1s    0.26599     3 1s    1.38309     4 1s   -0.39745     5 1s   -0.39096     6 1s    0.26515
                                    6 1s    1.38161
   20.1     0.00000     0.90135     1 1s    0.36111     1 1s   -0.85026     1 2px   0.65152     1 2py   0.26059     1 2px  -1.06118
                                    1 2py  -0.32824     2 1s   -0.35483     2 1s    0.88780     2 2px   0.64677     2 2py   0.28469
                                    2 2px  -1.03762     2 2py  -0.40577     4 1s   -0.33411     5 1s    0.33378
   21.1     0.00000     1.03595     1 1s    0.42710     1 1s   -0.79100     1 2py  -0.44556     1 2px   0.45995     1 2py   0.63895
                                    2 1s   -0.40320     2 1s    0.74169     2 2py  -0.44214     2 2px   0.44795     2 2py   0.64907
                                    4 1s   -0.68778     4 1s    1.30989     5 1s    0.68534     5 1s   -1.29640
   22.1     0.00000     1.04367     1 1s    0.93645     1 1s   -1.72104     1 2px   0.35647     1 2pz   0.54895     2 1s    0.94673
                                    2 1s   -1.74160     2 2px  -0.35579     2 2pz  -0.55238     3 1s    0.32038     3 1s    0.80536
                                    4 1s    0.47967     5 1s    0.46935     6 1s    0.32127     6 1s    0.80089
   23.1     0.00000     1.06118     1 1s   -0.72479     1 1s    1.69909     1 2px  -0.51503     1 2py   0.37355     2 1s   -0.73047
                                    2 1s    1.70747     2 2px   0.52196     2 2py  -0.36545     3 1s   -0.71619     4 1s    0.69405
                                    4 1s   -1.00290     5 1s    0.70344     5 1s   -1.02036     6 1s   -0.71545
   24.1     0.00000     1.28226     1 1s   -1.20326     1 1s    3.37111     1 2py   0.34697     1 2px   1.33712     1 2py  -0.86941
                                    1 2pz  -0.73642     2 1s    1.19962     2 1s   -3.36362     2 2py   0.34721     2 2px   1.33913
                                    2 2py  -0.87290     2 2pz  -0.73446     3 1s   -0.27120     4 1s   -0.43880     5 1s    0.43687
                                    6 1s    0.27138
   25.1     0.00000     1.40813     1 1s    0.95869     1 1s   -2.14501     1 2px  -0.35434     1 2py   0.43244     1 2px   0.36333
                                    1 2py  -0.60080     1 2pz   0.25240     2 1s   -0.98000     2 1s    2.17925     2 2px  -0.36112
                                    2 2py   0.44465     2 2px   0.37162     2 2py  -0.61375     2 2pz   0.25505     3 1s   -0.57664
                                    3 1s    1.64774     6 1s    0.59667     6 1s   -1.68132
   26.1     0.00000     1.44452     1 1s   -0.83593     1 1s    1.40559     1 2px   0.27901     1 2py  -0.45944     1 2px  -0.35999
                                    1 2py   0.50776     2 1s   -0.81176     2 1s    1.35268     2 2px  -0.26905     2 2py   0.44757
                                    2 2px   0.34762     2 2py  -0.49028     3 1s    0.76072     3 1s   -1.36336     6 1s    0.74493
                                    6 1s   -1.31807
   27.1     0.00000     1.70095     1 3d0  -0.26185     1 3d1+  0.32861     1 3d2+  0.38163     1 3d1- -0.28687     2 3d0   0.26233
                                    2 3d1+ -0.32830     2 3d2+ -0.38113     2 3d1-  0.28822
   28.1     0.00000     1.93282     1 3d2- -0.26104     1 3d1+  0.40116     1 3d1-  0.47378     2 3d2-  0.26112     2 3d1+ -0.40192
                                    2 3d1- -0.47365     3 1s   -0.25980     6 1s    0.25921
   29.1     0.00000     2.01484     1 1s   -0.41328     1 2px   0.35272     1 2py  -0.38537     1 3d2- -0.29622     1 3d2+  0.48101
                                    1 3d1-  0.36146     2 1s   -0.41033     2 2px  -0.35343     2 2py   0.38632     2 3d2- -0.29531
                                    2 3d2+  0.48094     2 3d1-  0.36194     3 1s    0.41938     6 1s    0.41910
   30.1     0.00000     2.01926     1 1s   -0.42711     1 1s    0.49836     1 3d0  -0.44667     1 3d1+ -0.47702     2 1s   -0.42665
                                    2 1s    0.49682     2 3d0  -0.44526     2 3d1+ -0.47652
   31.1     0.00000     2.21215     1 2py  -0.60678     1 3d0  -0.31002     1 3d1+  0.33159     1 3d1-  0.49258     2 1s   -0.26136
                                    2 2py   0.60385     2 3d0  -0.30060     2 3d1+  0.33288     2 3d1-  0.48865     3 1s    0.33790
                                    4 1s   -0.38001     5 1s   -0.37430     6 1s    0.33788
   32.1     0.00000     2.25079     1 1s   -0.30431     1 1s    1.07162     1 2px   0.28305     1 2py  -0.26151     1 2pz  -0.25103
                                    1 3d0  -0.57626     1 3d2+ -0.27774     2 1s    0.30516     2 1s   -1.06938     2 2px   0.28308
                                    2 2py  -0.27077     2 3d0   0.58290     2 3d2+  0.28070     4 1s   -0.41752     5 1s    0.42484
   33.1     0.00000     2.41227     1 3d0  -0.33552     1 3d1+  0.31993     1 3d2+  0.46336     1 3d1- -0.36247     2 3d0  -0.33537
                                    2 3d1+  0.32053     2 3d2+  0.46257     2 3d1- -0.36417
   34.1     0.00000     2.63756     1 1s    0.25989     1 1s   -0.27941     1 2px  -0.25342     1 2py   0.28614     1 2px  -0.41422
                                    1 2py   0.34789     1 3d2- -0.54937     1 3d2+ -0.36145     1 3d1- -0.40694     2 1s   -0.25910
                                    2 1s    0.27809     2 2px  -0.25323     2 2py   0.28620     2 2px  -0.41489     2 2py   0.34846
                                    2 3d2-  0.55269     2 3d2+  0.36405     2 3d1-  0.40508     3 1s   -0.92443     6 1s    0.92593
   35.1     0.00000     2.84675     1 1s    1.61575     1 2px   0.87815     1 2py  -0.27725     1 2pz  -0.40507     1 3d0  -0.31748
                                    1 3d2- -0.45414     1 3d1+ -0.55488     1 3d2+  0.53041     2 1s   -1.61578     2 2px   0.87817
                                    2 2py  -0.27728     2 2pz  -0.40503     2 3d0   0.31752     2 3d2-  0.45431     2 3d1+  0.55510
                                    2 3d2+ -0.53022
   36.1     0.00000     2.95430     1 1s   -0.42495     1 2py  -0.35158     1 3d0   0.39059     1 3d2-  0.72653     1 3d1+ -0.27969
                                    2 1s   -0.42341     2 2py   0.35120     2 3d0   0.38991     2 3d2-  0.72411     2 3d1+ -0.27814
                                    3 1s    0.95089     6 1s    0.94597


 HOMO      8.1    -0.349273 =      -9.5042eV
 LUMO      9.1     0.074770 =       2.0346eV
 LUMO-HOMO         0.424044 =      11.5388eV


 **********************************************************************************************************************************
 DATASETS  * FILE   NREC   LENGTH (MB)   RECORD NAMES
              1      19       31.11       500      610      700      900      950      970     1000      129      960     1100   
                                          VAR    BASINP    GEOM    SYMINP    ZMAT    AOBASIS   BASIS     P2S    ABASIS      S 
                                         1400     1410     1200     1210     1080     1600     1650     1300     1700   
                                           T        V       H0       H01     AOSYM     SMH    MOLCAS    ERIS     OPER   

              2       4        2.86       700     1000      520     2100   
                                         GEOM     BASIS   MCVARS     RHF  

 PROGRAMS   *        TOTAL    HF-SCF       INT
 CPU TIMES  *         0.36      0.08      0.17
 REAL TIME  *         0.59 SEC
 DISK USED  *        35.97 MB
 **********************************************************************************************************************************


 PROGRAM * MULTI (Direct Multiconfiguration SCF)       Authors: P.J. Knowles, H.-J. Werner (1984)


 Number of closed-shell orbitals:   7 (   7 )
 Number of active  orbitals:        2 (   2 )
 Number of external orbitals:      27 (  27 )

 State symmetry 1

 Number of electrons:     2    Spin symmetry=Singlet   Space symmetry=1
 Number of states:        3
 Number of CSFs:          3   (4 determinants, 4 intermediate states)

 Molecular orbitals read from record     2100.2  Type=RHF/CANONICAL (state 1.1)

 Wavefunction dump at record             2140.2

 Convergence thresholds  0.10E-01 (gradient)  0.10E-05 (energy)  0.10E-02 (step length)

 Weight factors for state symmetry  1:    0.33333   0.33333   0.33333

 Number of orbital rotations:      257   (    14 Core/Active    189 Core/Virtual   0 Active/Active     54 Active/Virtual)
 Total number of variables:        269

 Micro-Iterations solved by the two-step solver

 ITER. MIC  NCI  NEG     ENERGY(VAR)     ENERGY(PROJ)   ENERGY CHANGE     GRAD(0)  GRAD(ORB)   GRAD(CI)     STEP       TIME

   1   14    6    1     -77.56705857     -77.57847205   -0.01141348    0.09686858 0.00013863 0.00000000  0.25D+00      0.39
   2   13    6    0     -77.58794778     -77.59542772   -0.00747994    0.09191974 0.00046709 0.00000000  0.14D+00      0.57
   3   14    6    0     -77.59626710     -77.59711022   -0.00084312    0.01904449 0.00000378 0.00000000  0.87D-01      0.77
   4   17    7    0     -77.59720001     -77.59732465   -0.00012463    0.00688100 0.00000690 0.00000000  0.45D-01      0.95
   5   13    6    0     -77.59733197     -77.59733797   -0.00000600    0.00164520 0.00000383 0.00000000  0.82D-02      1.07
   6   12    6    0     -77.59733800     -77.59733801   -0.00000000    0.00003823 0.00000000 0.00000000  0.15D-03      1.17

 ** WVFN ****  CONVERGENCE REACHED, FINAL GRADIENT:  0.80D-08



 Results for state 1.1
 =====================

 !MCSCF STATE  1.1 Energy             -77.770137130855
 Nuclear energy                        30.91637065
 Kinetic energy                        77.78474921
 One electron energy                 -164.56573615
 Two electron energy                   55.87922837
 Virial ratio                           1.99981215

 !MCSCF STATE  1.1 Dipole moment        0.00244835     0.00084614    -0.00085416
 Dipole moment /Debye                   0.00622268     0.00215054    -0.00217093

 Results for state 2.1
 =====================

 !MCSCF STATE  2.1 Energy             -77.624533325050
 Nuclear energy                        30.91637065
 Kinetic energy                        77.98347490
 One electron energy                 -164.52111097
 Two electron energy                   55.98020700
 Virial ratio                           1.99539721

 !MCSCF STATE  2.1 Dipole moment       -0.00034503     0.00025932    -0.00089434
 Dipole moment /Debye                  -0.00087692     0.00065908    -0.00227302

 Results for state 3.1
 =====================

 !MCSCF STATE  3.1 Energy             -77.397343561957
 Nuclear energy                        30.91637065
 Kinetic energy                        78.18267637
 One electron energy                 -164.51698110
 Two electron energy                   56.20326689
 Virial ratio                           1.98995516

 !MCSCF STATE  3.1 Dipole moment       -0.00183003    -0.00059615    -0.00201863
 Dipole moment /Debye                  -0.00465118    -0.00151517    -0.00513050

 State-averaged charge density matrix saved on record  2140.2 (density set 1)

 !MCSCF expec         <1.1|DMX|1.1>     0.002448349969 au =     0.006222677313 Debye
 !MCSCF trans         <2.1|DMX|1.1>    -0.006437274033 au =    -0.016360846937 Debye
 !MCSCF expec         <2.1|DMX|2.1>    -0.000345030591 au =    -0.000876922850 Debye
 !MCSCF trans         <3.1|DMX|1.1>     0.000355432115 au =     0.000903359154 Debye
 !MCSCF trans         <3.1|DMX|2.1>    -0.006935115371 au =    -0.017626150525 Debye
 !MCSCF expec         <3.1|DMX|3.1>    -0.001830034071 au =    -0.004651177993 Debye

 !MCSCF expec         <1.1|DMY|1.1>     0.000846141772 au =     0.002150537004 Debye
 !MCSCF trans         <2.1|DMY|1.1>     0.001341285430 au =     0.003408984223 Debye
 !MCSCF expec         <2.1|DMY|2.1>     0.000259317919 au =     0.000659077236 Debye
 !MCSCF trans         <3.1|DMY|1.1>     0.000001292373 au =     0.000003284669 Debye
 !MCSCF trans         <3.1|DMY|2.1>     0.001405649271 au =     0.003572570075 Debye
 !MCSCF expec         <3.1|DMY|3.1>    -0.000596152228 au =    -0.001515168580 Debye

 !MCSCF expec         <1.1|DMZ|1.1>    -0.000854163783 au =    -0.002170925587 Debye
 !MCSCF trans         <2.1|DMZ|1.1>     0.005373554702 au =     0.013657319160 Debye
 !MCSCF expec         <2.1|DMZ|2.1>    -0.000894335395 au =    -0.002273024954 Debye
 !MCSCF trans         <3.1|DMZ|1.1>    -0.000143789471 au =    -0.000365452443 Debye
 !MCSCF trans         <3.1|DMZ|2.1>     0.005709242398 au =     0.014510496293 Debye
 !MCSCF expec         <3.1|DMZ|3.1>    -0.002018626217 au =    -0.005130500022 Debye


 NATURAL ORBITALS (state averaged)
 =================================

  Orbital  Occupation    Energy     Coefficients
    1.1     2.00000   -11.25839     1 1s   -0.66597     2 1s   -0.74090
    2.1     2.00000   -11.25802     1 1s   -0.74093     2 1s    0.66600
    3.1     2.00000    -0.98704     1 1s    0.28369     2 1s    0.28338
    4.1     2.00000    -0.85389     2 1s   -0.24720
    5.1     2.00000    -0.61011     1 2py  -0.28540     2 2py   0.28708
    6.1     2.00000    -0.57511     1 2py   0.27543     2 2py   0.27407
    7.1     2.00000    -0.37432     1 2pz   0.34138     1 2pz   0.30829     2 2pz   0.34146     2 2pz   0.30818
    8.1     1.00000    -0.26081     1 2px  -0.31874     2 2px   0.31970     4 1s    0.26930     5 1s    0.26924
    9.1     1.00000    -0.07532     1 2pz  -0.42490     1 2pz  -0.44730     2 2pz   0.42538     2 2pz   0.44774
   10.1    -0.00000     0.20941     1 1s   -0.96511     1 2px   0.49637     1 2py   0.38358     2 1s   -0.96157     2 2px  -0.49534
                                    2 2py  -0.37985     3 1s    0.50783     4 1s    0.94992     5 1s    0.94375     6 1s    0.50803
   11.1    -0.00000     0.25289     1 1s    0.82424     1 2py  -0.58163     2 1s   -0.83235     2 2py  -0.58463     4 1s   -1.20637
                                    5 1s    1.21445
   12.1    -0.00000     0.31393     1 1s   -1.92131     1 2px  -0.30275     1 2py  -0.37545     1 2pz   0.39256     2 1s    1.92061
                                    2 2px  -0.30341     2 2py  -0.37734     2 2pz   0.39097     3 1s    1.52496     6 1s   -1.52537
   13.1    -0.00000     0.34852     1 1s   -1.59816     1 2px   0.46422     1 2py  -1.23064     1 2pz   0.25142     2 1s   -1.59194
                                    2 2px  -0.46545     2 2py   1.23184     3 1s    2.37561     4 1s   -0.35655     5 1s   -0.35822
                                    6 1s    2.37324
   14.1    -0.00000     0.41008     1 1s    0.29863     1 2px   0.25969     1 2px   1.55153     1 2py  -0.82208     1 2pz  -0.44085
                                    2 1s   -0.30140     2 2px   0.25942     2 2px   1.55079     2 2py  -0.82151     2 2pz  -0.44152
                                    3 1s    1.69332     6 1s   -1.69015
   15.1    -0.00000     0.67389     1 1s    0.31684     1 2px   0.25860     1 2py  -0.32032     1 2px  -1.08840     1 2py   0.98431
                                    2 1s   -0.31306     2 2px   0.25840     2 2py  -0.32024     2 2px  -1.08614     2 2py   0.98314
                                    3 1s   -0.44226     3 1s   -0.79518     6 1s    0.44227     6 1s    0.79140
   16.1    -0.00000     0.76567     1 1s    0.53923     1 2px   0.58613     1 2px  -0.95135     2 1s    0.53815     2 2px  -0.58719
                                    2 2px   0.95222     3 1s   -0.52790     4 1s    0.29489     5 1s    0.29492     6 1s   -0.52688
   17.1    -0.00000     0.80046     1 1s    0.25903     1 2pz   0.76971     1 2pz  -0.73665     2 1s   -0.25798     2 2pz   0.77079
                                    2 2pz  -0.73821
   18.1    -0.00000     0.84471     1 1s   -0.31285     1 2pz   0.68556     1 2px  -0.27549     1 2py  -0.42567     1 2pz  -0.88794
                                    2 1s   -0.31480     2 2pz  -0.68409     2 2px   0.27632     2 2py   0.42505     2 2pz   0.88660
   19.1    -0.00000     0.90520     1 1s    0.39393     1 1s   -0.91440     1 2px   0.60340     1 2px  -0.85795     1 2py  -0.34753
                                    2 1s   -0.39724     2 1s    0.84666     2 2px   0.60407     2 2px  -0.89054     4 1s   -0.45810
                                    5 1s    0.46257
   20.1    -0.00000     0.90617     1 1s   -0.98346     1 2py   0.63603     1 2px   0.55695     1 2py  -1.96345     1 2pz   0.49016
                                    2 1s   -1.03766     2 2py  -0.64883     2 2px  -0.50249     2 2py   1.98193     2 2pz  -0.49694
                                    3 1s    0.26051     3 1s    1.36148     4 1s   -0.44067     5 1s   -0.43622     6 1s    0.26210
                                    6 1s    1.36399
   21.1    -0.00000     1.00993     1 1s    0.31754     1 1s   -0.51433     1 2px  -0.34305     1 2py  -0.47830     1 2px   0.67183
                                    1 2py   0.65468     2 1s   -0.31174     2 1s    0.49426     2 2px  -0.33808     2 2py  -0.47898
                                    2 2px   0.66394     2 2py   0.66623     4 1s   -0.64239     4 1s    1.30831     5 1s    0.62613
                                    5 1s   -1.29228
   22.1    -0.00000     1.02153     1 1s    0.28009     1 2px   0.28354     1 2pz   0.28323     2 1s    0.27703     2 2px  -0.29101
                                    2 2pz  -0.28327     4 1s    0.79552     4 1s   -0.56067     5 1s    0.80641     5 1s   -0.58222
   23.1    -0.00000     1.05040     1 1s   -1.16093     1 1s    2.45608     1 2px  -0.64920     1 2py   0.47198     1 2pz  -0.49227
                                    2 1s   -1.16617     2 1s    2.46409     2 2px   0.65178     2 2py  -0.46472     2 2pz   0.49295
                                    3 1s   -0.34355     3 1s   -1.10995     4 1s   -0.78216     5 1s   -0.79495     6 1s   -0.34409
                                    6 1s   -1.10677
   24.1    -0.00000     1.27861     1 1s   -1.22697     1 1s    3.41533     1 2py   0.35020     1 2px   1.34580     1 2py  -0.87955
                                    1 2pz  -0.73478     2 1s    1.22373     2 1s   -3.40859     2 2py   0.35054     2 2px   1.34754
                                    2 2py  -0.88298     2 2pz  -0.73326     3 1s   -0.27161     4 1s   -0.41035     5 1s    0.40881
                                    6 1s    0.27186
   25.1    -0.00000     1.41941     1 1s    0.95588     1 1s   -2.13291     1 2px  -0.36052     1 2py   0.42833     1 2px   0.37305
                                    1 2py  -0.60420     2 1s   -0.97490     2 1s    2.16325     2 2px  -0.36641     2 2py   0.43896
                                    2 2px   0.38033     2 2py  -0.61554     3 1s   -0.57039     3 1s    1.64593     6 1s    0.58783
                                    6 1s   -1.67524
   26.1    -0.00000     1.45707     1 1s   -0.84247     1 1s    1.40854     1 2px   0.27540     1 2py  -0.45760     1 2px  -0.35803
                                    1 2py   0.50518     2 1s   -0.82145     2 1s    1.36263     2 2px  -0.26651     2 2py   0.44715
                                    2 2px   0.34686     2 2py  -0.48959     3 1s    0.75619     3 1s   -1.35652     6 1s    0.74245
                                    6 1s   -1.31668
   27.1    -0.00000     1.70303     1 3d0  -0.26334     1 3d1+  0.32791     1 3d2+  0.38165     1 3d1- -0.28597     2 3d0   0.26376
                                    2 3d1+ -0.32761     2 3d2+ -0.38125     2 3d1-  0.28719
   28.1    -0.00000     1.93905     1 3d2- -0.26067     1 3d1+  0.40223     1 3d1-  0.47147     2 3d2-  0.26053     2 3d1+ -0.40281
                                    2 3d1- -0.47104     3 1s   -0.26357     6 1s    0.26310
   29.1    -0.00000     2.01425     1 1s   -0.39527     1 2px   0.35517     1 2py  -0.37125     1 3d2- -0.30246     1 3d2+  0.49073
                                    1 3d1-  0.34473     2 1s   -0.39252     2 2px  -0.35573     2 2py   0.37205     2 3d2- -0.30180
                                    2 3d2+  0.49062     2 3d1-  0.34557     3 1s    0.41105     6 1s    0.41075
   30.1    -0.00000     2.02973     1 1s   -0.41931     1 1s    0.50217     1 3d0  -0.44844     1 3d1+ -0.48052     2 1s   -0.41880
                                    2 1s    0.50048     2 3d0  -0.44699     2 3d1+ -0.48010
   31.1    -0.00000     2.21257     1 1s   -0.25761     1 2py  -0.62615     1 3d0  -0.30302     1 3d1+  0.32526     1 3d1-  0.51037
                                    2 1s   -0.27092     2 2py   0.62326     2 3d0  -0.29369     2 3d1+  0.32645     2 3d1-  0.50647
                                    3 1s    0.35286     4 1s   -0.36587     5 1s   -0.36033     6 1s    0.35278
   32.1    -0.00000     2.25304     1 1s   -0.30650     1 1s    1.04904     1 2px   0.26961     1 2py  -0.25914     1 3d0  -0.57053
                                    1 3d2+ -0.28166     2 1s    0.30763     2 1s   -1.04670     2 2px   0.26975     2 2py  -0.26887
                                    2 3d0   0.57690     2 3d2+  0.28463     4 1s   -0.40699     5 1s    0.41417
   33.1    -0.00000     2.41487     1 3d0  -0.33425     1 3d1+  0.32303     1 3d2+  0.46051     1 3d1- -0.35884     2 3d0  -0.33436
                                    2 3d1+  0.32342     2 3d2+  0.45980     2 3d1- -0.36038
   34.1    -0.00000     2.64098     1 1s    0.26385     1 1s   -0.28789     1 2px  -0.25546     1 2py   0.28925     1 2px  -0.41667
                                    1 2py   0.34472     1 3d2- -0.54282     1 3d2+ -0.36543     1 3d1- -0.40686     2 1s   -0.26312
                                    2 1s    0.28666     2 2px  -0.25527     2 2py   0.28941     2 2px  -0.41731     2 2py   0.34524
                                    2 3d2-  0.54598     2 3d2+  0.36790     2 3d1-  0.40509     3 1s   -0.92803     6 1s    0.92956
   35.1    -0.00000     2.84971     1 1s    1.63845     1 2px   0.88511     1 2py  -0.28146     1 2pz  -0.40954     1 3d0  -0.32651
                                    1 3d2- -0.45421     1 3d1+ -0.55543     1 3d2+  0.52436     2 1s   -1.63875     2 2px   0.88497
                                    2 2py  -0.28133     2 2pz  -0.40958     2 3d0   0.32677     2 3d2-  0.45486     2 3d1+  0.55555
                                    2 3d2+ -0.52397
   36.1    -0.00000     2.96070     1 1s   -0.42271     1 2py  -0.34976     1 3d0   0.39731     1 3d2-  0.72188     1 3d1+ -0.28242
                                    2 1s   -0.42029     2 2py   0.34954     2 3d0   0.39647     2 3d2-  0.71921     2 3d1+ -0.28123
                                    3 1s    0.95336     6 1s    0.94835


 Natural orbital dump (state averaged) at molpro section  2140.2    (Orbital set 2)



 **********************************************************************************************************************************
 DATASETS  * FILE   NREC   LENGTH (MB)   RECORD NAMES
              1      20       31.84       500      610      700      900      950      970     1000      129      960     1100   
                                          VAR    BASINP    GEOM    SYMINP    ZMAT    AOBASIS   BASIS     P2S    ABASIS      S 
                                         1400     1410     1200     1210     1080     1600     1650     1300     1700     1380   
                                           T        V       H0       H01     AOSYM     SMH    MOLCAS    ERIS     OPER     JKOP   

              2       5        5.42       700     1000      520     2100     2140   
                                         GEOM     BASIS   MCVARS     RHF     MCSCF   

 PROGRAMS   *        TOTAL     MULTI    HF-SCF       INT
 CPU TIMES  *         1.58      1.21      0.08      0.17
 REAL TIME  *         1.92 SEC
 DISK USED  *        39.02 MB
 **********************************************************************************************************************************
 Molecular orbitals read from record     2140.2  Type=MCSCF/NATURAL (state averaged)
 Occupation numbers read from record     2140.2  Type=MCSCF/NATURAL (state averaged)
 Orbital energies read from record       2140.2  Type=MCSCF/NATURAL (state averaged)
 Redundancy group numbers read from rec  2140.2  Type=MCSCF/NATURAL (state averaged)

 MULTI/6-31G* energy=    -77.397343561957

           MULTI          HF-SCF
    -77.39734356    -77.77702287
 **********************************************************************************************************************************
 Molpro calculation terminated
