
 Primary working directories    : /scratch.local/johan406.molpro_temp/molpro.mlPqb3xo1a
 Secondary working directories  : /scratch.local/johan406.molpro_temp/molpro.mlPqb3xo1a
 Wavefunction directory         : /home/goodpast/johan406/wfu/
 Main file repository           : /scratch.local/johan406.molpro_temp/molpro.mlPqb3xo1a/

 id        : roweumn

 Nodes     nprocs
 acn06        1

 Using customized tuning parameters: mindgm=1; mindgv=20; mindgc=4; mindgr=1; noblas=0; minvec=7
 default implementation of scratch files=df  


 Variables initialized (934), CPU time= 0.01 sec
                                                                                 !leave this line blank
 
 gprint, orbitals=30
 memory, 125., m
 symmetry, nosym
 nelect=16
 basis=6-31g*
 
 geometry={
 C -0.713 0.170 0.291
 C 0.722 -0.220 -0.351
 H -1.230 0.872 0.128
 H -1.262 -0.966 -0.064
 H 1.271 0.916 0.003
 H 1.239 -0.922 -0.189
 }
 
 hf
 {multi,
 closed 7
 occ 9
 wf,spin=0;STATE,3
 }
 
 Commands  initialized (763), CPU time= 0.01 sec, 617 directives.
 Default parameters read. Elapsed time= 0.07 sec

 Checking input...
 Passed
1


                                         ***  PROGRAM SYSTEM MOLPRO  ***
                                       Copyright, TTI GmbH Stuttgart, 2015
                                    Version 2019.2 linked Oct 25 2019 22:50:27


 **********************************************************************************************************************************
 LABEL *                                                                                 
  64 bit serial version                                                                  DATE: 15-Mar-23          TIME: 16:34:42  
 **********************************************************************************************************************************

 SHA1:             8dbd9ae1082e4ce945b0f27595c9eb2d4aa09004
 **********************************************************************************************************************************


 Variable memory set to  125000000 words,  buffer space 

 SETTING NELECT         =        16.00000000                                  
 SETTING BASIS          =    6-31G*
 ZSYMEL=NOSYM


Geometry recognized as XYZ



 Recomputing integrals since basis changed


 Using spherical harmonics

 Library entry C      S 6-31G                selected for orbital group  1
 Library entry C      P 6-31G                selected for orbital group  1
 Library entry C      D 6-31G*               selected for orbital group  1
 Library entry H      S 6-31G                selected for orbital group  2


 PROGRAM * SEWARD (Integral evaluation for generally contracted gaussian basis sets)     Author: Roland Lindh, 1990

 Geometry written to block  1 of record 700


 Point group  C1  



 ATOMIC COORDINATES

 NR  ATOM    CHARGE       X              Y              Z

   1  C       6.00   -1.347374727    0.321253441    0.549910302
   2  C       6.00    1.364382262   -0.415739747   -0.663293870
   3  H       1.00   -2.324363133    1.647841181    0.241884944
   4  H       1.00   -2.384834369   -1.825475436   -0.120942472
   5  H       1.00    2.401841904    1.730989130    0.005669178
   6  H       1.00    2.341370668   -1.742327487   -0.357158238

 Bond lengths in Bohr (Angstrom)

 1-2  3.060824936  1-3  1.676073089  1-4  2.476855028  2-5  2.476343866  2-6  1.675726828
     ( 1.619718803)     ( 0.886939682)     ( 1.310695235)     ( 1.310424740)     ( 0.886756449)

 Bond angles

  1-2-5   93.17363343   1-2-6  129.40051846   2-1-3  129.35767282   2-1-4   93.15562462

  3-1-4  113.08280722   5-2-6  113.12060969

 NUCLEAR CHARGE:                   16
 NUMBER OF PRIMITIVE AOS:          72
 NUMBER OF SYMMETRY AOS:           70
 NUMBER OF CONTRACTIONS:           36   (   36A   )
 NUMBER OF CORE ORBITALS:           2   (    2A   )
 NUMBER OF VALENCE ORBITALS:       12   (   12A   )


 NUCLEAR REPULSION ENERGY   30.84723844

 Eigenvalues of metric

         1 0.156E-01 0.161E-01 0.326E-01 0.839E-01 0.101E+00 0.174E+00 0.205E+00 0.260E+00


 Contracted 2-electron integrals neglected if value below      1.0D-11
 AO integral compression algorithm  1   Integral accuracy      1.0D-11

     1.311 MB (compressed) written to integral file ( 68.4%)


 NUMBER OF SORTED TWO-ELECTRON INTEGRALS:     222111.     BUFFER LENGTH:  32768
 NUMBER OF SEGMENTS:   1  SEGMENT LENGTH:     222111      RECORD LENGTH: 524288

 Memory used in sort:       0.78 MW

 SORT1 READ      284735. AND WROTE      212526. INTEGRALS IN      1 RECORDS. CPU TIME:     0.00 SEC, REAL TIME:     0.01 SEC
 SORT2 READ      212526. AND WROTE      222111. INTEGRALS IN      5 RECORDS. CPU TIME:     0.02 SEC, REAL TIME:     0.02 SEC

 FILE SIZES:   FILE 1:    31.4 MBYTE,  FILE 4:     4.2 MBYTE,   TOTAL:     35.6 MBYTE

 OPERATOR DM      FOR CENTER  0  COORDINATES:    0.000000    0.000000    0.000000


 **********************************************************************************************************************************
 DATASETS  * FILE   NREC   LENGTH (MB)   RECORD NAMES
              1      19       31.11       500      610      700      900      950      970     1000      129      960     1100   
                                          VAR    BASINP    GEOM    SYMINP    ZMAT    AOBASIS   BASIS     P2S    ABASIS      S 
                                         1400     1410     1200     1210     1080     1600     1650     1300     1700   
                                           T        V       H0       H01     AOSYM     SMH    MOLCAS    ERIS     OPER   

 PROGRAMS   *        TOTAL       INT
 CPU TIMES  *         0.29      0.17
 REAL TIME  *         0.43 SEC
 DISK USED  *        35.97 MB
 **********************************************************************************************************************************


 PROGRAM * RHF-SCF (CLOSED SHELL)       Authors: W. Meyer, H.-J. Werner


 NUMBER OF ELECTRONS:       8+    8-    SPACE SYMMETRY=1    SPIN SYMMETRY: Singlet 
 CONVERGENCE THRESHOLDS:    1.00E-05 (Density)    1.00E-07 (Energy)
 MAX. NUMBER OF ITERATIONS:       60
 INTERPOLATION TYPE:            DIIS
 INTERPOLATION STEPS:              2 (START)      1 (STEP)
 LEVEL SHIFTS:                  0.00 (CLOSED)  0.00 (OPEN) 



 Orbital guess generated from atomic densities. Full valence occupancy:    8

 Molecular orbital dump at record        2100.2

 Initial occupancy:   8

 ITERATION    DDIFF          GRAD             ENERGY        2-EL.EN.            DIPOLE MOMENTS         DIIS   ORB.
    1      0.000D+00      0.000D+00       -77.74648761    112.382000    0.00046    0.00003   -0.00083    0    start
    2      0.000D+00      0.723D-02       -77.76951730    111.505636    0.00068    0.00012   -0.00076    1    diag
    3      0.810D-02      0.255D-02       -77.77293842    111.838487    0.00086    0.00010   -0.00090    2    diag
    4      0.348D-02      0.938D-03       -77.77368627    111.703533    0.00087    0.00017   -0.00084    3    diag
    5      0.180D-02      0.426D-03       -77.77397704    111.712026    0.00103    0.00011   -0.00097    4    diag
    6      0.139D-02      0.155D-03       -77.77402771    111.712327    0.00084    0.00026   -0.00075    5    diag
    7      0.599D-03      0.454D-04       -77.77403182    111.713147    0.00122   -0.00001   -0.00116    6    diag
    8      0.157D-03      0.149D-04       -77.77403214    111.713413    0.00067    0.00038   -0.00058    7    diag
    9      0.421D-04      0.838D-05       -77.77403218    111.713439    0.00103    0.00012   -0.00096    8    diag
   10      0.122D-04      0.229D-05       -77.77403219    111.713403    0.00098    0.00016   -0.00091    9    orth
   11      0.557D-05      0.397D-06       -77.77403219    111.713402    0.00098    0.00016   -0.00091    0    orth

 Final occupancy:   8

 !RHF STATE  1.1 Energy               -77.774032188265
 Nuclear energy                        30.84723844
 One-electron energy                 -164.47797154
 Two-electron energy                   55.85670091
 Virial quotient                       -0.99960947
 !RHF STATE  1.1 Dipole moment          0.00098361     0.00015643    -0.00091071
 Dipole moment /Debye                   0.00249992     0.00039758    -0.00231465

 ELECTRON ORBITALS
 =================

  Orbital  Occupation    Energy     Coefficients
    1.1     2.00000   -11.28122     1 1s    0.65118     2 1s    0.75399
    2.1     2.00000   -11.28074     1 1s    0.75405     2 1s   -0.65125
    3.1     2.00000    -0.99269     1 1s    0.29037     2 1s    0.29065
    4.1     2.00000    -0.87080     1 1s    0.24981
    5.1     2.00000    -0.62293     1 2px   0.28118     1 2py  -0.25532     2 2px  -0.28098     2 2py   0.25600
    6.1     2.00000    -0.57576     1 2py   0.28524     2 2py   0.28482
    7.1     2.00000    -0.40945     1 2px   0.27546     2 2px  -0.27536     4 1s   -0.26985     5 1s   -0.26957
    8.1     2.00000    -0.34869     1 2pz   0.32020     1 2pz   0.30836     2 2pz   0.31999     2 2pz   0.30822
    9.1     0.00000     0.07412     1 1s   -0.30200     1 2pz  -0.35796     1 2pz  -0.50100     2 1s   -0.30167     2 2pz   0.35817
                                    2 2pz   0.50135
   10.1     0.00000     0.21853     1 1s   -0.96717     1 2px   0.49337     1 2py   0.36653     1 2pz   0.28152     2 1s   -0.96732
                                    2 2px  -0.49361     2 2py  -0.36621     2 2pz  -0.28085     3 1s    0.54691     4 1s    0.94603
                                    5 1s    0.94594     6 1s    0.54729
   11.1     0.00000     0.26405     1 1s    0.45984     1 2px  -0.32715     1 2py  -0.57017     2 1s   -0.46060     2 2px  -0.32743
                                    2 2py  -0.57067     4 1s   -1.17078     5 1s    1.17163
   12.1     0.00000     0.30476     1 1s   -2.00179     1 2pz   0.43389     2 1s    2.00239     2 2pz   0.43296     3 1s    1.47558
                                    6 1s   -1.47615
   13.1     0.00000     0.34152     1 1s   -1.56637     1 2px   0.47489     1 2py  -1.20444     1 2pz   0.25828     2 1s   -1.56533
                                    2 2px  -0.47623     2 2py   1.20539     2 2pz  -0.25688     3 1s    2.35395     4 1s   -0.36935
                                    5 1s   -0.37011     6 1s    2.35528
   14.1     0.00000     0.40231     1 1s   -0.30804     1 2px  -0.25286     1 2px  -1.52005     1 2py   0.86683     1 2pz   0.46629
                                    2 1s    0.30759     2 2px  -0.25278     2 2px  -1.51999     2 2py   0.86691     2 2pz   0.46724
                                    3 1s   -1.72772     6 1s    1.72823
   15.1     0.00000     0.66407     1 1s    0.31292     1 2px   0.25185     1 2py  -0.31737     1 2px  -1.15778     1 2py   0.98418
                                    2 1s   -0.31516     2 2px   0.25177     2 2py  -0.31721     2 2px  -1.15832     2 2py   0.98545
                                    3 1s   -0.43837     3 1s   -0.82737     6 1s    0.43854     6 1s    0.82936
   16.1     0.00000     0.76735     1 1s   -0.52759     1 2px  -0.60628     1 2px   0.96371     2 1s   -0.52744     2 2px   0.60667
                                    2 2px  -0.96497     3 1s    0.48553     6 1s    0.48630
   17.1     0.00000     0.79810     1 2pz   0.77698     1 2pz  -0.69304     2 2pz   0.77788     2 2pz  -0.69394
   18.1     0.00000     0.84043     1 1s   -0.26180     1 1s    0.51253     1 2pz  -0.71565     1 2py   0.53917     1 2pz   0.80789
                                    2 1s   -0.26168     2 1s    0.51347     2 2pz   0.71468     2 2py  -0.53922     2 2pz  -0.80710
                                    3 1s   -0.32673     6 1s   -0.32741
   19.1     0.00000     0.89808     1 1s    0.36156     1 1s   -0.86133     1 2px   0.64290     1 2py   0.27907     1 2px  -1.05710
                                    1 2py  -0.36532     2 1s   -0.36192     2 1s    0.84125     2 2px   0.64398     2 2py   0.26877
                                    2 2px  -1.06769     2 2py  -0.33293     4 1s   -0.33737     5 1s    0.33819
   20.1     0.00000     0.90678     1 1s   -1.05706     1 2py   0.62433     1 2px   0.65455     1 2py  -1.95897     1 2pz   0.49943
                                    2 1s   -1.07248     2 2py  -0.62875     2 2px  -0.63787     2 2py   1.96598     2 2pz  -0.50101
                                    3 1s    0.25961     3 1s    1.41405     4 1s   -0.39923     5 1s   -0.40296     6 1s    0.26012
                                    6 1s    1.41598
   21.1     0.00000     1.03761     1 1s    0.42254     1 1s   -0.78856     1 2py  -0.45040     1 2px   0.44926     1 2py   0.65302
                                    2 1s   -0.41276     2 1s    0.76924     2 2py  -0.44864     2 2px   0.44464     2 2py   0.65579
                                    4 1s   -0.68195     4 1s    1.30738     5 1s    0.68403     5 1s   -1.30426
   22.1     0.00000     1.04685     1 1s    0.95010     1 1s   -1.82112     1 2px   0.42249     1 2pz   0.57096     2 1s    0.95682
                                    2 1s   -1.83520     2 2px  -0.42202     2 2pz  -0.57279     3 1s    0.33243     3 1s    0.88074
                                    4 1s    0.46898     5 1s    0.46342     6 1s    0.33255     6 1s    0.87994
   23.1     0.00000     1.06066     1 1s   -0.69520     1 1s    1.67266     1 2px  -0.53400     1 2py   0.35996     2 1s   -0.69726
                                    2 1s    1.67700     2 2px   0.53495     2 2py  -0.35850     3 1s   -0.70153     4 1s    0.70493
                                    4 1s   -1.01355     5 1s    0.70651     5 1s   -1.01670     6 1s   -0.70247
   24.1     0.00000     1.28001     1 1s   -1.20646     1 1s    3.34706     1 2py   0.33987     1 2px   1.31544     1 2py  -0.85909
                                    1 2pz  -0.72972     2 1s    1.20326     2 1s   -3.33880     2 2py   0.34023     2 2px   1.31800
                                    2 2py  -0.86312     2 2pz  -0.72754     3 1s   -0.26807     4 1s   -0.44036     5 1s    0.43969
                                    6 1s    0.26723
   25.1     0.00000     1.41052     1 1s   -0.95788     1 1s    2.11414     1 2px   0.37172     1 2py  -0.43514     1 2px  -0.40411
                                    1 2py   0.60028     2 1s    0.95185     2 1s   -2.10417     2 2px   0.36983     2 2py  -0.43231
                                    2 2px  -0.40145     2 2py   0.59710     3 1s    0.59260     3 1s   -1.66267     6 1s   -0.58764
                                    6 1s    1.65338
   26.1     0.00000     1.44235     1 1s   -0.83564     1 1s    1.39660     1 2px   0.27995     1 2py  -0.44226     1 2px  -0.36698
                                    1 2py   0.49013     2 1s   -0.84269     2 1s    1.41263     2 2px  -0.28252     2 2py   0.44515
                                    2 2px   0.36895     2 2py  -0.49380     3 1s    0.75160     3 1s   -1.34352     6 1s    0.75542
                                    6 1s   -1.35456
   27.1     0.00000     1.70121     1 3d0  -0.25477     1 3d1+  0.32460     1 3d2+  0.38638     1 3d1- -0.28989     2 3d0   0.25509
                                    2 3d1+ -0.32448     2 3d2+ -0.38615     2 3d1-  0.29070
   28.1     0.00000     1.93978     1 3d2- -0.25031     1 3d1+  0.40560     1 3d1-  0.47594     2 3d1+ -0.40651     2 3d1- -0.47627
                                    3 1s   -0.25499     6 1s    0.25494
   29.1     0.00000     2.00092     1 1s   -0.32546     1 2px   0.36771     1 2py  -0.39988     1 3d2- -0.26235     1 3d2+  0.48387
                                    1 3d1-  0.39356     2 1s   -0.32390     2 2px  -0.36893     2 2py   0.40066     2 3d2- -0.26177
                                    2 3d2+  0.48441     2 3d1-  0.39432     3 1s    0.41063     6 1s    0.41135
   30.1     0.00000     2.01403     1 1s    0.38534     1 1s   -0.55774     1 3d0   0.46001     1 3d1+  0.48963     2 1s    0.38479
                                    2 1s   -0.55622     2 3d0   0.45881     2 3d1+  0.48919
   31.1     0.00000     2.21202     1 2py  -0.56979     1 3d0  -0.32308     1 3d1+  0.32905     1 3d1-  0.46997     2 2py   0.56990
                                    2 3d0  -0.32119     2 3d1+  0.32886     2 3d1-  0.46878     3 1s    0.30488     4 1s   -0.38301
                                    5 1s   -0.38208     6 1s    0.30540
   32.1     0.00000     2.24799     1 1s   -0.29672     1 1s    1.05027     1 2px   0.25446     1 2py  -0.25103     1 3d0  -0.58693
                                    1 3d2+ -0.28265     2 1s    0.29683     2 1s   -1.04965     2 2px   0.25461     2 2py  -0.25323
                                    2 3d0   0.58870     2 3d2+  0.28329     4 1s   -0.41692     5 1s    0.41862
   33.1     0.00000     2.40375     1 3d0  -0.32526     1 3d1+  0.30952     1 3d2+  0.46723     1 3d1- -0.36860     2 3d0  -0.32551
                                    2 3d1+  0.30995     2 3d2+  0.46653     2 3d1- -0.36955
   34.1     0.00000     2.62239     1 1s    0.29227     1 1s   -0.43353     1 2px  -0.26320     1 2py   0.27676     1 2px  -0.50595
                                    1 2py   0.37298     1 3d2- -0.53554     1 3d1+  0.25538     1 3d2+ -0.36710     1 3d1- -0.40888
                                    2 1s   -0.29211     2 1s    0.43341     2 2px  -0.26352     2 2py   0.27702     2 2px  -0.50596
                                    2 2py   0.37221     2 3d2-  0.53634     2 3d1+ -0.25426     2 3d2+  0.36798     2 3d1-  0.40681
                                    3 1s   -0.90191     6 1s    0.90183
   35.1     0.00000     2.84931     1 1s    1.56723     1 2px   0.84937     1 2py  -0.26509     1 2pz  -0.39431     1 3d0  -0.32846
                                    1 3d2- -0.48954     1 3d1+ -0.53477     1 3d2+  0.51189     2 1s   -1.56471     2 2px   0.85064
                                    2 2py  -0.26699     2 2pz  -0.39397     2 3d0   0.32670     2 3d2-  0.48628     2 3d1+  0.53633
                                    2 3d2+ -0.51270     3 1s   -0.30733     6 1s    0.30354
   36.1     0.00000     2.96286     1 1s   -0.43548     1 2px   0.25001     1 2py  -0.34361     1 3d0   0.39267     1 3d2-  0.73164
                                    1 3d1+ -0.28320     2 1s   -0.44084     2 2py   0.34316     2 3d0   0.39461     2 3d2-  0.73414
                                    2 3d1+ -0.28036     3 1s    0.95086     6 1s    0.95290


 HOMO      8.1    -0.348690 =      -9.4883eV
 LUMO      9.1     0.074121 =       2.0169eV
 LUMO-HOMO         0.422810 =      11.5053eV


 **********************************************************************************************************************************
 DATASETS  * FILE   NREC   LENGTH (MB)   RECORD NAMES
              1      19       31.11       500      610      700      900      950      970     1000      129      960     1100   
                                          VAR    BASINP    GEOM    SYMINP    ZMAT    AOBASIS   BASIS     P2S    ABASIS      S 
                                         1400     1410     1200     1210     1080     1600     1650     1300     1700   
                                           T        V       H0       H01     AOSYM     SMH    MOLCAS    ERIS     OPER   

              2       4        2.86       700     1000      520     2100   
                                         GEOM     BASIS   MCVARS     RHF  

 PROGRAMS   *        TOTAL    HF-SCF       INT
 CPU TIMES  *         0.39      0.10      0.17
 REAL TIME  *         0.57 SEC
 DISK USED  *        35.97 MB
 **********************************************************************************************************************************


 PROGRAM * MULTI (Direct Multiconfiguration SCF)       Authors: P.J. Knowles, H.-J. Werner (1984)


 Number of closed-shell orbitals:   7 (   7 )
 Number of active  orbitals:        2 (   2 )
 Number of external orbitals:      27 (  27 )

 State symmetry 1

 Number of electrons:     2    Spin symmetry=Singlet   Space symmetry=1
 Number of states:        3
 Number of CSFs:          3   (4 determinants, 4 intermediate states)

 Molecular orbitals read from record     2100.2  Type=RHF/CANONICAL (state 1.1)

 Wavefunction dump at record             2140.2

 Convergence thresholds  0.10E-01 (gradient)  0.10E-05 (energy)  0.10E-02 (step length)

 Weight factors for state symmetry  1:    0.33333   0.33333   0.33333

 Number of orbital rotations:      257   (    14 Core/Active    189 Core/Virtual   0 Active/Active     54 Active/Virtual)
 Total number of variables:        269

 Micro-Iterations solved by the two-step solver

 ITER. MIC  NCI  NEG     ENERGY(VAR)     ENERGY(PROJ)   ENERGY CHANGE     GRAD(0)  GRAD(ORB)   GRAD(CI)     STEP       TIME

   1   18    8    1     -77.56534736     -77.57671337   -0.01136601    0.09619261 0.00016548 0.00000000  0.25D+00      0.43
   2   12    6    0     -77.58579598     -77.59314746   -0.00735149    0.09158736 0.00047439 0.00000000  0.13D+00      0.60
   3   14    6    0     -77.59398569     -77.59482826   -0.00084257    0.01896924 0.00000359 0.00000000  0.88D-01      0.78
   4   18    7    0     -77.59492055     -77.59505609   -0.00013554    0.00700349 0.00000506 0.00000000  0.48D-01      0.96
   5   14    6    0     -77.59506541     -77.59507477   -0.00000937    0.00194339 0.00000750 0.00000000  0.12D-01      1.07
   6   11    6    0     -77.59507486     -77.59507488   -0.00000001    0.00008807 0.00000001 0.00000000  0.35D-03      1.17
   7    4    4    0     -77.59507488     -77.59507488   -0.00000000    0.00000005 0.00000000 0.00000000  0.32D-06      1.22

 ** WVFN ****  CONVERGENCE REACHED, FINAL GRADIENT:  0.13D-12



 Results for state 1.1
 =====================

 !MCSCF STATE  1.1 Energy             -77.767063980773
 Nuclear energy                        30.84723844
 Kinetic energy                        77.77711784
 One electron energy                 -164.40544692
 Two electron energy                   55.79114450
 Virial ratio                           1.99987074

 !MCSCF STATE  1.1 Dipole moment        0.00159514     0.00045807    -0.00060367
 Dipole moment /Debye                   0.00405418     0.00116423    -0.00153426

 Results for state 2.1
 =====================

 !MCSCF STATE  2.1 Energy             -77.622400314954
 Nuclear energy                        30.84723844
 Kinetic energy                        77.97639789
 One electron energy                 -164.37968996
 Two electron energy                   55.91005120
 Virial ratio                           1.99546020

 !MCSCF STATE  2.1 Dipole moment       -0.00003246     0.00065582    -0.00110367
 Dipole moment /Debye                  -0.00008251     0.00166683    -0.00280507

 Results for state 3.1
 =====================

 !MCSCF STATE  3.1 Energy             -77.395760336623
 Nuclear energy                        30.84723844
 Kinetic energy                        78.17555466
 One electron energy                 -164.38707835
 Two electron energy                   56.14407957
 Virial ratio                           1.99002509

 !MCSCF STATE  3.1 Dipole moment       -0.00011058     0.00057122    -0.00284409
 Dipole moment /Debye                  -0.00028106     0.00145180    -0.00722848

 State-averaged charge density matrix saved on record  2140.2 (density set 1)

 !MCSCF expec         <1.1|DMX|1.1>     0.001595140837 au =     0.004054178048 Debye
 !MCSCF trans         <2.1|DMX|1.1>    -0.009048492595 au =    -0.022997467811 Debye
 !MCSCF expec         <2.1|DMX|2.1>    -0.000032464704 au =    -0.000082511643 Debye
 !MCSCF trans         <3.1|DMX|1.1>     0.000313067423 au =     0.000795685902 Debye
 !MCSCF trans         <3.1|DMX|2.1>    -0.009667694168 au =    -0.024571218145 Debye
 !MCSCF expec         <3.1|DMX|3.1>    -0.000110584412 au =    -0.000281059129 Debye

 !MCSCF expec         <1.1|DMY|1.1>     0.000458073668 au =     0.001164230872 Debye
 !MCSCF trans         <2.1|DMY|1.1>     0.001650250769 au =     0.004194244349 Debye
 !MCSCF expec         <2.1|DMY|2.1>     0.000655822723 au =     0.001666825916 Debye
 !MCSCF trans         <3.1|DMY|1.1>    -0.000050755604 au =    -0.000128999429 Debye
 !MCSCF trans         <3.1|DMY|2.1>     0.001760354328 au =     0.004474081353 Debye
 !MCSCF expec         <3.1|DMY|3.1>     0.000571219936 au =     0.001451801164 Debye

 !MCSCF expec         <1.1|DMZ|1.1>    -0.000603665478 au =    -0.001534264106 Debye
 !MCSCF trans         <2.1|DMZ|1.1>     0.007269276730 au =     0.018475448351 Debye
 !MCSCF expec         <2.1|DMZ|2.1>    -0.001103672775 au =    -0.002805072651 Debye
 !MCSCF trans         <3.1|DMZ|1.1>    -0.000135836002 au =    -0.000345238066 Debye
 !MCSCF trans         <3.1|DMZ|2.1>     0.007715182318 au =     0.019608753075 Debye
 !MCSCF expec         <3.1|DMZ|3.1>    -0.002844090539 au =    -0.007228483633 Debye


 NATURAL ORBITALS (state averaged)
 =================================

  Orbital  Occupation    Energy     Coefficients
    1.1     2.00000   -11.25909     1 1s    0.59653     2 1s    0.79787
    2.1     2.00000   -11.25871     1 1s    0.79790     2 1s   -0.59656
    3.1     2.00000    -0.98553     1 1s    0.28330     2 1s    0.28335
    4.1     2.00000    -0.85614     2 1s   -0.24728
    5.1     2.00000    -0.61193     1 2py  -0.28242     2 2py   0.28346
    6.1     2.00000    -0.57241     1 2py   0.27684     2 2py   0.27585
    7.1     2.00000    -0.37342     1 2pz   0.34087     1 2pz   0.30851     2 2pz   0.34113     2 2pz   0.30840
    8.1     1.00000    -0.07618     1 2pz  -0.42520     1 2pz  -0.44702     2 2pz   0.42581     2 2pz   0.44741
    9.1     1.00000    -0.26085     1 2px  -0.31440     2 2px   0.31573     4 1s    0.26972     5 1s    0.27006
   10.1    -0.00000     0.21063     1 1s   -0.96547     1 2px   0.49939     1 2py   0.39315     2 1s   -0.96430     2 2px  -0.49958
                                    2 2py  -0.39278     3 1s    0.50681     4 1s    0.95607     5 1s    0.95540     6 1s    0.50633
   11.1    -0.00000     0.25392     1 1s    0.83952     1 2py  -0.58138     2 1s   -0.84002     2 2py  -0.58247     4 1s   -1.21235
                                    5 1s    1.21382
   12.1    -0.00000     0.30978     1 1s   -1.88647     1 2px  -0.29500     1 2py  -0.36376     1 2pz   0.38619     2 1s    1.88651
                                    2 2px  -0.29498     2 2py  -0.36325     2 2pz   0.38453     3 1s    1.48431     6 1s   -1.48347
   13.1    -0.00000     0.34880     1 1s   -1.60715     1 2px   0.48676     1 2py  -1.20376     2 1s   -1.60797     2 2px  -0.48777
                                    2 2py   1.20468     3 1s    2.37541     4 1s   -0.34144     5 1s   -0.34170     6 1s    2.37754
   14.1    -0.00000     0.40980     1 2px  -0.26123     1 2px  -1.55093     1 2py   0.81894     1 2pz   0.43651     2 2px  -0.26106
                                    2 2px  -1.55115     2 2py   0.81948     2 2pz   0.43648     3 1s   -1.73797     6 1s    1.73917
   15.1    -0.00000     0.67010     1 1s    0.28018     1 2py  -0.32055     1 2px  -1.15376     1 2py   0.98437     2 1s   -0.28177
                                    2 2py  -0.32059     2 2px  -1.15444     2 2py   0.98582     3 1s   -0.43980     3 1s   -0.80798
                                    6 1s    0.43995     6 1s    0.80970
   16.1    -0.00000     0.77069     1 1s   -0.50600     1 2px  -0.58694     1 2px   0.94226     2 1s   -0.50438     2 2px   0.58757
                                    2 2px  -0.94392     3 1s    0.50103     4 1s   -0.27690     5 1s   -0.27700     6 1s    0.50124
   17.1    -0.00000     0.80014     1 1s    0.26555     1 2pz   0.77026     1 2pz  -0.73681     2 1s   -0.26515     2 2pz   0.77173
                                    2 2pz  -0.73944
   18.1    -0.00000     0.84407     1 1s    0.32856     1 2pz  -0.68692     1 2px   0.26018     1 2py   0.42763     1 2pz   0.88529
                                    2 1s    0.33066     2 2pz   0.68444     2 2px  -0.26034     2 2py  -0.42720     2 2pz  -0.88300
   19.1    -0.00000     0.90160     1 1s    0.39769     1 1s   -0.86777     1 2px   0.59905     1 2px  -0.88797     1 2py  -0.28051
                                    2 1s   -0.39786     2 1s    0.85438     2 2px   0.59897     2 2px  -0.89430     2 2py  -0.25810
                                    4 1s   -0.46069     5 1s    0.46181
   20.1    -0.00000     0.91387     1 1s   -1.00513     1 2py   0.64214     1 2px   0.59928     1 2py  -1.95796     1 2pz   0.47560
                                    2 1s   -1.01611     2 2py  -0.64466     2 2px  -0.58919     2 2py   1.96234     2 2pz  -0.47561
                                    3 1s    0.25437     3 1s    1.38780     4 1s   -0.44972     5 1s   -0.45048     6 1s    0.25452
                                    6 1s    1.38970
   21.1    -0.00000     1.01157     1 1s    0.31827     1 1s   -0.52157     1 2px  -0.33767     1 2py  -0.48413     1 2px   0.65926
                                    1 2py   0.66647     2 1s   -0.31402     2 1s    0.51506     2 2px  -0.33918     2 2py  -0.48326
                                    2 2px   0.65855     2 2py   0.66622     4 1s   -0.63116     4 1s    1.30065     5 1s    0.63465
                                    5 1s   -1.30163
   22.1    -0.00000     1.02268     1 2px   0.28809     1 2pz   0.25949     2 2px  -0.28717     2 2pz  -0.26068     4 1s    0.81787
                                    4 1s   -0.62646     5 1s    0.81456     5 1s   -0.61961
   23.1    -0.00000     1.05146     1 1s   -1.16558     1 1s    2.51659     1 2px  -0.70229     1 2py   0.49030     1 2pz  -0.52595
                                    2 1s   -1.16901     2 1s    2.52411     2 2px   0.70168     2 2py  -0.48788     2 2pz   0.52628
                                    3 1s   -0.36565     3 1s   -1.16327     4 1s   -0.74957     5 1s   -0.75310     6 1s   -0.36588
                                    6 1s   -1.16366
   24.1    -0.00000     1.27642     1 1s   -1.23106     1 1s    3.39222     1 2py   0.34419     1 2px   1.32371     1 2py  -0.87063
                                    1 2pz  -0.72827     2 1s    1.22802     2 1s   -3.38439     2 2py   0.34460     2 2px   1.32602
                                    2 2py  -0.87454     2 2pz  -0.72651     3 1s   -0.26862     4 1s   -0.41106     5 1s    0.41046
                                    6 1s    0.26782
   25.1    -0.00000     1.42224     1 1s   -0.95404     1 1s    2.10017     1 2px   0.37755     1 2py  -0.43031     1 2px  -0.41355
                                    1 2py   0.60267     2 1s    0.94740     2 1s   -2.08936     2 2px   0.37547     2 2py  -0.42699
                                    2 2px  -0.41076     2 2py   0.59909     3 1s    0.58545     3 1s   -1.65888     6 1s   -0.57979
                                    6 1s    1.64865
   26.1    -0.00000     1.45506     1 1s   -0.84299     1 1s    1.40160     1 2px   0.27630     1 2py  -0.44098     1 2px  -0.36524
                                    1 2py   0.48855     2 1s   -0.85082     2 1s    1.41926     2 2px  -0.27926     2 2py   0.44402
                                    2 2px   0.36781     2 2py  -0.49266     3 1s    0.74752     3 1s   -1.33862     6 1s    0.75170
                                    6 1s   -1.35102
   27.1    -0.00000     1.70341     1 3d0  -0.25625     1 3d1+  0.32377     1 3d2+  0.38656     1 3d1- -0.28896     2 3d0   0.25653
                                    2 3d1+ -0.32373     2 3d2+ -0.38650     2 3d1-  0.28967
   28.1    -0.00000     1.94624     1 3d1+  0.40644     1 3d1-  0.47380     2 3d1+ -0.40742     2 3d1- -0.47403     3 1s   -0.25840
                                    6 1s    0.25828
   29.1    -0.00000     2.00153     1 1s   -0.36466     1 2px   0.36844     1 2py  -0.38431     1 3d2- -0.27194     1 3d2+  0.49242
                                    1 3d1-  0.37405     2 1s   -0.36332     2 2px  -0.36953     2 2py   0.38496     2 3d2- -0.27153
                                    2 3d2+  0.49286     2 3d1-  0.37486     3 1s    0.42068     6 1s    0.42133
   30.1    -0.00000     2.02467     1 1s    0.39499     1 1s   -0.52396     1 3d0   0.45287     1 3d1+  0.48996     2 1s    0.39454
                                    2 1s   -0.52294     2 3d0   0.45190     2 3d1+  0.48946
   31.1    -0.00000     2.21207     1 2py  -0.58852     1 3d0  -0.31586     1 3d1+  0.32255     1 3d1-  0.48809     2 2py   0.58878
                                    2 3d0  -0.31428     2 3d1+  0.32225     2 3d1-  0.48710     3 1s    0.31908     4 1s   -0.36931
                                    5 1s   -0.36863     6 1s    0.31947
   32.1    -0.00000     2.25040     1 1s   -0.29927     1 1s    1.02870     1 3d0  -0.58158     1 3d2+ -0.28664     2 1s    0.29943
                                    2 1s   -1.02807     2 2py  -0.25106     2 3d0   0.58280     2 3d2+  0.28731     4 1s   -0.40644
                                    5 1s    0.40791
   33.1    -0.00000     2.40636     1 3d0  -0.32462     1 3d2-  0.25144     1 3d1+  0.31304     1 3d2+  0.46366     1 3d1- -0.36508
                                    2 3d0  -0.32518     2 3d2-  0.25001     2 3d1+  0.31317     2 3d2+  0.46298     2 3d1- -0.36581
   34.1    -0.00000     2.62582     1 1s    0.29634     1 1s   -0.43922     1 2px  -0.26436     1 2py   0.27966     1 2px  -0.50677
                                    1 2py   0.36952     1 3d2- -0.53022     1 3d1+  0.25723     1 3d2+ -0.36949     1 3d1- -0.40886
                                    2 1s   -0.29628     2 1s    0.43916     2 2px  -0.26471     2 2py   0.28006     2 2px  -0.50678
                                    2 2py   0.36874     2 3d2-  0.53100     2 3d1+ -0.25634     2 3d2+  0.37028     2 3d1-  0.40688
                                    3 1s   -0.90583     6 1s    0.90595
   35.1    -0.00000     2.85287     1 1s    1.58876     1 2px   0.85666     1 2py  -0.27015     1 2pz  -0.39869     1 3d0  -0.33712
                                    1 3d2- -0.48816     1 3d1+ -0.53560     1 3d2+  0.50664     2 1s   -1.58662     2 2px   0.85766
                                    2 2py  -0.27179     2 2pz  -0.39847     2 3d0   0.33566     2 3d2-  0.48567     2 3d1+  0.53695
                                    2 3d2+ -0.50714     3 1s   -0.31453     6 1s    0.31171
   36.1    -0.00000     2.96951     1 1s   -0.43325     1 2py  -0.34142     1 3d0   0.39937     1 3d2-  0.72710     1 3d1+ -0.28582
                                    2 1s   -0.43732     2 2py   0.34110     2 3d0   0.40104     2 3d2-  0.72903     2 3d1+ -0.28348
                                    3 1s    0.95336     6 1s    0.95505


 Natural orbital dump (state averaged) at molpro section  2140.2    (Orbital set 2)



 **********************************************************************************************************************************
 DATASETS  * FILE   NREC   LENGTH (MB)   RECORD NAMES
              1      20       31.84       500      610      700      900      950      970     1000      129      960     1100   
                                          VAR    BASINP    GEOM    SYMINP    ZMAT    AOBASIS   BASIS     P2S    ABASIS      S 
                                         1400     1410     1200     1210     1080     1600     1650     1300     1700     1380   
                                           T        V       H0       H01     AOSYM     SMH    MOLCAS    ERIS     OPER     JKOP   

              2       5        5.42       700     1000      520     2100     2140   
                                         GEOM     BASIS   MCVARS     RHF     MCSCF   

 PROGRAMS   *        TOTAL     MULTI    HF-SCF       INT
 CPU TIMES  *         1.65      1.26      0.10      0.17
 REAL TIME  *         1.92 SEC
 DISK USED  *        39.02 MB
 **********************************************************************************************************************************
 Molecular orbitals read from record     2140.2  Type=MCSCF/NATURAL (state averaged)
 Occupation numbers read from record     2140.2  Type=MCSCF/NATURAL (state averaged)
 Orbital energies read from record       2140.2  Type=MCSCF/NATURAL (state averaged)
 Redundancy group numbers read from rec  2140.2  Type=MCSCF/NATURAL (state averaged)

 MULTI/6-31G* energy=    -77.395760336623

           MULTI          HF-SCF
    -77.39576034    -77.77403219
 **********************************************************************************************************************************
 Molpro calculation terminated
