
 Primary working directories    : /scratch.local/johan406.molpro_temp/molpro.5xHUph4zks
 Secondary working directories  : /scratch.local/johan406.molpro_temp/molpro.5xHUph4zks
 Wavefunction directory         : /home/goodpast/johan406/wfu/
 Main file repository           : /scratch.local/johan406.molpro_temp/molpro.5xHUph4zks/

 id        : roweumn

 Nodes     nprocs
 acn06        1

 Using customized tuning parameters: mindgm=1; mindgv=20; mindgc=4; mindgr=1; noblas=0; minvec=7
 default implementation of scratch files=df  


 Variables initialized (934), CPU time= 0.00 sec
                                                                                 !leave this line blank
 
 gprint, orbitals=30
 memory, 125., m
 symmetry, nosym
 nelect=16
 basis=6-31g*
 
 geometry={
 C -0.736 0.169 0.295
 C 0.745 -0.219 -0.355
 H -1.348 0.899 0.149
 H -1.299 -0.887 -0.030
 H 1.309 0.837 -0.031
 H 1.357 -0.949 -0.209
 }
 
 hf
 {multi,
 closed 7
 occ 9
 wf,spin=0;STATE,3
 }
 
 Commands  initialized (763), CPU time= 0.01 sec, 617 directives.
 Default parameters read. Elapsed time= 0.05 sec

 Checking input...
 Passed
1


                                         ***  PROGRAM SYSTEM MOLPRO  ***
                                       Copyright, TTI GmbH Stuttgart, 2015
                                    Version 2019.2 linked Oct 25 2019 22:50:27


 **********************************************************************************************************************************
 LABEL *                                                                                 
  64 bit serial version                                                                  DATE: 15-Mar-23          TIME: 16:36:07  
 **********************************************************************************************************************************

 SHA1:             8dbd9ae1082e4ce945b0f27595c9eb2d4aa09004
 **********************************************************************************************************************************


 Variable memory set to  125000000 words,  buffer space 

 SETTING NELECT         =        16.00000000                                  
 SETTING BASIS          =    6-31G*
 ZSYMEL=NOSYM


Geometry recognized as XYZ



 Recomputing integrals since basis changed


 Using spherical harmonics

 Library entry C      S 6-31G                selected for orbital group  1
 Library entry C      P 6-31G                selected for orbital group  1
 Library entry C      D 6-31G*               selected for orbital group  1
 Library entry H      S 6-31G                selected for orbital group  2


 PROGRAM * SEWARD (Integral evaluation for generally contracted gaussian basis sets)     Author: Roland Lindh, 1990

 Geometry written to block  1 of record 700


 Point group  C1  



 ATOMIC COORDINATES

 NR  ATOM    CHARGE       X              Y              Z

   1  C       6.00   -1.390838428    0.319363715    0.557469207
   2  C       6.00    1.407845963   -0.413850021   -0.670852774
   3  H       1.00   -2.547350816    1.698863786    0.281569193
   4  H       1.00   -2.454754236   -1.676187072   -0.056691784
   5  H       1.00    2.473651497    1.581700766   -0.058581510
   6  H       1.00    2.564358351   -1.793350092   -0.394952760

 Bond lengths in Bohr (Angstrom)

 1-2  3.143089498  1-3  1.821170549  1-4  2.343359451  2-5  2.343723636  2-6  1.821170549
     ( 1.663251334)     ( 0.963721952)     ( 1.240052418)     ( 1.240245137)     ( 0.963721952)

 Bond angles

  1-2-5   95.98130434   1-2-6  133.07476375   2-1-3  133.07476375   2-1-4   95.92271823

  3-1-4  108.48352337   5-2-6  108.45699610

 NUCLEAR CHARGE:                   16
 NUMBER OF PRIMITIVE AOS:          72
 NUMBER OF SYMMETRY AOS:           70
 NUMBER OF CONTRACTIONS:           36   (   36A   )
 NUMBER OF CORE ORBITALS:           2   (    2A   )
 NUMBER OF VALENCE ORBITALS:       12   (   12A   )


 NUCLEAR REPULSION ENERGY   30.01683624

 Eigenvalues of metric

         1 0.174E-01 0.204E-01 0.390E-01 0.747E-01 0.939E-01 0.212E+00 0.258E+00 0.259E+00


 Contracted 2-electron integrals neglected if value below      1.0D-11
 AO integral compression algorithm  1   Integral accuracy      1.0D-11

     1.311 MB (compressed) written to integral file ( 67.7%)


 NUMBER OF SORTED TWO-ELECTRON INTEGRALS:     222111.     BUFFER LENGTH:  32768
 NUMBER OF SEGMENTS:   1  SEGMENT LENGTH:     222111      RECORD LENGTH: 524288

 Memory used in sort:       0.78 MW

 SORT1 READ      284735. AND WROTE      212518. INTEGRALS IN      1 RECORDS. CPU TIME:     0.00 SEC, REAL TIME:     0.01 SEC
 SORT2 READ      212518. AND WROTE      222111. INTEGRALS IN      5 RECORDS. CPU TIME:     0.02 SEC, REAL TIME:     0.02 SEC

 FILE SIZES:   FILE 1:    31.4 MBYTE,  FILE 4:     4.2 MBYTE,   TOTAL:     35.6 MBYTE

 OPERATOR DM      FOR CENTER  0  COORDINATES:    0.000000    0.000000    0.000000


 **********************************************************************************************************************************
 DATASETS  * FILE   NREC   LENGTH (MB)   RECORD NAMES
              1      19       31.10       500      610      700      900      950      970     1000      129      960     1100   
                                          VAR    BASINP    GEOM    SYMINP    ZMAT    AOBASIS   BASIS     P2S    ABASIS      S 
                                         1400     1410     1200     1210     1080     1600     1650     1300     1700   
                                           T        V       H0       H01     AOSYM     SMH    MOLCAS    ERIS     OPER   

 PROGRAMS   *        TOTAL       INT
 CPU TIMES  *         0.26      0.16
 REAL TIME  *         0.46 SEC
 DISK USED  *        35.97 MB
 **********************************************************************************************************************************


 PROGRAM * RHF-SCF (CLOSED SHELL)       Authors: W. Meyer, H.-J. Werner


 NUMBER OF ELECTRONS:       8+    8-    SPACE SYMMETRY=1    SPIN SYMMETRY: Singlet 
 CONVERGENCE THRESHOLDS:    1.00E-05 (Density)    1.00E-07 (Energy)
 MAX. NUMBER OF ITERATIONS:       60
 INTERPOLATION TYPE:            DIIS
 INTERPOLATION STEPS:              2 (START)      1 (STEP)
 LEVEL SHIFTS:                  0.00 (CLOSED)  0.00 (OPEN) 



 Orbital guess generated from atomic densities. Full valence occupancy:    8

 Molecular orbital dump at record        2100.2

 Initial occupancy:   8

 ITERATION    DDIFF          GRAD             ENERGY        2-EL.EN.            DIPOLE MOMENTS         DIIS   ORB.
    1      0.000D+00      0.000D+00       -77.81203385    110.785804    0.00050   -0.00022   -0.00060    0    start
    2      0.000D+00      0.674D-02       -77.83250561    110.219913   -0.00005    0.00002   -0.00008    1    diag
    3      0.734D-02      0.232D-02       -77.83595282    110.485509    0.00040   -0.00027   -0.00055    2    diag
    4      0.366D-02      0.895D-03       -77.83670141    110.371983   -0.00010    0.00001   -0.00006    3    diag
    5      0.170D-02      0.478D-03       -77.83710847    110.387196    0.00062   -0.00043   -0.00077    4    diag
    6      0.179D-02      0.150D-03       -77.83715324    110.386302   -0.00088    0.00049    0.00072    5    diag
    7      0.579D-03      0.426D-04       -77.83715546    110.386898    0.00107   -0.00071   -0.00122    6    diag
    8      0.964D-04      0.262D-04       -77.83715600    110.387256    0.00001   -0.00006   -0.00017    7    diag
    9      0.455D-04      0.728D-05       -77.83715607    110.387277    0.00012   -0.00013   -0.00028    8    diag
   10      0.205D-04      0.163D-05       -77.83715608    110.387256    0.00012   -0.00013   -0.00028    9    orth
   11      0.440D-05      0.230D-06       -77.83715608    110.387254    0.00012   -0.00013   -0.00028    0    orth

 Final occupancy:   8

 !RHF STATE  1.1 Energy               -77.837156075214
 Nuclear energy                        30.01683624
 One-electron energy                 -163.04761938
 Two-electron energy                   55.19362707
 Virial quotient                       -1.00368701
 !RHF STATE  1.1 Dipole moment          0.00011921    -0.00012888    -0.00027708
 Dipole moment /Debye                   0.00030297    -0.00032755    -0.00070422

 ELECTRON ORBITALS
 =================

  Orbital  Occupation    Energy     Coefficients
    1.1     2.00000   -11.28309     1 1s    0.66872     2 1s    0.73853
    2.1     2.00000   -11.28269     1 1s   -0.73859     2 1s    0.66879
    3.1     2.00000    -0.97070     1 1s    0.28808     1 1s    0.26125     2 1s    0.28809     2 1s    0.26125
    4.1     2.00000    -0.84893     1 1s    0.25138     2 1s   -0.25137
    5.1     2.00000    -0.60244     1 2px  -0.27292     2 2px   0.27309
    6.1     2.00000    -0.57769     1 2py   0.29950     2 2py   0.30051
    7.1     2.00000    -0.42563     1 2px   0.27396     2 2px  -0.27388
    8.1     2.00000    -0.33901     1 2pz   0.31475     1 2pz   0.31125     2 2pz   0.31470     2 2pz   0.31122
    9.1     0.00000     0.07504     1 1s    0.27979     1 2pz   0.35814     1 2pz   0.50412     2 1s    0.27989     2 2pz  -0.35819
                                    2 2pz  -0.50416
   10.1     0.00000     0.23756     1 1s   -1.08578     1 2px   0.54500     1 2py   0.37224     1 2pz   0.27817     2 1s   -1.08671
                                    2 2px  -0.54529     2 2py  -0.37207     2 2pz  -0.27787     3 1s    0.61318     4 1s    1.05876
                                    5 1s    1.05924     6 1s    0.61389
   11.1     0.00000     0.27100     1 1s    1.40588     1 2px   0.28452     1 2py   0.39598     1 2pz  -0.32333     2 1s   -1.40531
                                    2 2px   0.28480     2 2py   0.39602     2 2pz  -0.32337     3 1s   -1.18388     6 1s    1.18350
   12.1     0.00000     0.28591     1 1s   -1.13055     1 2px   0.28269     1 2py   0.49701     2 1s    1.12974     2 2px   0.28289
                                    2 2py   0.49689     3 1s    0.34302     4 1s    1.29316     5 1s   -1.29223     6 1s   -0.34269
   13.1     0.00000     0.34004     1 1s   -1.19857     1 2px   0.42000     1 2py  -1.10540     2 1s   -1.19867     2 2px  -0.42044
                                    2 2py   1.10560     3 1s    2.01528     4 1s   -0.44543     5 1s   -0.44549     6 1s    2.01593
   14.1     0.00000     0.39320     1 1s    0.34664     1 2px   0.25590     1 2px   1.47642     1 2py  -0.78781     1 2pz  -0.46261
                                    2 1s   -0.34684     2 2px   0.25581     2 2px   1.47616     2 2py  -0.78730     2 2pz  -0.46267
                                    3 1s    1.58906     6 1s   -1.58821
   15.1     0.00000     0.67440     1 2py  -0.35519     1 2px  -1.18030     1 2py   0.89050     2 2py  -0.35532     2 2px  -1.18041
                                    2 2py   0.89039     3 1s   -0.44340     3 1s   -0.54781     6 1s    0.44337     6 1s    0.54763
   16.1     0.00000     0.77888     1 1s   -0.33606     1 2px  -0.59091     1 2py  -0.30738     1 2px   0.87559     1 2py   0.37727
                                    2 1s   -0.33522     2 2px   0.59018     2 2py   0.30693     2 2px  -0.87556     2 2py  -0.37669
                                    3 1s    0.26353     6 1s    0.26357
   17.1     0.00000     0.80172     1 2pz   0.78051     1 2pz  -0.69023     2 2pz   0.78031     2 2pz  -0.69018
   18.1     0.00000     0.84149     1 1s   -0.28263     1 1s    0.47382     1 2pz  -0.74247     1 2py   0.37174     1 2pz   0.84129
                                    2 1s   -0.28225     2 1s    0.47331     2 2pz   0.74245     2 2py  -0.37126     2 2pz  -0.84128
   19.1     0.00000     0.86980     1 1s   -0.31181     1 1s    0.62753     1 2px  -0.62574     1 2px   1.14660     1 2py   0.27309
                                    2 1s    0.31196     2 1s   -0.62674     2 2px  -0.62682     2 2px   1.14889     2 2py   0.27359
                                    4 1s    0.36252     5 1s   -0.36350
   20.1     0.00000     0.95693     1 1s    0.25439     1 1s    0.67304     1 2px   0.27968     1 2py  -0.63169     1 2px  -0.71925
                                    1 2py   1.81448     1 2pz  -0.26816     2 1s    0.25389     2 1s    0.67454     2 2px  -0.27945
                                    2 2py   0.63145     2 2px   0.71804     2 2py  -1.81369     2 2pz   0.26890     3 1s   -1.18451
                                    4 1s    0.42690     5 1s    0.42647     6 1s   -1.18410
   21.1     0.00000     1.03978     1 1s    0.88863     1 1s   -1.82306     1 2px   0.58021     1 2py  -0.42313     1 2pz   0.60242
                                    2 1s    0.88949     2 1s   -1.82393     2 2px  -0.58060     2 2py   0.42385     2 2pz  -0.60207
                                    3 1s    0.41830     3 1s    0.85215     4 1s    0.46385     5 1s    0.46297     6 1s    0.41846
                                    6 1s    0.85285
   22.1     0.00000     1.07517     1 1s    0.39649     1 1s   -0.74877     1 2px  -0.25076     1 2py  -0.48346     1 2px   0.46353
                                    1 2py   0.69201     2 1s   -0.41043     2 1s    0.78025     2 2px  -0.25626     2 2py  -0.48895
                                    2 2px   0.47548     2 2py   0.69016     4 1s   -0.66633     4 1s    1.32234     5 1s    0.68312
                                    5 1s   -1.34726
   23.1     0.00000     1.08126     1 1s   -0.63175     1 1s    1.44237     1 2px  -0.53420     2 1s   -0.62245     2 1s    1.42511
                                    2 2px   0.52263     3 1s   -0.41014     4 1s    0.70041     4 1s   -1.06980     5 1s    0.68412
                                    5 1s   -1.03808     6 1s   -0.41143
   24.1     0.00000     1.25281     1 1s    1.01689     1 1s   -2.78129     1 2px   0.28066     1 2py  -0.37427     1 2px  -1.26261
                                    1 2py   0.89512     1 2pz   0.62492     2 1s   -1.01716     2 1s    2.78148     2 2px   0.28011
                                    2 2py  -0.37441     2 2px  -1.26180     2 2py   0.89608     2 2pz   0.62467     3 1s    0.41103
                                    3 1s   -0.49131     4 1s    0.38953     4 1s    0.26519     5 1s   -0.38984     5 1s   -0.26505
                                    6 1s   -0.41030     6 1s    0.49094
   25.1     0.00000     1.31751     1 1s   -0.90059     1 1s    1.47934     1 2px   0.26994     1 2py  -0.37057     1 2px  -0.40984
                                    1 2py   0.42317     2 1s   -0.90404     2 1s    1.48632     2 2px  -0.27136     2 2py   0.37200
                                    2 2px   0.41146     2 2py  -0.42508     3 1s    0.72014     3 1s   -1.30848     6 1s    0.72234
                                    6 1s   -1.31394
   26.1     0.00000     1.32816     1 1s   -1.14589     1 1s    2.50599     1 2px   0.34142     1 2py  -0.34280     1 2py   0.33419
                                    1 2pz  -0.32668     2 1s    1.14251     2 1s   -2.50035     2 2px   0.34057     2 2py  -0.34136
                                    2 2py   0.33227     2 2pz  -0.32591     3 1s    0.53974     3 1s   -1.41884     6 1s   -0.53725
                                    6 1s    1.41394
   27.1     0.00000     1.72401     1 1s   -0.28551     1 3d1+ -0.33101     1 3d2+ -0.39572     1 3d1-  0.30777     2 1s    0.28570
                                    2 3d1+  0.33105     2 3d2+  0.39618     2 3d1- -0.30793
   28.1     0.00000     1.94929     1 3d1+  0.41636     1 3d1-  0.47876     2 3d1+ -0.41614     2 3d1- -0.47911
   29.1     0.00000     1.96684     1 1s   -0.28129     1 2px   0.32414     1 2py  -0.35056     1 3d2+  0.44013     1 3d1-  0.41784
                                    2 1s   -0.28114     2 2px  -0.32413     2 2py   0.35031     2 3d2+  0.43989     2 3d1-  0.41821
                                    3 1s    0.30204     6 1s    0.30204
   30.1     0.00000     2.00437     1 1s    0.27066     1 1s   -0.57049     1 3d0   0.41119     1 3d1+  0.48786     2 1s    0.27071
                                    2 1s   -0.57036     2 3d0   0.41088     2 3d1+  0.48808     3 1s    0.26850     6 1s    0.26857
   31.1     0.00000     2.25992     1 2py   0.45600     1 3d0   0.39979     1 3d2- -0.27944     1 3d1+ -0.28638     1 3d1- -0.39129
                                    2 2py  -0.45694     2 3d0   0.40463     2 3d2- -0.28067     2 3d1+ -0.28603     2 3d1- -0.39165
                                    4 1s    0.45448     5 1s    0.45728
   32.1     0.00000     2.27533     1 1s    0.27494     1 1s   -0.96168     1 3d0   0.63905     1 3d2+  0.31725     2 1s   -0.27466
                                    2 1s    0.96224     2 3d0  -0.63526     2 3d2+ -0.31776     3 1s    0.36968     4 1s    0.39742
                                    5 1s   -0.39472     6 1s   -0.37071
   33.1     0.00000     2.35954     1 3d0  -0.28319     1 3d1+  0.30024     1 3d2+  0.47425     1 3d1- -0.37973     2 3d0  -0.28568
                                    2 3d1+  0.30077     2 3d2+  0.47258     2 3d1- -0.37985
   34.1     0.00000     2.50796     1 1s    0.30909     1 1s   -0.80494     1 2px  -0.64982     1 2py   0.43927     1 3d2- -0.55903
                                    1 3d1+  0.25720     1 3d2+ -0.26626     1 3d1- -0.42495     2 1s   -0.30876     2 1s    0.80465
                                    2 2px  -0.64984     2 2py   0.43835     2 3d2-  0.55934     2 3d1+ -0.25689     2 3d2+  0.26727
                                    2 3d1-  0.42366     3 1s   -0.65545     4 1s    0.29931     5 1s   -0.29860     6 1s    0.65530
   35.1     0.00000     2.84322     1 1s   -0.39497     1 2py  -0.27001     1 3d0   0.37171     1 3d2-  0.72199     1 3d1+ -0.26746
                                    2 1s   -0.39065     2 2py   0.27073     2 3d0   0.37074     2 3d2-  0.72055     2 3d1+ -0.26905
                                    3 1s    0.78416     6 1s    0.78328
   36.1     0.00000     2.84507     1 1s    1.38828     1 2px   0.79529     1 2pz  -0.35582     1 3d0  -0.29804     1 3d2- -0.47336
                                    1 3d1+ -0.51390     1 3d2+  0.53339     2 1s   -1.38940     2 2px   0.79456     2 2pz  -0.35593
                                    2 3d0   0.29914     2 3d2-  0.47564     2 3d1+  0.51309     2 3d2+ -0.53288     3 1s   -0.28024
                                    6 1s    0.28264


 HOMO      8.1    -0.339014 =      -9.2250eV
 LUMO      9.1     0.075044 =       2.0421eV
 LUMO-HOMO         0.414058 =      11.2671eV


 **********************************************************************************************************************************
 DATASETS  * FILE   NREC   LENGTH (MB)   RECORD NAMES
              1      19       31.10       500      610      700      900      950      970     1000      129      960     1100   
                                          VAR    BASINP    GEOM    SYMINP    ZMAT    AOBASIS   BASIS     P2S    ABASIS      S 
                                         1400     1410     1200     1210     1080     1600     1650     1300     1700   
                                           T        V       H0       H01     AOSYM     SMH    MOLCAS    ERIS     OPER   

              2       4        2.86       700     1000      520     2100   
                                         GEOM     BASIS   MCVARS     RHF  

 PROGRAMS   *        TOTAL    HF-SCF       INT
 CPU TIMES  *         0.36      0.10      0.16
 REAL TIME  *         0.58 SEC
 DISK USED  *        35.97 MB
 **********************************************************************************************************************************


 PROGRAM * MULTI (Direct Multiconfiguration SCF)       Authors: P.J. Knowles, H.-J. Werner (1984)


 Number of closed-shell orbitals:   7 (   7 )
 Number of active  orbitals:        2 (   2 )
 Number of external orbitals:      27 (  27 )

 State symmetry 1

 Number of electrons:     2    Spin symmetry=Singlet   Space symmetry=1
 Number of states:        3
 Number of CSFs:          3   (4 determinants, 4 intermediate states)

 Molecular orbitals read from record     2100.2  Type=RHF/CANONICAL (state 1.1)

 Wavefunction dump at record             2140.2

 Convergence thresholds  0.10E-01 (gradient)  0.10E-05 (energy)  0.10E-02 (step length)

 Weight factors for state symmetry  1:    0.33333   0.33333   0.33333

 Number of orbital rotations:      257   (    14 Core/Active    189 Core/Virtual   0 Active/Active     54 Active/Virtual)
 Total number of variables:        269

 Micro-Iterations solved by the two-step solver

 ITER. MIC  NCI  NEG     ENERGY(VAR)     ENERGY(PROJ)   ENERGY CHANGE     GRAD(0)  GRAD(ORB)   GRAD(CI)     STEP       TIME

   1   13    6    1     -77.63678763     -77.64541726   -0.00862963    0.09349319 0.00061460 0.00000000  0.22D+00      0.37
   2   13    7    0     -77.64702463     -77.65008538   -0.00306075    0.05565128 0.00001359 0.00000000  0.10D+00      0.54
   3   11    6    0     -77.65037731     -77.65054307   -0.00016576    0.01109958 0.00002056 0.00000000  0.29D-01      0.67
   4   11    6    0     -77.65054547     -77.65054587   -0.00000040    0.00056601 0.00000003 0.00000000  0.13D-02      0.79
   5    5    4    0     -77.65054587     -77.65054587   -0.00000000    0.00000068 0.00000000 0.00000000  0.15D-05      0.86

 ** WVFN ****  CONVERGENCE REACHED, FINAL GRADIENT:  0.31D-11



 Results for state 1.1
 =====================

 !MCSCF STATE  1.1 Energy             -77.838250274128
 Nuclear energy                        30.01683624
 Kinetic energy                        77.54483093
 One electron energy                 -163.01010740
 Two electron energy                   55.15502089
 Virial ratio                           2.00378387

 !MCSCF STATE  1.1 Dipole moment        0.09878291     0.02766721    -0.00540729
 Dipole moment /Debye                   0.25106466     0.07031842    -0.01374306

 Results for state 2.1
 =====================

 !MCSCF STATE  2.1 Energy             -77.640427692810
 Nuclear energy                        30.01683624
 Kinetic energy                        77.73160244
 One electron energy                 -162.87747738
 Two electron energy                   55.22021345
 Virial ratio                           1.99882706

 !MCSCF STATE  2.1 Dipole moment       -0.10316371     0.04602273     0.00313392
 Dipole moment /Debye                  -0.26219882     0.11697044     0.00796510

 Results for state 3.1
 =====================

 !MCSCF STATE  3.1 Energy             -77.472959654122
 Nuclear energy                        30.01683624
 Kinetic energy                        77.92585054
 One electron energy                 -162.81213912
 Two electron energy                   55.32234324
 Virial ratio                           1.99418818

 !MCSCF STATE  3.1 Dipole moment        0.15298187    -0.02419107    -0.32205190
 Dipole moment /Debye                   0.38881567    -0.06148355    -0.81852068

 State-averaged charge density matrix saved on record  2140.2 (density set 1)

 !MCSCF expec         <1.1|DMX|1.1>     0.098782906612 au =     0.251064659787 Debye
 !MCSCF trans         <2.1|DMX|1.1>     0.940525601476 au =     2.390421058200 Debye
 !MCSCF expec         <2.1|DMX|2.1>    -0.103163708320 au =    -0.262198817792 Debye
 !MCSCF trans         <3.1|DMX|1.1>     0.071655776990 au =     0.182118889683 Debye
 !MCSCF trans         <3.1|DMX|2.1>     1.247426437217 au =     3.170434084303 Debye
 !MCSCF expec         <3.1|DMX|3.1>     0.152981873674 au =     0.388815670492 Debye

 !MCSCF expec         <1.1|DMY|1.1>     0.027667206785 au =     0.070318419421 Debye
 !MCSCF trans         <2.1|DMY|1.1>    -0.182682839209 au =    -0.464303050476 Debye
 !MCSCF expec         <2.1|DMY|2.1>     0.046022726226 au =     0.116970440520 Debye
 !MCSCF trans         <3.1|DMY|1.1>    -0.007924692408 au =    -0.020141239730 Debye
 !MCSCF trans         <3.1|DMY|2.1>    -0.240550699787 au =    -0.611378847565 Debye
 !MCSCF expec         <3.1|DMY|3.1>    -0.024191072488 au =    -0.061483546014 Debye

 !MCSCF expec         <1.1|DMZ|1.1>    -0.005407291502 au =    -0.013743063936 Debye
 !MCSCF trans         <2.1|DMZ|1.1>    -0.690799808940 au =    -1.755722978406 Debye
 !MCSCF expec         <2.1|DMZ|2.1>     0.003133915769 au =     0.007965097639 Debye
 !MCSCF trans         <3.1|DMZ|1.1>    -0.012486187004 au =    -0.031734643167 Debye
 !MCSCF trans         <3.1|DMZ|2.1>    -0.904538660696 au =    -2.298957369251 Debye
 !MCSCF expec         <3.1|DMZ|3.1>    -0.322051903366 au =    -0.818520676556 Debye


 NATURAL ORBITALS (state averaged)
 =================================

  Orbital  Occupation    Energy     Coefficients
    1.1     2.00000   -11.27869     2 1s    0.99623
    2.1     2.00000   -11.26247     1 1s   -0.99626
    3.1     2.00000    -0.96829     1 1s    0.28292     1 1s    0.26117     2 1s    0.28895     2 1s    0.26189
    4.1     2.00000    -0.84193     1 1s    0.25197     1 1s    0.26932     2 1s   -0.25010     2 1s   -0.25797
    5.1     2.00000    -0.59902     1 2px  -0.25001     2 2py  -0.31531
    6.1     2.00000    -0.57496     1 2py   0.33726
    7.1     2.00000    -0.39643     1 2px   0.26670     2 2pz   0.25721
    8.1     1.00000    -0.06679     1 2pz   0.37771     1 2pz   0.43384     2 2pz  -0.43410     2 2pz  -0.47525
    9.1     1.00000    -0.24173     2 2px   0.31931
   10.1    -0.00000     0.23063     1 1s   -1.07397     1 2px   0.51218     1 2py   0.36555     1 2pz   0.25420     2 1s   -1.05184
                                    2 2px  -0.57065     2 2py  -0.44057     2 2pz  -0.25534     3 1s    0.58910     4 1s    1.00753
                                    5 1s    1.13659     6 1s    0.52580
   11.1    -0.00000     0.27004     1 1s    1.64262     1 2pz  -0.41502     2 1s   -1.77495     2 2pz  -0.34515     3 1s   -1.11513
                                    4 1s   -0.27351     5 1s    0.30272     6 1s    1.24021
   12.1    -0.00000     0.27739     1 1s   -0.72127     1 2px   0.34360     1 2py   0.63114     2 1s    0.48062     2 2px   0.25291
                                    2 2py   0.65999     4 1s    1.32803     5 1s   -1.24182     6 1s    0.27035
   13.1    -0.00000     0.34365     1 1s   -1.26098     1 2px   0.38283     1 2py  -1.10722     2 1s   -1.22233     2 2px  -0.49127
                                    2 2py   1.08773     3 1s    2.02805     4 1s   -0.45003     5 1s   -0.37163     6 1s    2.04523
   14.1    -0.00000     0.39336     1 2px   0.27180     1 2px   1.49338     1 2py  -0.77700     1 2pz  -0.46833     2 1s   -0.28946
                                    2 2px   0.25153     2 2px   1.46877     2 2py  -0.73857     2 2pz  -0.38542     3 1s    1.68186
                                    6 1s   -1.57437
   15.1    -0.00000     0.67671     1 2py  -0.34950     1 2px  -1.15658     1 2py   0.85798     2 2py  -0.37075     2 2px  -1.19578
                                    2 2py   0.92646     3 1s   -0.43955     3 1s   -0.51777     6 1s    0.44669     6 1s    0.55379
   16.1    -0.00000     0.77748     1 1s   -0.42759     1 2px  -0.51639     1 2py  -0.25799     1 2px   0.74091     1 2py   0.31158
                                    2 2px   0.60628     2 2py   0.30199     2 2pz  -0.33981     2 2px  -0.94262     2 2py  -0.35423
                                    2 2pz   0.29623     3 1s    0.27556     5 1s    0.25436     6 1s    0.25916
   17.1    -0.00000     0.79772     1 1s    0.26257     1 2pz   0.66820     1 2px   0.36184     1 2pz  -0.55663     2 2pz   0.83317
                                    2 2pz  -0.83993
   18.1    -0.00000     0.84099     1 1s    0.30765     1 2pz  -0.84977     1 2py   0.38078     1 2pz   0.99962     2 1s    0.42517
                                    2 2pz   0.56697     2 2py  -0.31758     2 2pz  -0.74460
   19.1    -0.00000     0.86748     1 1s   -0.29654     1 1s    0.57643     1 2px  -0.63938     1 2px   1.15625     2 1s    0.35573
                                    2 1s   -0.72274     2 2px  -0.57372     2 2px   1.03072     4 1s    0.42354     5 1s   -0.39459
   20.1    -0.00000     0.95781     1 1s    0.26984     1 1s    0.63422     1 2px   0.27083     1 2py  -0.62922     1 2px  -0.70267
                                    1 2py   1.79276     1 2pz  -0.27064     2 1s    0.30870     2 1s    0.53069     2 2px  -0.25536
                                    2 2py   0.65505     2 2px   0.64197     2 2py  -1.81905     3 1s   -1.15100     4 1s    0.41423
                                    5 1s    0.50594     6 1s   -1.13771
   21.1    -0.00000     1.02992     1 1s    0.75577     1 1s   -1.49389     1 2px   0.52464     1 2py  -0.29434     1 2pz   0.53115
                                    2 1s    0.65219     2 1s   -1.33776     2 2px  -0.33227     2 2py   0.49951     2 2pz  -0.51708
                                    3 1s    0.34332     3 1s    0.72615     4 1s    0.49844     5 1s    0.72350     5 1s   -0.39234
                                    6 1s    0.34946     6 1s    0.74073
   22.1    -0.00000     1.05769     1 1s    0.33530     1 2py  -0.40405     1 2py   0.84244     2 1s   -0.71668     2 1s    1.49445
                                    2 2px  -0.33120     2 2py  -0.50737     2 2px   0.85467     2 2py   0.41683     2 2pz   0.30109
                                    3 1s   -0.43464     4 1s   -0.48434     4 1s    0.87466     5 1s    0.72038     5 1s   -1.56137
                                    6 1s   -0.30390
   23.1    -0.00000     1.07068     1 1s   -0.86984     1 1s    1.91126     1 2px   0.31768     1 2py   0.37937     1 2px  -0.80440
                                    1 2pz  -0.29868     2 1s   -0.57618     2 1s    1.37356     2 2px   0.41389     2 2py  -0.48251
                                    3 1s   -0.28591     3 1s   -0.53270     4 1s    0.80040     4 1s   -1.45482     5 1s    0.30085
                                    5 1s   -0.46456     6 1s   -0.27303     6 1s   -0.56873
   24.1    -0.00000     1.24603     1 1s    1.09031     1 1s   -2.91058     1 2px   0.27391     1 2py  -0.36750     1 2px  -1.25816
                                    1 2py   0.90262     1 2pz   0.62164     2 1s   -1.04836     2 1s    2.86549     2 2px   0.25858
                                    2 2py  -0.36704     2 2px  -1.24929     2 2py   0.88241     2 2pz   0.64040     3 1s    0.38586
                                    3 1s   -0.43397     4 1s    0.38201     4 1s    0.29574     5 1s   -0.36835     5 1s   -0.29517
                                    6 1s   -0.39684     6 1s    0.44804
   25.1    -0.00000     1.32301     1 1s   -0.55736     1 1s    0.74618     1 2py  -0.27012     1 2px  -0.33879     1 2py   0.32422
                                    2 1s   -1.18826     2 1s    2.12465     2 2px  -0.36040     2 2py   0.43913     2 2px   0.46140
                                    2 2py  -0.49604     2 2pz   0.25141     3 1s    0.54634     3 1s   -0.87266     6 1s    0.83267
                                    6 1s   -1.65337
   26.1    -0.00000     1.33510     1 1s   -1.30440     1 1s    2.68915     1 2px   0.41355     1 2py  -0.44545     1 2px  -0.32215
                                    1 2py   0.47368     1 2pz  -0.31712     2 1s    0.82026     2 1s   -1.90240     2 2px   0.27048
                                    3 1s    0.72775     3 1s   -1.73171     6 1s   -0.33004     6 1s    1.02285
   27.1    -0.00000     1.72080     1 1s   -0.31285     1 3d1+ -0.32017     1 3d2+ -0.38640     1 3d1-  0.30896     2 1s    0.28426
                                    2 3d1+  0.33817     2 3d2+  0.40872     2 3d1- -0.30550
   28.1    -0.00000     1.94718     1 3d1+  0.38801     1 3d1-  0.40213     2 3d2-  0.26191     2 3d1+ -0.43328     2 3d1- -0.54392
   29.1    -0.00000     1.96610     1 1s   -0.27283     1 2px  -0.25393     1 2px   0.31173     1 2py  -0.33275     1 3d2+  0.46361
                                    1 3d1-  0.46646     2 1s   -0.27088     2 2px  -0.33836     2 2py   0.34975     2 3d2+  0.42143
                                    2 3d1-  0.34907     3 1s    0.29947     6 1s    0.30645
   30.1    -0.00000     2.00589     1 1s    0.26155     1 1s   -0.51537     1 3d0   0.39232     1 3d1+  0.52782     2 1s    0.28033
                                    2 1s   -0.60902     2 3d0   0.42716     2 3d1+  0.45166     3 1s    0.25582     6 1s    0.26886
   31.1    -0.00000     2.25391     1 2py   0.42010     1 3d0   0.26110     1 3d1+ -0.27846     1 3d1- -0.36368     2 2py  -0.49505
                                    2 3d0   0.51313     2 3d2- -0.29969     2 3d1+ -0.27014     2 3d2+  0.28345     2 3d1- -0.42979
                                    4 1s    0.35539     5 1s    0.52557
   32.1    -0.00000     2.27446     1 1s    0.28384     1 1s   -0.95026     1 3d0   0.72547     1 3d2+  0.33823     2 1s   -0.25721
                                    2 1s    0.92368     2 3d0  -0.51780     2 3d2+ -0.28494     3 1s    0.34098     4 1s    0.47071
                                    5 1s   -0.29815     6 1s   -0.37587
   33.1    -0.00000     2.35572     1 2py   0.26605     1 3d0  -0.25461     1 3d1+  0.31481     1 3d2+  0.48250     1 3d1- -0.39426
                                    2 3d0  -0.31425     2 3d1+  0.28664     2 3d2+  0.45648     2 3d1- -0.36592
   34.1    -0.00000     2.50458     1 1s    0.30858     1 1s   -0.79907     1 2px  -0.64139     1 2py   0.43817     1 3d2- -0.55626
                                    1 3d2+ -0.26537     1 3d1- -0.42662     2 1s   -0.30957     2 1s    0.78622     2 2px  -0.64822
                                    2 2py   0.42990     2 3d2-  0.56382     2 3d1+ -0.27161     2 3d2+  0.26567     2 3d1-  0.42007
                                    3 1s   -0.64859     4 1s    0.29806     5 1s   -0.28539     6 1s    0.67837
   35.1    -0.00000     2.83635     1 1s    0.70957     1 2px   0.73524     1 2py  -0.37244     1 3d1+ -0.55661     1 3d2+  0.47079
                                    2 1s   -1.26985     2 2px   0.40034     2 2pz  -0.27828     2 3d0   0.47844     2 3d2-  0.83557
                                    2 3d2+ -0.27692     3 1s    0.37737     6 1s    0.75333
   36.1    -0.00000     2.84909     1 1s    1.27229     1 2px   0.40753     1 2pz  -0.27653     1 3d0  -0.48112     1 3d2- -0.84537
                                    1 3d2+  0.29246     2 1s   -0.72379     2 2px   0.72768     2 2py  -0.36413     2 3d1+  0.55380
                                    2 3d2+ -0.46459     3 1s   -0.75656     6 1s   -0.33528


 Natural orbital dump (state averaged) at molpro section  2140.2    (Orbital set 2)



 **********************************************************************************************************************************
 DATASETS  * FILE   NREC   LENGTH (MB)   RECORD NAMES
              1      20       31.83       500      610      700      900      950      970     1000      129      960     1100   
                                          VAR    BASINP    GEOM    SYMINP    ZMAT    AOBASIS   BASIS     P2S    ABASIS      S 
                                         1400     1410     1200     1210     1080     1600     1650     1300     1700     1380   
                                           T        V       H0       H01     AOSYM     SMH    MOLCAS    ERIS     OPER     JKOP   

              2       5        5.42       700     1000      520     2100     2140   
                                         GEOM     BASIS   MCVARS     RHF     MCSCF   

 PROGRAMS   *        TOTAL     MULTI    HF-SCF       INT
 CPU TIMES  *         1.26      0.90      0.10      0.16
 REAL TIME  *         1.54 SEC
 DISK USED  *        39.02 MB
 **********************************************************************************************************************************
 Molecular orbitals read from record     2140.2  Type=MCSCF/NATURAL (state averaged)
 Occupation numbers read from record     2140.2  Type=MCSCF/NATURAL (state averaged)
 Orbital energies read from record       2140.2  Type=MCSCF/NATURAL (state averaged)
 Redundancy group numbers read from rec  2140.2  Type=MCSCF/NATURAL (state averaged)

 MULTI/6-31G* energy=    -77.472959654122

           MULTI          HF-SCF
    -77.47295965    -77.83715608
 **********************************************************************************************************************************
 Molpro calculation terminated
