
 Primary working directories    : /scratch.local/johan406.molpro_temp/molpro.ANGx9xeTgo
 Secondary working directories  : /scratch.local/johan406.molpro_temp/molpro.ANGx9xeTgo
 Wavefunction directory         : /home/goodpast/johan406/wfu/
 Main file repository           : /scratch.local/johan406.molpro_temp/molpro.ANGx9xeTgo/

 id        : roweumn

 Nodes     nprocs
 acn06        1

 Using customized tuning parameters: mindgm=1; mindgv=20; mindgc=4; mindgr=1; noblas=0; minvec=7
 default implementation of scratch files=df  


 Variables initialized (934), CPU time= 0.00 sec
                                                                                 !leave this line blank
 
 gprint, orbitals=30
 memory, 125., m
 symmetry, nosym
 nelect=16
 basis=6-31g*
 
 geometry={
 C -0.745 0.164 0.296
 C 0.753 -0.213 -0.357
 H -1.373 0.932 0.149
 H -1.312 -0.862 -0.010
 H 1.321 0.812 -0.051
 H 1.382 -0.982 -0.210
 }
 
 hf
 {multi,
 closed 7
 occ 9
 wf,spin=0;STATE,3
 }
 
 Commands  initialized (763), CPU time= 0.01 sec, 617 directives.
 Default parameters read. Elapsed time= 0.06 sec

 Checking input...
 Passed
1


                                         ***  PROGRAM SYSTEM MOLPRO  ***
                                       Copyright, TTI GmbH Stuttgart, 2015
                                    Version 2019.2 linked Oct 25 2019 22:50:27


 **********************************************************************************************************************************
 LABEL *                                                                                 
  64 bit serial version                                                                  DATE: 15-Mar-23          TIME: 16:36:30  
 **********************************************************************************************************************************

 SHA1:             8dbd9ae1082e4ce945b0f27595c9eb2d4aa09004
 **********************************************************************************************************************************


 Variable memory set to  125000000 words,  buffer space 

 SETTING NELECT         =        16.00000000                                  
 SETTING BASIS          =    6-31G*
 ZSYMEL=NOSYM


Geometry recognized as XYZ



 Recomputing integrals since basis changed


 Using spherical harmonics

 Library entry C      S 6-31G                selected for orbital group  1
 Library entry C      P 6-31G                selected for orbital group  1
 Library entry C      D 6-31G*               selected for orbital group  1
 Library entry H      S 6-31G                selected for orbital group  2


 PROGRAM * SEWARD (Integral evaluation for generally contracted gaussian basis sets)     Author: Roland Lindh, 1990

 Geometry written to block  1 of record 700


 Point group  C1  



 ATOMIC COORDINATES

 NR  ATOM    CHARGE       X              Y              Z

   1  C       6.00   -1.407845963    0.309915084    0.559358933
   2  C       6.00    1.422963772   -0.402511665   -0.674632226
   3  H       1.00   -2.594593969    1.761224748    0.281569193
   4  H       1.00   -2.479320675   -1.628943919   -0.018897261
   5  H       1.00    2.496328211    1.534457613   -0.096376032
   6  H       1.00    2.611601504   -1.855711054   -0.396842486

 Bond lengths in Bohr (Angstrom)

 1-2  3.169190718  1-3  1.895214423  1-4  2.289456818  2-5  2.288742324  2-6  1.897844900
     ( 1.677063505)     ( 1.002904283)     ( 1.211528374)     ( 1.211150280)     ( 1.004296271)

 Bond angles

  1-2-5   97.48575565   1-2-6  132.42108575   2-1-3  132.40723243   2-1-4   97.43008132

  3-1-4  108.56813310   5-2-6  108.50080985

 NUCLEAR CHARGE:                   16
 NUMBER OF PRIMITIVE AOS:          72
 NUMBER OF SYMMETRY AOS:           70
 NUMBER OF CONTRACTIONS:           36   (   36A   )
 NUMBER OF CORE ORBITALS:           2   (    2A   )
 NUMBER OF VALENCE ORBITALS:       12   (   12A   )


 NUCLEAR REPULSION ENERGY   29.70347758

 Eigenvalues of metric

         1 0.178E-01 0.235E-01 0.440E-01 0.699E-01 0.911E-01 0.228E+00 0.259E+00 0.281E+00


 Contracted 2-electron integrals neglected if value below      1.0D-11
 AO integral compression algorithm  1   Integral accuracy      1.0D-11

     1.311 MB (compressed) written to integral file ( 67.4%)


 NUMBER OF SORTED TWO-ELECTRON INTEGRALS:     222111.     BUFFER LENGTH:  32768
 NUMBER OF SEGMENTS:   1  SEGMENT LENGTH:     222111      RECORD LENGTH: 524288

 Memory used in sort:       0.78 MW

 SORT1 READ      284735. AND WROTE      212512. INTEGRALS IN      1 RECORDS. CPU TIME:     0.00 SEC, REAL TIME:     0.01 SEC
 SORT2 READ      212512. AND WROTE      222111. INTEGRALS IN      5 RECORDS. CPU TIME:     0.02 SEC, REAL TIME:     0.02 SEC

 FILE SIZES:   FILE 1:    31.4 MBYTE,  FILE 4:     4.2 MBYTE,   TOTAL:     35.6 MBYTE

 OPERATOR DM      FOR CENTER  0  COORDINATES:    0.000000    0.000000    0.000000


 **********************************************************************************************************************************
 DATASETS  * FILE   NREC   LENGTH (MB)   RECORD NAMES
              1      19       31.10       500      610      700      900      950      970     1000      129      960     1100   
                                          VAR    BASINP    GEOM    SYMINP    ZMAT    AOBASIS   BASIS     P2S    ABASIS      S 
                                         1400     1410     1200     1210     1080     1600     1650     1300     1700   
                                           T        V       H0       H01     AOSYM     SMH    MOLCAS    ERIS     OPER   

 PROGRAMS   *        TOTAL       INT
 CPU TIMES  *         0.27      0.17
 REAL TIME  *         0.41 SEC
 DISK USED  *        35.97 MB
 **********************************************************************************************************************************


 PROGRAM * RHF-SCF (CLOSED SHELL)       Authors: W. Meyer, H.-J. Werner


 NUMBER OF ELECTRONS:       8+    8-    SPACE SYMMETRY=1    SPIN SYMMETRY: Singlet 
 CONVERGENCE THRESHOLDS:    1.00E-05 (Density)    1.00E-07 (Energy)
 MAX. NUMBER OF ITERATIONS:       60
 INTERPOLATION TYPE:            DIIS
 INTERPOLATION STEPS:              2 (START)      1 (STEP)
 LEVEL SHIFTS:                  0.00 (CLOSED)  0.00 (OPEN) 



 Orbital guess generated from atomic densities. Full valence occupancy:    8

 Molecular orbital dump at record        2100.2

 Initial occupancy:   8

 ITERATION    DDIFF          GRAD             ENERGY        2-EL.EN.            DIPOLE MOMENTS         DIIS   ORB.
    1      0.000D+00      0.000D+00       -77.83485857    110.232628    0.00210   -0.00137   -0.00114    0    start
    2      0.000D+00      0.661D-02       -77.85449411    109.740516   -0.00050    0.00042    0.00089    1    diag
    3      0.711D-02      0.225D-02       -77.85786102    109.990506    0.00183   -0.00080   -0.00135    2    diag
    4      0.364D-02      0.877D-03       -77.85859748    109.883619   -0.00075    0.00061    0.00103    3    diag
    5      0.166D-02      0.486D-03       -77.85902917    109.900259    0.00293   -0.00141   -0.00250    4    diag
    6      0.188D-02      0.155D-03       -77.85906720    109.899539   -0.00320    0.00195    0.00337    5    diag
    7      0.484D-03      0.886D-04       -77.85907264    109.899116    0.00072   -0.00020   -0.00039    6    diag
    8      0.148D-03      0.228D-04       -77.85907341    109.899804    0.00031    0.00002    0.00001    7    diag
    9      0.618D-04      0.657D-05       -77.85907348    109.899793    0.00033    0.00001   -0.00001    8    diag
   10      0.196D-04      0.153D-05       -77.85907348    109.899786    0.00033    0.00001   -0.00001    9    orth
   11      0.396D-05      0.230D-06       -77.85907348    109.899783    0.00033    0.00001   -0.00001    0    orth

 Final occupancy:   8

 !RHF STATE  1.1 Energy               -77.859073478136
 Nuclear energy                        29.70347758
 One-electron energy                 -162.51244244
 Two-electron energy                   54.94989139
 Virial quotient                       -1.00534601
 !RHF STATE  1.1 Dipole moment          0.00033232     0.00000979    -0.00001400
 Dipole moment /Debye                   0.00084463     0.00002488    -0.00003559

 ELECTRON ORBITALS
 =================

  Orbital  Occupation    Energy     Coefficients
    1.1     2.00000   -11.28360     1 1s   -0.61025     2 1s   -0.78756
    2.1     2.00000   -11.28321     1 1s   -0.78762     2 1s    0.61032
    3.1     2.00000    -0.96238     1 1s    0.28719     1 1s    0.26765     2 1s    0.28663     2 1s    0.26726
    4.1     2.00000    -0.83690     1 1s   -0.25185     2 1s    0.25241
    5.1     2.00000    -0.58877     1 2px   0.26117     1 2py  -0.25234     2 2px  -0.26287
    6.1     2.00000    -0.58112     1 2py   0.29966     2 2py   0.30866
    7.1     2.00000    -0.43522     1 2px   0.28112     2 2px  -0.28117
    8.1     2.00000    -0.33513     1 2pz   0.31315     1 2pz   0.31290     2 2pz   0.31309     2 2pz   0.31286
    9.1     0.00000     0.07540     1 1s   -0.27790     1 2pz  -0.35710     1 2pz  -0.50315     2 1s   -0.27828     2 2pz   0.35705
                                    2 2pz   0.50311
   10.1     0.00000     0.24415     1 1s   -1.14104     1 2px   0.56836     1 2py   0.34587     1 2pz   0.28455     2 1s   -1.14947
                                    2 2px  -0.56653     2 2py  -0.34209     2 2pz  -0.28668     3 1s    0.65664     4 1s    1.09580
                                    5 1s    1.09382     6 1s    0.66430
   11.1     0.00000     0.26239     1 1s   -1.48854     1 2py  -0.30502     1 2pz   0.34463     2 1s    1.48040     2 2py  -0.31067
                                    2 2pz   0.34298     3 1s    1.16860     6 1s   -1.16684
   12.1     0.00000     0.29341     1 1s    0.89636     1 2px  -0.32989     1 2py  -0.58230     2 1s   -0.90041     2 2px  -0.33238
                                    2 2py  -0.58265     4 1s   -1.35746     5 1s    1.36068
   13.1     0.00000     0.33843     1 1s   -1.00297     1 2px   0.34937     1 2py  -1.10796     2 1s   -0.99228     2 2px  -0.35237
                                    2 2py   1.10777     3 1s    1.85837     4 1s   -0.52742     5 1s   -0.52868     6 1s    1.85290
   14.1     0.00000     0.38737     1 1s    0.39521     1 2px   0.26069     1 2px   1.44073     1 2py  -0.74081     1 2pz  -0.45596
                                    2 1s   -0.40002     2 2px   0.26058     2 2px   1.43933     2 2py  -0.73737     2 2pz  -0.45657
                                    3 1s    1.46295     6 1s   -1.45586
   15.1     0.00000     0.68356     1 2py  -0.37406     1 2px  -1.08170     1 2py   0.85142     2 2py  -0.37435     2 2px  -1.07816
                                    2 2py   0.84736     3 1s   -0.44868     3 1s   -0.40706     6 1s    0.44840     6 1s    0.40023
   16.1     0.00000     0.77880     1 1s   -0.34926     1 2px  -0.58721     1 2py  -0.30492     1 2px   0.87055     1 2py   0.42385
                                    2 1s   -0.34835     2 2px   0.58731     2 2py   0.30396     2 2px  -0.87283     2 2py  -0.42239
   17.1     0.00000     0.80307     1 2pz   0.78043     1 2pz  -0.68877     2 2pz   0.78052     2 2pz  -0.68881
   18.1     0.00000     0.84265     1 1s    0.28674     1 1s   -0.44210     1 2pz   0.74516     1 2py  -0.32976     1 2pz  -0.84685
                                    2 1s    0.28700     2 1s   -0.44188     2 2pz  -0.74480     2 2py   0.32938     2 2pz   0.84653
   19.1     0.00000     0.85745     1 1s   -0.27830     1 1s    0.54942     1 2px  -0.62719     1 2px   1.17246     1 2py   0.25418
                                    2 1s    0.27798     2 1s   -0.55065     2 2px  -0.62662     2 2px   1.17166     2 2py   0.25814
                                    4 1s    0.36757     5 1s   -0.36828
   20.1     0.00000     0.96657     1 1s    0.28517     1 1s    0.47844     1 2px   0.30780     1 2py  -0.63496     1 2px  -0.64503
                                    1 2py   1.77227     2 1s    0.28614     2 1s    0.47273     2 2px  -0.31011     2 2py   0.63509
                                    2 2px   0.64936     2 2py  -1.77160     3 1s   -1.05371     4 1s    0.43811     5 1s    0.43657
                                    6 1s   -1.05242
   21.1     0.00000     1.03170     1 1s    0.84764     1 1s   -1.71364     1 2px   0.56050     1 2py  -0.47937     1 2pz   0.59202
                                    2 1s    0.84763     2 1s   -1.70972     2 2px  -0.56289     2 2py   0.47775     2 2pz  -0.59140
                                    3 1s    0.45449     3 1s    0.74777     4 1s    0.44679     5 1s    0.44556     6 1s    0.45583
                                    6 1s    0.74368
   22.1     0.00000     1.09269     1 1s   -0.40537     1 1s    0.76769     1 2px   0.27242     1 2py   0.50172     1 2px  -0.50494
                                    1 2py  -0.69020     2 1s    0.37162     2 1s   -0.69466     2 2px   0.26031     2 2py   0.48935
                                    2 2px  -0.47861     2 2py  -0.69519     4 1s    0.69478     4 1s   -1.36952     5 1s   -0.65944
                                    5 1s    1.31442
   23.1     0.00000     1.09557     1 1s   -0.59389     1 1s    1.29147     1 2px  -0.46867     2 1s   -0.61268     2 1s    1.32500
                                    2 2py  -0.27160     2 2px   0.49452     3 1s   -0.27275     4 1s    0.67374     4 1s   -1.02785
                                    5 1s    0.70881     5 1s   -1.09790     6 1s   -0.26393
   24.1     0.00000     1.23569     1 1s   -0.72164     1 1s    2.07506     1 2px  -0.35300     1 2py   0.42850     1 2px   1.21113
                                    1 2py  -0.91380     1 2pz  -0.50793     2 1s    0.69304     2 1s   -2.03007     2 2px  -0.35972
                                    2 2py   0.43779     2 2px   1.22211     2 2py  -0.92398     2 2pz  -0.50287     3 1s   -0.53536
                                    3 1s    0.79049     4 1s   -0.33342     5 1s    0.33342     6 1s    0.55649     6 1s   -0.82788
   25.1     0.00000     1.26707     1 1s   -0.88815     1 1s    1.41894     1 2px   0.25201     1 2py  -0.34563     1 2px  -0.43991
                                    1 2py   0.40998     2 1s   -0.97500     2 1s    1.62843     2 2px  -0.25297     2 2py   0.34316
                                    2 2px   0.39532     2 2py  -0.38532     3 1s    0.69394     3 1s   -1.27096     6 1s    0.69690
                                    6 1s   -1.30222
   26.1     0.00000     1.29393     1 1s   -1.38672     1 1s    3.11449     1 2px   0.25201     1 2pz  -0.46759     2 1s    1.34303
                                    2 1s   -3.04263     2 2pz  -0.45949     3 1s    0.42713     3 1s   -1.22318     4 1s   -0.26651
                                    5 1s    0.25985     6 1s   -0.39286     6 1s    1.16034
   27.1     0.00000     1.73701     1 1s   -0.32921     1 3d1+ -0.34495     1 3d2+ -0.39385     1 3d1-  0.31083     2 1s    0.32993
                                    2 3d1+  0.34476     2 3d2+  0.39420     2 3d1- -0.31114
   28.1     0.00000     1.94261     1 3d2- -0.25531     1 3d1+  0.40922     1 3d1-  0.48377     2 3d2-  0.25486     2 3d1+ -0.41037
                                    2 3d1- -0.48099
   29.1     0.00000     1.96367     1 1s   -0.31827     1 2px  -0.25693     1 2px   0.28087     1 2py  -0.30665     1 3d1+ -0.26224
                                    1 3d2+  0.40591     1 3d1-  0.36967     2 1s   -0.31838     2 2px   0.25715     2 2px  -0.28013
                                    2 2py   0.30580     2 3d1+ -0.25980     2 3d2+  0.40672     2 3d1-  0.37275
   30.1     0.00000     2.00868     1 1s   -0.54807     1 3d0   0.37426     1 3d1+  0.45049     1 3d1-  0.30367     2 1s   -0.54660
                                    2 3d0   0.37494     2 3d1+  0.45080     2 3d1-  0.30422     3 1s    0.29669     6 1s    0.29584
   31.1     0.00000     2.28370     1 2py   0.47068     1 3d0   0.43685     1 3d2- -0.26155     1 3d1+ -0.25313     1 3d2+  0.28937
                                    1 3d1- -0.40805     2 2py  -0.45883     2 3d0   0.36794     2 3d2- -0.26335     2 3d1+ -0.25192
                                    2 3d2+  0.25336     2 3d1- -0.40009     4 1s    0.51036     5 1s    0.47079
   32.1     0.00000     2.28581     1 1s   -0.26856     1 1s    0.91473     1 3d0  -0.62302     1 3d2+ -0.31552     2 1s    0.27465
                                    2 1s   -0.92720     2 3d0   0.66540     2 3d2+  0.34613     3 1s   -0.41716     4 1s   -0.34272
                                    5 1s    0.39535     6 1s    0.40961
   33.1     0.00000     2.34580     1 3d0  -0.30630     1 3d1+  0.33116     1 3d2+  0.45293     1 3d1- -0.35006     2 3d0  -0.30859
                                    2 3d1+  0.33145     2 3d2+  0.45140     2 3d1- -0.35051
   34.1     0.00000     2.49022     1 1s    0.29891     1 1s   -0.86084     1 2px  -0.60292     1 2py   0.43676     1 3d2- -0.57262
                                    1 3d1- -0.42806     2 1s   -0.29784     2 1s    0.86076     2 2px  -0.60279     2 2py   0.43645
                                    2 3d2-  0.57604     2 3d1-  0.42770     3 1s   -0.56073     4 1s    0.36152     5 1s   -0.36264
                                    6 1s    0.56149
   35.1     0.00000     2.78150     1 1s   -0.34504     1 2py  -0.26050     1 3d0   0.34872     1 3d2-  0.71329     1 3d1+ -0.25786
                                    2 1s   -0.35558     2 2py   0.25692     2 3d0   0.34937     2 3d2-  0.71350     2 3d1+ -0.25266
                                    3 1s    0.71506     6 1s    0.71126
   36.1     0.00000     2.83364     1 1s   -1.36224     1 2px  -0.79563     1 2pz   0.34930     1 3d0   0.27784     1 3d2-  0.44275
                                    1 3d1+  0.52100     1 3d2+ -0.55023     2 1s    1.35944     2 2px  -0.79744     2 2pz   0.34905
                                    2 3d0  -0.27500     2 3d2- -0.43750     2 3d1+ -0.52302     2 3d2+  0.55136


 HOMO      8.1    -0.335129 =      -9.1193eV
 LUMO      9.1     0.075400 =       2.0517eV
 LUMO-HOMO         0.410528 =      11.1710eV


 **********************************************************************************************************************************
 DATASETS  * FILE   NREC   LENGTH (MB)   RECORD NAMES
              1      19       31.10       500      610      700      900      950      970     1000      129      960     1100   
                                          VAR    BASINP    GEOM    SYMINP    ZMAT    AOBASIS   BASIS     P2S    ABASIS      S 
                                         1400     1410     1200     1210     1080     1600     1650     1300     1700   
                                           T        V       H0       H01     AOSYM     SMH    MOLCAS    ERIS     OPER   

              2       4        2.86       700     1000      520     2100   
                                         GEOM     BASIS   MCVARS     RHF  

 PROGRAMS   *        TOTAL    HF-SCF       INT
 CPU TIMES  *         0.37      0.10      0.17
 REAL TIME  *         0.59 SEC
 DISK USED  *        35.97 MB
 **********************************************************************************************************************************


 PROGRAM * MULTI (Direct Multiconfiguration SCF)       Authors: P.J. Knowles, H.-J. Werner (1984)


 Number of closed-shell orbitals:   7 (   7 )
 Number of active  orbitals:        2 (   2 )
 Number of external orbitals:      27 (  27 )

 State symmetry 1

 Number of electrons:     2    Spin symmetry=Singlet   Space symmetry=1
 Number of states:        3
 Number of CSFs:          3   (4 determinants, 4 intermediate states)

 Molecular orbitals read from record     2100.2  Type=RHF/CANONICAL (state 1.1)

 Wavefunction dump at record             2140.2

 Convergence thresholds  0.10E-01 (gradient)  0.10E-05 (energy)  0.10E-02 (step length)

 Weight factors for state symmetry  1:    0.33333   0.33333   0.33333

 Number of orbital rotations:      257   (    14 Core/Active    189 Core/Virtual   0 Active/Active     54 Active/Virtual)
 Total number of variables:        269

 Micro-Iterations solved by the two-step solver

 ITER. MIC  NCI  NEG     ENERGY(VAR)     ENERGY(PROJ)   ENERGY CHANGE     GRAD(0)  GRAD(ORB)   GRAD(CI)     STEP       TIME

   1   15    7    0     -77.66167009     -77.66939222   -0.00772213    0.09285885 0.00086400 0.00000000  0.21D+00      0.44
   2   14    7    0     -77.66963245     -77.67114926   -0.00151681    0.03621274 0.00001514 0.00000000  0.93D-01      0.62
   3   11    6    0     -77.67128486     -77.67134846   -0.00006359    0.00798373 0.00000457 0.00000000  0.13D-01      0.76
   4   11    6    0     -77.67134881     -77.67134883   -0.00000001    0.00012372 0.00000000 0.00000000  0.19D-03      0.88
   5    3    3    0     -77.67134883     -77.67134883   -0.00000000    0.00000002 0.00000000 0.00000000  0.68D-07      0.94

 ** WVFN ****  CONVERGENCE REACHED, FINAL GRADIENT:  0.11D-11



 Results for state 1.1
 =====================

 !MCSCF STATE  1.1 Energy             -77.868536897603
 Nuclear energy                        29.70347758
 Kinetic energy                        77.47008425
 One electron energy                 -162.47840551
 Two electron energy                   54.90639103
 Virial ratio                           2.00514331

 !MCSCF STATE  1.1 Dipole moment       -0.12711852    -0.01548287     0.02575581
 Dipole moment /Debye                  -0.32308188    -0.03935094     0.06546044

 Results for state 2.1
 =====================

 !MCSCF STATE  2.1 Energy             -77.640848092190
 Nuclear energy                        29.70347758
 Kinetic energy                        77.64384136
 One electron energy                 -162.32227596
 Two electron energy                   54.97795029
 Virial ratio                           1.99996145

 !MCSCF STATE  2.1 Dipole moment        0.16636589    -0.04873234    -0.03340282
 Dipole moment /Debye                   0.42283222    -0.12385715    -0.08489594

 Results for state 3.1
 =====================

 !MCSCF STATE  3.1 Energy             -77.504661493313
 Nuclear energy                        29.70347758
 Kinetic energy                        77.83528180
 One electron energy                 -162.23427915
 Two electron energy                   55.02614008
 Virial ratio                           1.99575231

 !MCSCF STATE  3.1 Dipole moment       -0.18510925     0.05120659     0.36569285
 Dipole moment /Debye                  -0.47046997     0.13014564     0.92943764

 State-averaged charge density matrix saved on record  2140.2 (density set 1)

 !MCSCF expec         <1.1|DMX|1.1>    -0.127118515787 au =    -0.323081877355 Debye
 !MCSCF trans         <2.1|DMX|1.1>    -1.085850782981 au =    -2.759776633009 Debye
 !MCSCF expec         <2.1|DMX|2.1>     0.166365891130 au =     0.422832221579 Debye
 !MCSCF trans         <3.1|DMX|1.1>    -0.104668079481 au =    -0.266022297447 Debye
 !MCSCF trans         <3.1|DMX|2.1>    -1.664286123532 au =    -4.229916325847 Debye
 !MCSCF expec         <3.1|DMX|3.1>    -0.185109252285 au =    -0.470469973422 Debye

 !MCSCF expec         <1.1|DMY|1.1>    -0.015482866043 au =    -0.039350942677 Debye
 !MCSCF trans         <2.1|DMY|1.1>     0.225584651168 au =     0.573341437715 Debye
 !MCSCF expec         <2.1|DMY|2.1>    -0.048732344055 au =    -0.123857151004 Debye
 !MCSCF trans         <3.1|DMY|1.1>     0.009601545510 au =     0.024403096036 Debye
 !MCSCF trans         <3.1|DMY|2.1>     0.342804946427 au =     0.871266195740 Debye
 !MCSCF expec         <3.1|DMY|3.1>     0.051206589435 au =     0.130145643575 Debye

 !MCSCF expec         <1.1|DMZ|1.1>     0.025755805366 au =     0.065460439803 Debye
 !MCSCF trans         <2.1|DMZ|1.1>     0.778881699209 au =     1.979590149075 Debye
 !MCSCF expec         <2.1|DMZ|2.1>    -0.033402818346 au =    -0.084895935052 Debye
 !MCSCF trans         <3.1|DMZ|1.1>     0.008777853652 au =     0.022309617286 Debye
 !MCSCF trans         <3.1|DMZ|2.1>     1.177691515925 au =     2.993197203044 Debye
 !MCSCF expec         <3.1|DMZ|3.1>     0.365692853610 au =     0.929437642877 Debye


 NATURAL ORBITALS (state averaged)
 =================================

  Orbital  Occupation    Energy     Coefficients
    1.1     2.00000   -11.28343     1 1s   -0.99625
    2.1     2.00000   -11.26787     2 1s   -0.99629
    3.1     2.00000    -0.96126     1 1s    0.29138     1 1s    0.26885     2 1s    0.28358     2 1s    0.26740
    4.1     2.00000    -0.83340     1 1s   -0.25144     1 1s   -0.26816     2 1s    0.25479     2 1s    0.28130
    5.1     2.00000    -0.58987     1 2py  -0.38016
    6.1     2.00000    -0.57845     2 2py   0.39268
    7.1     2.00000    -0.41693     2 2px  -0.30117
    8.1     1.00000    -0.22612     1 2px   0.29723     1 2pz   0.25190     1 2pz   0.27810
    9.1     1.00000    -0.06001     1 2pz  -0.43031     1 2pz  -0.49351     2 1s   -0.28726     2 2pz   0.35726     2 2pz   0.42750
   10.1    -0.00000     0.23911     1 1s   -1.05288     1 2px   0.60447     1 2py   0.42057     1 2pz   0.25640     2 1s   -1.18333
                                    2 2px  -0.51860     2 2py  -0.32730     2 2pz  -0.28643     3 1s    0.53612     4 1s    1.16908
                                    5 1s    1.04668     6 1s    0.67268
   11.1    -0.00000     0.25776     1 1s   -1.64146     1 2py  -0.26183     1 2pz   0.31623     2 1s    1.38145     2 2px  -0.29274
                                    2 2py  -0.26572     2 2pz   0.39553     3 1s    1.21529     6 1s   -1.00910
   12.1    -0.00000     0.28699     1 1s    0.74028     1 2py  -0.64961     2 1s   -0.98366     2 2px  -0.33446     2 2py  -0.59308
                                    4 1s   -1.32533     5 1s    1.39481
   13.1    -0.00000     0.34019     1 1s   -1.03150     1 2px   0.43068     1 2py  -1.08323     2 1s   -1.04249     2 2px  -0.30560
                                    2 2py   1.11355     3 1s    1.88963     4 1s   -0.43780     5 1s   -0.55144     6 1s    1.85915
   14.1    -0.00000     0.38389     1 1s    0.33711     1 2px   0.25103     1 2px   1.41146     1 2py  -0.70209     1 2pz  -0.37560
                                    2 2px   0.27456     2 2px   1.44244     2 2py  -0.74575     2 2pz  -0.47120     3 1s    1.44740
                                    6 1s   -1.56773
   15.1    -0.00000     0.68394     1 2py  -0.39206     1 2px  -1.08887     1 2py   0.88895     2 2py  -0.36921     2 2px  -1.05109
                                    2 2py   0.81479     3 1s   -0.45180     3 1s   -0.41371     6 1s    0.44331     6 1s    0.37305
   16.1    -0.00000     0.77588     1 2px  -0.61936     1 2py  -0.30868     1 2pz   0.29594     1 2px   0.96459     1 2py   0.41563
                                    2 1s   -0.42288     2 2px   0.51539     2 2py   0.26086     2 2px  -0.72319     2 2py  -0.36942
                                    4 1s    0.26225
   17.1    -0.00000     0.79740     1 2pz   0.85841     1 2pz  -0.85139     2 1s   -0.26302     2 2pz   0.65470     2 2px   0.30707
                                    2 2pz  -0.53331
   18.1    -0.00000     0.84006     1 1s   -0.37133     1 2pz   0.56410     1 2py  -0.26089     1 2pz  -0.74068     2 1s    0.27743
                                    2 1s   -0.33434     2 2pz  -0.85691     2 2px   0.25718     2 2py   0.36299     2 2pz   0.98533
   19.1    -0.00000     0.85320     1 1s   -0.33637     1 1s    0.69369     1 2px  -0.57853     1 2px   1.08947     2 1s   -0.48943
                                    2 2px  -0.64156     2 2px   1.21978     4 1s    0.36282     5 1s   -0.41106
   20.1    -0.00000     0.96473     1 1s    0.34683     1 1s    0.32726     1 2px   0.29065     1 2py  -0.65009     1 2px  -0.57413
                                    1 2py   1.76778     2 1s    0.31429     2 1s    0.41512     2 2px  -0.30574     2 2py   0.62977
                                    2 2px   0.62441     2 2py  -1.74493     3 1s   -1.00827     4 1s    0.49906     5 1s    0.42553
                                    6 1s   -1.00771
   21.1    -0.00000     1.02618     1 1s    0.76499     1 1s   -1.59784     1 2px   0.50341     1 2py  -0.57756     1 2pz   0.57028
                                    2 1s    0.81610     2 1s   -1.65741     2 2px  -0.58862     2 2py   0.50200     2 2pz  -0.56579
                                    3 1s    0.44188     3 1s    0.76544     4 1s    0.55427     5 1s    0.44426     6 1s    0.43253
                                    6 1s    0.76535
   22.1    -0.00000     1.07895     1 1s   -0.68460     1 1s    1.41301     1 2px   0.36500     1 2py   0.53894     1 2px  -0.79343
                                    1 2py  -0.46012     2 1s    0.35361     2 2py   0.29902     2 2py  -0.69628     4 1s    0.88803
                                    4 1s   -1.68441     5 1s    0.55042     6 1s   -0.32373
   23.1    -0.00000     1.09048     1 1s   -0.32436     1 1s    0.77099     1 2py   0.43203     2 1s   -0.74397     2 1s    1.54578
                                    2 2px  -0.36054     2 2py  -0.48736     2 2px   0.72138     2 2py   0.32117     3 1s   -0.30626
                                    5 1s    0.93241     5 1s   -1.62107
   24.1    -0.00000     1.22892     1 1s   -0.79195     1 1s    2.27181     1 2px  -0.32652     1 2py   0.41504     1 2px   1.22899
                                    1 2py  -0.90473     1 2pz  -0.54218     2 1s    0.86773     2 1s   -2.37566     2 2px  -0.33408
                                    2 2py   0.40917     2 2px   1.21908     2 2py  -0.91807     2 2pz  -0.53320     3 1s   -0.52111
                                    3 1s    0.72673     4 1s   -0.33349     4 1s   -0.27083     5 1s    0.34447     5 1s    0.28661
                                    6 1s    0.49278     6 1s   -0.67351
   25.1    -0.00000     1.27046     1 1s   -1.07293     1 1s    1.85548     1 2px   0.27954     1 2py  -0.34712     1 2px  -0.40395
                                    1 2py   0.38697     2 1s   -0.78626     2 1s    1.19357     2 2py   0.33560     2 2px   0.44134
                                    2 2py  -0.41528     3 1s    0.71540     3 1s   -1.38646     6 1s    0.66355     6 1s   -1.18299
   26.1    -0.00000     1.29527     1 1s   -1.21266     1 1s    2.74129     1 2px   0.26341     1 2pz  -0.40352     2 1s    1.37338
                                    2 1s   -2.99152     2 2px   0.30073     2 2py  -0.30506     2 2pz  -0.40926     3 1s    0.38552
                                    3 1s   -1.14132     5 1s    0.25575     6 1s   -0.51888     6 1s    1.36708
   27.1    -0.00000     1.73192     1 1s   -0.32231     1 3d1+ -0.35334     1 3d2+ -0.40670     1 3d1-  0.30898     2 1s    0.34870
                                    2 3d1+  0.33359     2 3d2+  0.38476     2 3d1- -0.31232
   28.1    -0.00000     1.93756     1 3d2- -0.26630     1 3d1+  0.42804     1 3d1-  0.52729     2 3d1+ -0.38583     2 3d1- -0.43328
   29.1    -0.00000     1.95972     1 1s   -0.31595     1 2px  -0.25572     1 2px   0.28998     1 2py  -0.30344     1 3d1+ -0.29957
                                    1 3d2+  0.39636     1 3d1-  0.33297     2 1s   -0.31400     2 2px   0.26626     2 2px  -0.26901
                                    2 2py   0.29039     2 3d2+  0.41513     2 3d1-  0.39060
   30.1    -0.00000     2.00721     1 1s   -0.58392     1 3d0   0.38758     1 3d1+  0.41230     1 3d1-  0.26876     2 1s   -0.49777
                                    2 3d0   0.35146     2 3d1+  0.48491     2 3d1-  0.33967     3 1s    0.30328     6 1s    0.29059
   31.1    -0.00000     2.27581     1 1s   -0.58804     1 2py   0.47336     1 3d0   0.66520     1 3d2+  0.40637     1 3d1- -0.41099
                                    2 1s    0.41251     2 2py  -0.34494     2 3d1- -0.31341     4 1s    0.61843     6 1s   -0.26202
   32.1    -0.00000     2.28456     1 1s    0.72046     1 3d0  -0.31752     2 1s    0.25760     2 1s   -0.83576     2 2py  -0.30945
                                    2 3d0   0.78373     2 3d2+  0.40107     3 1s   -0.39932     5 1s    0.55846     6 1s    0.32587
   33.1    -0.00000     2.33931     1 3d0  -0.34415     1 3d1+  0.31366     1 3d2+  0.43281     1 3d1- -0.34142     2 3d0  -0.26500
                                    2 3d1+  0.34193     2 3d2+  0.46926     2 3d1- -0.36815
   34.1    -0.00000     2.48439     1 1s    0.29824     1 1s   -0.84282     1 2px  -0.60521     1 2py   0.42659     1 3d2- -0.57963
                                    1 3d1- -0.42092     2 1s   -0.29859     2 1s    0.86277     2 2px  -0.59357     2 2py   0.43965
                                    2 3d2-  0.57151     2 3d1-  0.43261     3 1s   -0.58409     4 1s    0.34767     5 1s   -0.36837
                                    6 1s    0.55006
   35.1    -0.00000     2.77705     1 1s   -0.52268     1 3d0   0.38122     1 3d2-  0.74295     2 2px  -0.31112     2 2py   0.29171
                                    2 3d0   0.31679     2 3d2-  0.67121     2 3d1+ -0.31728     3 1s    0.72498     6 1s    0.69706
   36.1    -0.00000     2.83002     1 1s   -1.32018     1 2px  -0.81733     1 2py   0.27253     1 2pz   0.34881     1 3d2-  0.35714
                                    1 3d1+  0.54761     1 3d2+ -0.55504     2 1s    1.40184     2 2px  -0.77442     2 2pz   0.35030
                                    2 3d0  -0.31858     2 3d2- -0.51564     2 3d1+ -0.49193     2 3d2+  0.53805     6 1s   -0.29813


 Natural orbital dump (state averaged) at molpro section  2140.2    (Orbital set 2)



 **********************************************************************************************************************************
 DATASETS  * FILE   NREC   LENGTH (MB)   RECORD NAMES
              1      20       31.83       500      610      700      900      950      970     1000      129      960     1100   
                                          VAR    BASINP    GEOM    SYMINP    ZMAT    AOBASIS   BASIS     P2S    ABASIS      S 
                                         1400     1410     1200     1210     1080     1600     1650     1300     1700     1380   
                                           T        V       H0       H01     AOSYM     SMH    MOLCAS    ERIS     OPER     JKOP   

              2       5        5.42       700     1000      520     2100     2140   
                                         GEOM     BASIS   MCVARS     RHF     MCSCF   

 PROGRAMS   *        TOTAL     MULTI    HF-SCF       INT
 CPU TIMES  *         1.35      0.98      0.10      0.17
 REAL TIME  *         1.69 SEC
 DISK USED  *        39.01 MB
 **********************************************************************************************************************************
 Molecular orbitals read from record     2140.2  Type=MCSCF/NATURAL (state averaged)
 Occupation numbers read from record     2140.2  Type=MCSCF/NATURAL (state averaged)
 Orbital energies read from record       2140.2  Type=MCSCF/NATURAL (state averaged)
 Redundancy group numbers read from rec  2140.2  Type=MCSCF/NATURAL (state averaged)

 MULTI/6-31G* energy=    -77.504661493313

           MULTI          HF-SCF
    -77.50466149    -77.85907348
 **********************************************************************************************************************************
 Molpro calculation terminated
