
 Primary working directories    : /scratch.local/johan406.molpro_temp/molpro.hYMFMf8YFb
 Secondary working directories  : /scratch.local/johan406.molpro_temp/molpro.hYMFMf8YFb
 Wavefunction directory         : /home/goodpast/johan406/wfu/
 Main file repository           : /scratch.local/johan406.molpro_temp/molpro.hYMFMf8YFb/

 id        : roweumn

 Nodes     nprocs
 acn06        1

 Using customized tuning parameters: mindgm=1; mindgv=20; mindgc=4; mindgr=1; noblas=0; minvec=7
 default implementation of scratch files=df  


 Variables initialized (934), CPU time= 0.00 sec
                                                                                 !leave this line blank
 
 gprint, orbitals=30
 memory, 125., m
 symmetry, nosym
 nelect=16
 basis=6-31g*
 
 geometry={
 C -0.748 0.161 0.297
 C 0.757 -0.211 -0.357
 H -1.381 0.946 0.149
 H -1.317 -0.852 -0.001
 H 1.327 0.802 -0.060
 H 1.390 -0.996 -0.209
 }
 
 hf
 {multi,
 closed 7
 occ 9
 wf,spin=0;STATE,3
 }
 
 Commands  initialized (763), CPU time= 0.01 sec, 617 directives.
 Default parameters read. Elapsed time= 0.06 sec

 Checking input...
 Passed
1


                                         ***  PROGRAM SYSTEM MOLPRO  ***
                                       Copyright, TTI GmbH Stuttgart, 2015
                                    Version 2019.2 linked Oct 25 2019 22:50:27


 **********************************************************************************************************************************
 LABEL *                                                                                 
  64 bit serial version                                                                  DATE: 15-Mar-23          TIME: 16:36:40  
 **********************************************************************************************************************************

 SHA1:             8dbd9ae1082e4ce945b0f27595c9eb2d4aa09004
 **********************************************************************************************************************************


 Variable memory set to  125000000 words,  buffer space 

 SETTING NELECT         =        16.00000000                                  
 SETTING BASIS          =    6-31G*
 ZSYMEL=NOSYM


Geometry recognized as XYZ



 Recomputing integrals since basis changed


 Using spherical harmonics

 Library entry C      S 6-31G                selected for orbital group  1
 Library entry C      P 6-31G                selected for orbital group  1
 Library entry C      D 6-31G*               selected for orbital group  1
 Library entry H      S 6-31G                selected for orbital group  2


 PROGRAM * SEWARD (Integral evaluation for generally contracted gaussian basis sets)     Author: Roland Lindh, 1990

 Geometry written to block  1 of record 700


 Point group  C1  



 ATOMIC COORDINATES

 NR  ATOM    CHARGE       X              Y              Z

   1  C       6.00   -1.413515141    0.304245906    0.561248659
   2  C       6.00    1.430522676   -0.398732212   -0.674632226
   3  H       1.00   -2.609711778    1.787680914    0.281569193
   4  H       1.00   -2.488769306   -1.610046658   -0.001889726
   5  H       1.00    2.507666567    1.515560352   -0.113383567
   6  H       1.00    2.626719313   -1.882167220   -0.394952760

 Bond lengths in Bohr (Angstrom)

 1-2  3.179643204  1-3  1.926054625  1-4  2.266674300  2-5  2.267102786  2-6  1.926054625
     ( 1.682594722)     ( 1.019224215)     ( 1.199472384)     ( 1.199699129)     ( 1.019224215)

 Bond angles

  1-2-5   98.16742930   1-2-6  132.01678468   2-1-3  132.01678468   2-1-4   98.10706805

  3-1-4  108.64877696   5-2-6  108.62113931

 NUCLEAR CHARGE:                   16
 NUMBER OF PRIMITIVE AOS:          72
 NUMBER OF SYMMETRY AOS:           70
 NUMBER OF CONTRACTIONS:           36   (   36A   )
 NUMBER OF CORE ORBITALS:           2   (    2A   )
 NUMBER OF VALENCE ORBITALS:       12   (   12A   )


 NUCLEAR REPULSION ENERGY   29.58989900

 Eigenvalues of metric

         1 0.180E-01 0.247E-01 0.461E-01 0.679E-01 0.900E-01 0.233E+00 0.260E+00 0.290E+00


 Contracted 2-electron integrals neglected if value below      1.0D-11
 AO integral compression algorithm  1   Integral accuracy      1.0D-11

     1.311 MB (compressed) written to integral file ( 67.3%)


 NUMBER OF SORTED TWO-ELECTRON INTEGRALS:     222111.     BUFFER LENGTH:  32768
 NUMBER OF SEGMENTS:   1  SEGMENT LENGTH:     222111      RECORD LENGTH: 524288

 Memory used in sort:       0.78 MW

 SORT1 READ      284735. AND WROTE      212508. INTEGRALS IN      1 RECORDS. CPU TIME:     0.00 SEC, REAL TIME:     0.00 SEC
 SORT2 READ      212508. AND WROTE      222111. INTEGRALS IN      5 RECORDS. CPU TIME:     0.02 SEC, REAL TIME:     0.02 SEC

 FILE SIZES:   FILE 1:    31.4 MBYTE,  FILE 4:     4.2 MBYTE,   TOTAL:     35.6 MBYTE

 OPERATOR DM      FOR CENTER  0  COORDINATES:    0.000000    0.000000    0.000000


 **********************************************************************************************************************************
 DATASETS  * FILE   NREC   LENGTH (MB)   RECORD NAMES
              1      19       31.10       500      610      700      900      950      970     1000      129      960     1100   
                                          VAR    BASINP    GEOM    SYMINP    ZMAT    AOBASIS   BASIS     P2S    ABASIS      S 
                                         1400     1410     1200     1210     1080     1600     1650     1300     1700   
                                           T        V       H0       H01     AOSYM     SMH    MOLCAS    ERIS     OPER   

 PROGRAMS   *        TOTAL       INT
 CPU TIMES  *         0.28      0.17
 REAL TIME  *         0.38 SEC
 DISK USED  *        35.97 MB
 **********************************************************************************************************************************


 PROGRAM * RHF-SCF (CLOSED SHELL)       Authors: W. Meyer, H.-J. Werner


 NUMBER OF ELECTRONS:       8+    8-    SPACE SYMMETRY=1    SPIN SYMMETRY: Singlet 
 CONVERGENCE THRESHOLDS:    1.00E-05 (Density)    1.00E-07 (Energy)
 MAX. NUMBER OF ITERATIONS:       60
 INTERPOLATION TYPE:            DIIS
 INTERPOLATION STEPS:              2 (START)      1 (STEP)
 LEVEL SHIFTS:                  0.00 (CLOSED)  0.00 (OPEN) 



 Orbital guess generated from atomic densities. Full valence occupancy:    8

 Molecular orbital dump at record        2100.2

 Initial occupancy:   8

 ITERATION    DDIFF          GRAD             ENERGY        2-EL.EN.            DIPOLE MOMENTS         DIIS   ORB.
    1      0.000D+00      0.000D+00       -77.84189530    110.031874    0.00057   -0.00018   -0.00062    0    start
    2      0.000D+00      0.657D-02       -77.86128330    109.561629   -0.00005    0.00002   -0.00009    1    diag
    3      0.703D-02      0.222D-02       -77.86462361    109.806943    0.00048   -0.00026   -0.00060    2    diag
    4      0.363D-02      0.872D-03       -77.86535826    109.702123   -0.00010    0.00001   -0.00007    3    diag
    5      0.164D-02      0.489D-03       -77.86580179    109.719672    0.00076   -0.00044   -0.00087    4    diag
    6      0.194D-02      0.141D-03       -77.86583974    109.717646   -0.00095    0.00046    0.00075    5    diag
    7      0.531D-03      0.400D-04       -77.86584142    109.718238    0.00107   -0.00060   -0.00117    6    diag
    8      0.819D-04      0.240D-04       -77.86584185    109.718612    0.00006   -0.00007   -0.00021    7    diag
    9      0.389D-04      0.661D-05       -77.86584191    109.718595    0.00016   -0.00013   -0.00031    8    diag
   10      0.188D-04      0.151D-05       -77.86584191    109.718592    0.00016   -0.00013   -0.00030    9    orth
   11      0.384D-05      0.236D-06       -77.86584191    109.718588    0.00016   -0.00013   -0.00031    0    orth

 Final occupancy:   8

 !RHF STATE  1.1 Energy               -77.865841907739
 Nuclear energy                        29.58989900
 One-electron energy                 -162.31503509
 Two-electron energy                   54.85929418
 Virial quotient                       -1.00589684
 !RHF STATE  1.1 Dipole moment          0.00015819    -0.00012640    -0.00030512
 Dipole moment /Debye                   0.00040204    -0.00032125    -0.00077550

 ELECTRON ORBITALS
 =================

  Orbital  Occupation    Energy     Coefficients
    1.1     2.00000   -11.28382     1 1s    0.66121     2 1s    0.74530
    2.1     2.00000   -11.28344     1 1s   -0.74536     2 1s    0.66128
    3.1     2.00000    -0.95942     1 1s    0.28648     1 1s    0.26948     2 1s    0.28647     2 1s    0.26947
    4.1     2.00000    -0.83273     1 1s    0.25251     1 1s    0.25098     2 1s   -0.25251     2 1s   -0.25099
    5.1     2.00000    -0.58324     1 2px   0.25331     1 2py  -0.26884     2 2px  -0.25926
    6.1     2.00000    -0.58252     1 2py   0.28777     2 2py   0.32232
    7.1     2.00000    -0.43944     1 2px   0.28475     2 2px  -0.28470
    8.1     2.00000    -0.33361     1 2pz   0.31263     1 2pz   0.31356     2 2pz   0.31257     2 2pz   0.31352
    9.1     0.00000     0.07547     1 1s    0.27715     1 2pz   0.35670     1 2pz   0.50264     2 1s    0.27724     2 2pz  -0.35675
                                    2 2pz  -0.50269
   10.1     0.00000     0.24660     1 1s   -1.16950     1 2px   0.57670     1 2py   0.32830     1 2pz   0.28855     2 1s   -1.17216
                                    2 2px  -0.57687     2 2py  -0.32794     2 2pz  -0.28863     3 1s    0.68266     4 1s    1.10642
                                    5 1s    1.10732     6 1s    0.68460
   11.1     0.00000     0.25916     1 1s   -1.47561     1 2py  -0.29374     1 2pz   0.34346     2 1s    1.47355     2 2py  -0.29415
                                    2 2pz   0.34304     3 1s    1.15095     6 1s   -1.14974
   12.1     0.00000     0.29654     1 1s   -0.87336     1 2px   0.33529     1 2py   0.60194     2 1s    0.87214     2 2px   0.33533
                                    2 2py   0.60185     4 1s    1.38093     5 1s   -1.37980
   13.1     0.00000     0.33784     1 1s   -0.91444     1 2px   0.31944     1 2py  -1.11239     2 1s   -0.91464     2 2px  -0.32002
                                    2 2py   1.11250     3 1s    1.79303     4 1s   -0.56909     5 1s   -0.56888     6 1s    1.79373
   14.1     0.00000     0.38479     1 1s    0.41156     1 2px   0.26333     1 2px   1.42485     1 2py  -0.71745     1 2pz  -0.45202
                                    2 1s   -0.41169     2 2px   0.26324     2 2px   1.42463     2 2py  -0.71679     2 2pz  -0.45209
                                    3 1s    1.40846     6 1s   -1.40750
   15.1     0.00000     0.68718     1 2py  -0.38204     1 2px  -1.03471     1 2py   0.83562     2 2py  -0.38216     2 2px  -1.03487
                                    2 2py   0.83548     3 1s   -0.45002     3 1s   -0.35110     6 1s    0.44998     6 1s    0.35095
   16.1     0.00000     0.77872     1 1s   -0.36141     1 2px  -0.58687     1 2py  -0.30084     1 2px   0.87330     1 2py   0.43771
                                    2 1s   -0.36049     2 2px   0.58586     2 2py   0.30037     2 2px  -0.87285     2 2py  -0.43701
   17.1     0.00000     0.80350     1 2pz   0.78031     1 2pz  -0.68778     2 2pz   0.78009     2 2pz  -0.68773
   18.1     0.00000     0.84310     1 1s   -0.28892     1 1s    0.43052     1 2pz  -0.74528     1 2py   0.31533     1 2pz   0.84802
                                    2 1s   -0.28754     2 1s    0.42803     2 2pz   0.74565     2 2py  -0.31390     2 2pz  -0.84875
   19.1     0.00000     0.85212     1 1s   -0.26244     1 1s    0.51926     1 2px  -0.62668     1 2px   1.18235     2 1s    0.26376
                                    2 1s   -0.52026     2 2px  -0.62850     2 2px   1.18529     4 1s    0.36848     5 1s   -0.36945
   20.1     0.00000     0.96946     1 1s    0.30058     1 1s    0.39184     1 2px   0.31973     1 2py  -0.63543     1 2px  -0.61314
                                    1 2py   1.75559     2 1s    0.30020     2 1s    0.39331     2 2px  -0.31960     2 2py   0.63518
                                    2 2px   0.61196     2 2py  -1.75462     3 1s   -1.00392     4 1s    0.44350     5 1s    0.44301
                                    6 1s   -1.00344
   21.1     0.00000     1.02858     1 1s    0.82892     1 1s   -1.66931     1 2px   0.55520     1 2py  -0.51203     1 2pz   0.58728
                                    2 1s    0.82969     2 1s   -1.66992     2 2px  -0.55525     2 2py   0.51292     2 2pz  -0.58695
                                    3 1s    0.47064     3 1s    0.70935     4 1s    0.43570     5 1s    0.43516     6 1s    0.47081
                                    6 1s    0.70994
   22.1     0.00000     1.10024     1 1s    0.34788     1 1s   -0.64419     1 2px  -0.25843     1 2py  -0.48401     1 2px   0.47540
                                    1 2py   0.69202     2 1s   -0.41147     2 1s    0.77915     2 2px  -0.28371     2 2py  -0.51421
                                    2 2px   0.52535     2 2py   0.69321     4 1s   -0.63993     4 1s    1.28448     5 1s    0.71572
                                    5 1s   -1.40075
   23.1     0.00000     1.10194     1 1s   -0.60720     1 1s    1.28670     1 2py   0.30155     1 2px  -0.48613     2 1s   -0.56582
                                    2 1s    1.20949     2 2px   0.43105     3 1s   -0.25415     4 1s    0.72850     4 1s   -1.13699
                                    5 1s    0.65406     5 1s   -0.98999     6 1s   -0.25019
   24.1     0.00000     1.22658     1 1s    0.54464     1 1s   -1.67047     1 2px   0.38177     1 2py  -0.45182     1 2px  -1.17064
                                    1 2py   0.90908     1 2pz   0.43972     2 1s   -0.54581     2 1s    1.67225     2 2px   0.38105
                                    2 2py  -0.45165     2 2px  -1.16951     2 2py   0.90947     2 2pz   0.43970     3 1s    0.59564
                                    3 1s   -0.93458     4 1s    0.30385     5 1s   -0.30408     6 1s   -0.59438     6 1s    0.93295
   25.1     0.00000     1.24924     1 1s   -0.94736     1 1s    1.54716     1 2py  -0.33133     1 2px  -0.42097     1 2py   0.38369
                                    2 1s   -0.94912     2 1s    1.55024     2 2py   0.33229     2 2px   0.42245     2 2py  -0.38519
                                    3 1s    0.68282     3 1s   -1.27468     6 1s    0.68432     6 1s   -1.27805
   26.1     0.00000     1.28385     1 1s   -1.44299     1 1s    3.28954     1 2px   0.30164     1 2pz  -0.51618     2 1s    1.44103
                                    2 1s   -3.28624     2 2px   0.30200     2 2pz  -0.51553     3 1s    0.33838     3 1s   -1.07138
                                    4 1s   -0.31221     5 1s    0.31177     6 1s   -0.33738     6 1s    1.06883
   27.1     0.00000     1.74249     1 1s   -0.34603     1 3d1+ -0.35158     1 3d2+ -0.39309     1 3d1-  0.31130     2 1s    0.34614
                                    2 3d1+  0.35161     2 3d2+  0.39356     2 3d1- -0.31141
   28.1     0.00000     1.93950     1 3d2- -0.26027     1 3d1+  0.40566     1 3d1-  0.48480     2 3d2-  0.25983     2 3d1+ -0.40564
                                    2 3d1- -0.48512
   29.1     0.00000     1.96187     1 1s   -0.32863     1 2px  -0.25852     1 2px   0.26337     1 2py  -0.28772     1 3d1+ -0.28822
                                    1 3d2+  0.39252     1 3d1-  0.34953     2 1s   -0.32850     2 2px   0.25852     2 2px  -0.26339
                                    2 2py   0.28742     2 3d1+ -0.28826     2 3d2+  0.39239     2 3d1-  0.34985
   30.1     0.00000     2.01134     1 1s   -0.53231     1 2py  -0.26682     1 3d0   0.35810     1 3d1+  0.43375     1 3d1-  0.33542
                                    2 1s   -0.53221     2 2py   0.26684     2 3d0   0.35761     2 3d1+  0.43379     2 3d1-  0.33615
                                    3 1s    0.30132     6 1s    0.30136
   31.1     0.00000     2.28905     1 1s   -0.26879     1 1s    0.89924     1 3d0  -0.63837     1 3d2+ -0.32773     2 1s    0.27120
                                    2 1s   -0.90626     2 3d0   0.65316     2 3d2+  0.34378     3 1s   -0.43073     4 1s   -0.34413
                                    5 1s    0.36608     6 1s    0.42871
   32.1     0.00000     2.29298     1 2py  -0.48037     1 3d0  -0.40105     1 3d2+ -0.31872     1 3d1-  0.42614     2 2py   0.47695
                                    2 3d0  -0.37389     2 3d2+ -0.30403     2 3d1-  0.42380     4 1s   -0.51471     5 1s   -0.49979
   33.1     0.00000     2.34052     1 3d0  -0.33502     1 3d2-  0.25692     1 3d1+  0.35501     1 3d2+  0.42839     1 3d1- -0.31710
                                    2 3d0  -0.33866     2 3d2-  0.25506     2 3d1+  0.35555     2 3d2+  0.42604     2 3d1- -0.31777
   34.1     0.00000     2.48617     1 1s    0.29680     1 1s   -0.88576     1 2px  -0.58089     1 2py   0.43470     1 3d2- -0.57768
                                    1 3d1- -0.42825     2 1s   -0.29645     2 1s    0.88530     2 2px  -0.58101     2 2py   0.43328
                                    2 3d2-  0.57796     2 3d1-  0.42637     3 1s   -0.52354     4 1s    0.38850     5 1s   -0.38738
                                    6 1s    0.52332
   35.1     0.00000     2.75836     1 1s   -0.33271     1 2py  -0.25693     1 3d0   0.33834     1 3d2-  0.71184     2 1s   -0.33249
                                    2 2py   0.25691     2 3d0   0.33823     2 3d2-  0.71187     3 1s    0.68801     6 1s    0.68799
   36.1     0.00000     2.82926     1 1s    1.34714     1 2px   0.79551     1 2pz  -0.34558     1 3d0  -0.26735     1 3d2- -0.42770
                                    1 3d1+ -0.52436     1 3d2+  0.55745     2 1s   -1.34705     2 2px   0.79549     2 2pz  -0.34560
                                    2 3d0   0.26734     2 3d2-  0.42782     2 3d1+  0.52434     2 3d2+ -0.55727


 HOMO      8.1    -0.333610 =      -9.0780eV
 LUMO      9.1     0.075472 =       2.0537eV
 LUMO-HOMO         0.409082 =      11.1317eV


 **********************************************************************************************************************************
 DATASETS  * FILE   NREC   LENGTH (MB)   RECORD NAMES
              1      19       31.10       500      610      700      900      950      970     1000      129      960     1100   
                                          VAR    BASINP    GEOM    SYMINP    ZMAT    AOBASIS   BASIS     P2S    ABASIS      S 
                                         1400     1410     1200     1210     1080     1600     1650     1300     1700   
                                           T        V       H0       H01     AOSYM     SMH    MOLCAS    ERIS     OPER   

              2       4        2.86       700     1000      520     2100   
                                         GEOM     BASIS   MCVARS     RHF  

 PROGRAMS   *        TOTAL    HF-SCF       INT
 CPU TIMES  *         0.38      0.10      0.17
 REAL TIME  *         0.53 SEC
 DISK USED  *        35.97 MB
 **********************************************************************************************************************************


 PROGRAM * MULTI (Direct Multiconfiguration SCF)       Authors: P.J. Knowles, H.-J. Werner (1984)


 Number of closed-shell orbitals:   7 (   7 )
 Number of active  orbitals:        2 (   2 )
 Number of external orbitals:      27 (  27 )

 State symmetry 1

 Number of electrons:     2    Spin symmetry=Singlet   Space symmetry=1
 Number of states:        3
 Number of CSFs:          3   (4 determinants, 4 intermediate states)

 Molecular orbitals read from record     2100.2  Type=RHF/CANONICAL (state 1.1)

 Wavefunction dump at record             2140.2

 Convergence thresholds  0.10E-01 (gradient)  0.10E-05 (energy)  0.10E-02 (step length)

 Weight factors for state symmetry  1:    0.33333   0.33333   0.33333

 Number of orbital rotations:      257   (    14 Core/Active    189 Core/Virtual   0 Active/Active     54 Active/Virtual)
 Total number of variables:        269

 Micro-Iterations solved by the two-step solver

 ITER. MIC  NCI  NEG     ENERGY(VAR)     ENERGY(PROJ)   ENERGY CHANGE     GRAD(0)  GRAD(ORB)   GRAD(CI)     STEP       TIME

   1   13    6    0     -77.66963317     -77.67704680   -0.00741362    0.09259243 0.00087873 0.00000000  0.20D+00      0.39
   2   14    7    0     -77.67702222     -77.67807691   -0.00105470    0.03002401 0.00001375 0.00000000  0.87D-01      0.62
   3   12    6    0     -77.67816859     -77.67821175   -0.00004316    0.00653084 0.00000255 0.00000000  0.12D-01      0.75
   4   10    6    0     -77.67821197     -77.67821197   -0.00000001    0.00008438 0.00000000 0.00000000  0.14D-03      0.87
   5    5    3    0     -77.67821197     -77.67821197   -0.00000000    0.00000001 0.00000000 0.00000000  0.37D-07      0.93

 ** WVFN ****  CONVERGENCE REACHED, FINAL GRADIENT:  0.71D-13



 Results for state 1.1
 =====================

 !MCSCF STATE  1.1 Energy             -77.878570767610
 Nuclear energy                        29.58989900
 Kinetic energy                        77.44549110
 One electron energy                 -162.27750401
 Two electron energy                   54.80903424
 Virial ratio                           2.00559206

 !MCSCF STATE  1.1 Dipole moment        0.12377115     0.01052079    -0.02762598
 Dipole moment /Debye                   0.31457428     0.02673943    -0.07021365

 Results for state 2.1
 =====================

 !MCSCF STATE  2.1 Energy             -77.641057272015
 Nuclear energy                        29.58989900
 Kinetic energy                        77.61267524
 One electron energy                 -162.12271244
 Two electron energy                   54.89175616
 Virial ratio                           2.00036569

 !MCSCF STATE  2.1 Dipole moment       -0.17302728     0.04441042     0.03549836
 Dipole moment /Debye                  -0.43976267     0.11287265     0.09022193

 Results for state 3.1
 =====================

 !MCSCF STATE  3.1 Energy             -77.515007880876
 Nuclear energy                        29.58989900
 Kinetic energy                        77.79872822
 One electron energy                 -162.02803255
 Two electron energy                   54.92312567
 Virial ratio                           1.99635315

 !MCSCF STATE  3.1 Dipole moment        0.17300233    -0.05766328    -0.35397571
 Dipole moment /Debye                   0.43969926    -0.14655584    -0.89965758

 State-averaged charge density matrix saved on record  2140.2 (density set 1)

 !MCSCF expec         <1.1|DMX|1.1>     0.123771148370 au =     0.314574275273 Debye
 !MCSCF trans         <2.1|DMX|1.1>     1.114104322779 au =     2.831585264688 Debye
 !MCSCF expec         <2.1|DMX|2.1>    -0.173027276595 au =    -0.439762665649 Debye
 !MCSCF trans         <3.1|DMX|1.1>     0.107365812888 au =     0.272878802720 Debye
 !MCSCF trans         <3.1|DMX|2.1>     1.797424314790 au =     4.568297689985 Debye
 !MCSCF expec         <3.1|DMX|3.1>     0.173002329131 au =     0.439699259673 Debye

 !MCSCF expec         <1.1|DMY|1.1>     0.010520789215 au =     0.026739427454 Debye
 !MCSCF trans         <2.1|DMY|1.1>    -0.237026084891 au =    -0.602420756838 Debye
 !MCSCF expec         <2.1|DMY|2.1>     0.044410424969 au =     0.112872647892 Debye
 !MCSCF trans         <3.1|DMY|1.1>    -0.008403788115 au =    -0.021358899798 Debye
 !MCSCF trans         <3.1|DMY|2.1>    -0.379310809357 au =    -0.964048766846 Debye
 !MCSCF expec         <3.1|DMY|3.1>    -0.057663281712 au =    -0.146555843534 Debye

 !MCSCF expec         <1.1|DMZ|1.1>    -0.027625983475 au =    -0.070213647079 Debye
 !MCSCF trans         <2.1|DMZ|1.1>    -0.791399470632 au =    -2.011405066569 Debye
 !MCSCF expec         <2.1|DMZ|2.1>     0.035498361418 au =     0.090221925412 Debye
 !MCSCF trans         <3.1|DMZ|1.1>    -0.003367719643 au =    -0.008559328890 Debye
 !MCSCF trans         <3.1|DMZ|2.1>    -1.261182320797 au =    -3.205395762891 Debye
 !MCSCF expec         <3.1|DMZ|3.1>    -0.353975706406 au =    -0.899657575886 Debye


 NATURAL ORBITALS (state averaged)
 =================================

  Orbital  Occupation    Energy     Coefficients
    1.1     2.00000   -11.28432     2 1s    0.99626
    2.1     2.00000   -11.27028     1 1s   -0.99630
    3.1     2.00000    -0.95861     1 1s    0.28477     1 1s    0.27047     2 1s    0.29092     2 1s    0.27020
    4.1     2.00000    -0.83037     1 1s    0.25495     1 1s    0.28398     2 1s   -0.25286     2 1s   -0.27302
    5.1     2.00000    -0.58746     2 2py   0.40060
    6.1     2.00000    -0.57814     1 2py  -0.39360
    7.1     2.00000    -0.42503     1 2px   0.30957
    8.1     1.00000    -0.22053     1 2pz   0.25287     2 2px   0.28638     2 2pz   0.26402     2 2pz   0.29046
    9.1     1.00000    -0.05804     1 1s    0.29696     1 2pz   0.35285     1 2pz   0.42749     2 2pz  -0.42742     2 2pz  -0.49888
   10.1    -0.00000     0.24226     1 1s   -1.26001     1 2px   0.52010     1 2py   0.30734     1 2pz   0.30662     2 1s   -1.02226
                                    2 2px  -0.61919     2 2py  -0.40706     3 1s    0.72979     4 1s    1.07172     5 1s    1.16449
                                    6 1s    0.52440
   11.1    -0.00000     0.25365     1 1s   -1.30359     1 2px  -0.30880     1 2py  -0.27604     1 2pz   0.38505     2 1s    1.63925
                                    2 2py  -0.25099     2 2pz   0.32177     3 1s    0.96291     6 1s   -1.21007
   12.1    -0.00000     0.29069     1 1s   -0.99090     1 2px   0.33333     1 2py   0.59101     2 1s    0.77006     2 2px   0.25220
                                    2 2py   0.66228     4 1s    1.40447     5 1s   -1.35983
   13.1    -0.00000     0.33897     1 1s   -0.95669     1 2px   0.27535     1 2py  -1.12090     2 1s   -0.94893     2 2px  -0.39869
                                    2 2py   1.08463     3 1s    1.80025     4 1s   -0.59753     5 1s   -0.47458     6 1s    1.82288
   14.1    -0.00000     0.38017     1 2px   0.27592     1 2px   1.42200     1 2py  -0.72883     1 2pz  -0.46902     2 1s   -0.35047
                                    2 2px   0.25278     2 2px   1.39023     2 2py  -0.68445     2 2pz  -0.37315     3 1s    1.51852
                                    6 1s   -1.39754
   15.1    -0.00000     0.68696     1 2py  -0.37774     1 2px  -1.00813     1 2py   0.80594     2 2py  -0.40040     2 2px  -1.03682
                                    2 2py   0.87067     3 1s   -0.44489     3 1s   -0.32691     6 1s    0.45258     6 1s    0.35567
   16.1    -0.00000     0.77554     1 1s   -0.42330     1 2px  -0.52035     1 2py  -0.26242     1 2px   0.72685     1 2py   0.39120
                                    2 2px   0.62207     2 2py   0.30551     2 2pz  -0.27250     2 2px  -0.97101     2 2py  -0.43130
                                    5 1s    0.26435
   17.1    -0.00000     0.79760     1 1s    0.25928     1 2pz   0.66128     1 2px   0.27440     1 2pz  -0.53957     2 2pz   0.86164
                                    2 2pz  -0.84541
   18.1    -0.00000     0.83954     1 1s   -0.30046     1 1s    0.37747     1 2px  -0.27382     1 2pz  -0.82890     1 2px   0.38661
                                    1 2py   0.36718     1 2pz   0.94671     2 1s    0.29743     2 2pz   0.57082     2 2pz  -0.75542
   19.1    -0.00000     0.84749     1 1s    0.43047     1 2px  -0.61965     1 2pz   0.27705     1 2px   1.20962     1 2pz  -0.35282
                                    2 1s    0.34067     2 1s   -0.69987     2 2px  -0.58593     2 2px   1.11133     4 1s    0.40033
                                    5 1s   -0.34752
   20.1    -0.00000     0.96674     1 1s    0.33487     1 1s    0.32282     1 2px   0.31560     1 2py  -0.62944     1 2px  -0.58307
                                    1 2py   1.72715     2 1s    0.36260     2 2px  -0.30398     2 2py   0.64657     2 2px   0.54293
                                    2 2py  -1.74526     3 1s   -0.95537     4 1s    0.43712     5 1s    0.49671     6 1s   -0.95860
   21.1    -0.00000     1.02410     1 1s    0.81233     1 1s   -1.65964     1 2px   0.59099     1 2py  -0.56279     1 2pz   0.56808
                                    2 1s    0.77085     2 1s   -1.60896     2 2px  -0.53348     2 2py   0.61284     2 2pz  -0.57273
                                    3 1s    0.45574     3 1s    0.75158     4 1s    0.42708     5 1s    0.50934     6 1s    0.46654
                                    6 1s    0.74510
   22.1    -0.00000     1.08809     1 1s    0.33340     1 2py  -0.26453     1 2py   0.63427     2 1s   -0.65802     2 1s    1.34248
                                    2 2px  -0.36717     2 2py  -0.55322     2 2px   0.75929     2 2py   0.49179     3 1s   -0.27440
                                    4 1s    0.47144     5 1s    0.91847     5 1s   -1.69744
   23.1    -0.00000     1.09842     1 1s   -0.71178     1 1s    1.45372     1 2px   0.36505     1 2py   0.51516     1 2px  -0.69976
                                    1 2py  -0.39253     2 1s   -0.26927     2 1s    0.63523     2 2py  -0.41696     4 1s    0.95101
                                    4 1s   -1.64905
   24.1    -0.00000     1.22048     1 1s    0.75438     1 1s   -2.09503     1 2px   0.35373     1 2py  -0.41947     1 2px  -1.17746
                                    1 2py   0.90457     1 2pz   0.48469     2 1s   -0.63075     2 1s    1.91151     2 2px   0.35883
                                    2 2py  -0.43885     2 2px  -1.20932     2 2py   0.90918     2 2pz   0.48134     3 1s    0.52550
                                    3 1s   -0.75914     4 1s    0.32131     4 1s    0.27299     5 1s   -0.31494     6 1s   -0.58525
                                    6 1s    0.87355
   25.1    -0.00000     1.25182     1 1s   -0.79881     1 1s    1.19871     1 2py  -0.34182     1 2px  -0.48332     1 2py   0.43634
                                    2 1s   -1.09124     2 1s    1.89911     2 2px  -0.25861     2 2py   0.31603     2 2px   0.37252
                                    2 2py  -0.34161     3 1s    0.67733     3 1s   -1.22174     5 1s   -0.26862     6 1s    0.67839
                                    6 1s   -1.32839
   26.1    -0.00000     1.28296     1 1s   -1.44336     1 1s    3.18492     1 2px   0.25647     1 2py  -0.25618     1 2pz  -0.45591
                                    2 1s    1.30521     2 1s   -2.97222     2 2pz  -0.45628     3 1s    0.45230     3 1s   -1.25569
                                    4 1s   -0.30292     5 1s    0.29351     6 1s   -0.33799     6 1s    1.06444
   27.1    -0.00000     1.73689     1 1s   -0.36127     1 3d1+ -0.34100     1 3d2+ -0.38431     1 3d1-  0.31256     2 1s    0.33819
                                    2 3d1+  0.35977     2 3d2+  0.40574     2 3d1- -0.30972
   28.1    -0.00000     1.93373     1 3d1+  0.38394     1 3d1-  0.44943     2 3d2-  0.26760     2 3d1+ -0.42367     2 3d1- -0.51882
   29.1    -0.00000     1.95680     1 1s   -0.32376     1 2px  -0.26666     1 2px   0.25423     1 2py  -0.27449     1 3d1+ -0.27649
                                    1 3d2+  0.39683     1 3d1-  0.35786     2 1s   -0.32692     2 2px   0.25803     2 2px  -0.27034
                                    2 2py   0.28328     2 3d1+ -0.31535     2 3d2+  0.38609     2 3d1-  0.32471
   30.1    -0.00000     2.00910     1 1s   -0.48904     1 2py  -0.26709     1 3d0   0.33495     1 3d1+  0.46268     1 3d2+  0.25088
                                    1 3d1-  0.36550     2 1s   -0.56286     2 2py   0.27031     2 3d0   0.36915     2 3d1+  0.40045
                                    2 3d1-  0.30820     3 1s    0.29750     6 1s    0.30760
   31.1    -0.00000     2.28244     1 1s    0.68765     1 3d0  -0.33955     2 1s    0.26076     2 1s   -0.83978     2 2py  -0.36197
                                    2 3d0   0.72802     2 3d2+  0.46616     2 3d1- -0.31178     3 1s   -0.37855     5 1s    0.58491
                                    6 1s    0.30767
   32.1    -0.00000     2.28986     1 1s    0.60184     1 2py  -0.42546     1 3d0  -0.70131     1 3d2+ -0.42836     1 3d1-  0.35478
                                    2 1s   -0.37234     2 2py   0.34658     2 3d2-  0.25550     2 3d1-  0.31579     4 1s   -0.60487
                                    6 1s    0.30549
   33.1    -0.00000     2.33316     1 3d0  -0.28802     1 3d2-  0.25173     1 3d1+  0.36392     1 3d2+  0.44870     1 3d1- -0.33484
                                    2 3d0  -0.37879     2 3d2-  0.25527     2 3d1+  0.33772     2 3d2+  0.40580     2 3d1- -0.31157
   34.1    -0.00000     2.47966     1 1s    0.29819     1 1s   -0.89112     1 2px  -0.57186     1 2py   0.43892     1 3d2- -0.57244
                                    1 3d1- -0.43365     2 1s   -0.29562     2 1s    0.86895     2 2px  -0.58469     2 2py   0.42321
                                    2 3d2-  0.58544     2 3d1-  0.41869     3 1s   -0.51096     4 1s    0.39622     5 1s   -0.37429
                                    6 1s    0.54544
   35.1    -0.00000     2.75328     1 2px   0.27502     1 2py  -0.28336     1 3d0   0.31698     1 3d2-  0.69004     1 3d1+ -0.29446
                                    2 1s   -0.45982     2 3d0   0.36056     2 3d2-  0.72662     3 1s    0.68582     6 1s    0.69051
   36.1    -0.00000     2.82484     1 1s   -0.25283     1 1s    1.37800     1 2px   0.78340     1 2pz  -0.34666     1 3d0  -0.29702
                                    1 3d2- -0.48065     1 3d1+ -0.50457     1 3d2+  0.55076     2 1s   -1.32296     2 2px   0.81094
                                    2 2py  -0.25889     2 2pz  -0.34722     2 3d2-  0.37048     2 3d1+  0.54288     2 3d2+ -0.55971
                                    3 1s   -0.25053


 Natural orbital dump (state averaged) at molpro section  2140.2    (Orbital set 2)



 **********************************************************************************************************************************
 DATASETS  * FILE   NREC   LENGTH (MB)   RECORD NAMES
              1      20       31.83       500      610      700      900      950      970     1000      129      960     1100   
                                          VAR    BASINP    GEOM    SYMINP    ZMAT    AOBASIS   BASIS     P2S    ABASIS      S 
                                         1400     1410     1200     1210     1080     1600     1650     1300     1700     1380   
                                           T        V       H0       H01     AOSYM     SMH    MOLCAS    ERIS     OPER     JKOP   

              2       5        5.42       700     1000      520     2100     2140   
                                         GEOM     BASIS   MCVARS     RHF     MCSCF   

 PROGRAMS   *        TOTAL     MULTI    HF-SCF       INT
 CPU TIMES  *         1.36      0.98      0.10      0.17
 REAL TIME  *         1.59 SEC
 DISK USED  *        39.01 MB
 **********************************************************************************************************************************
 Molecular orbitals read from record     2140.2  Type=MCSCF/NATURAL (state averaged)
 Occupation numbers read from record     2140.2  Type=MCSCF/NATURAL (state averaged)
 Orbital energies read from record       2140.2  Type=MCSCF/NATURAL (state averaged)
 Redundancy group numbers read from rec  2140.2  Type=MCSCF/NATURAL (state averaged)

 MULTI/6-31G* energy=    -77.515007880876

           MULTI          HF-SCF
    -77.51500788    -77.86584191
 **********************************************************************************************************************************
 Molpro calculation terminated
