
 Primary working directories    : /scratch.local/johan406.molpro_temp/molpro.2cf0croCKM
 Secondary working directories  : /scratch.local/johan406.molpro_temp/molpro.2cf0croCKM
 Wavefunction directory         : /home/goodpast/johan406/wfu/
 Main file repository           : /scratch.local/johan406.molpro_temp/molpro.2cf0croCKM/

 id        : roweumn

 Nodes     nprocs
 acn06        1

 Using customized tuning parameters: mindgm=1; mindgv=20; mindgc=4; mindgr=1; noblas=0; minvec=7
 default implementation of scratch files=df  


 Variables initialized (934), CPU time= 0.01 sec
                                                                                 !leave this line blank
 
 gprint, orbitals=30
 memory, 125., m
 symmetry, nosym
 nelect=16
 basis=6-31g*
 
 geometry={
 C -0.648 0.141 0.296
 C 0.657 -0.191 -0.356
 H -1.258 0.899 -0.099
 H -0.992 -0.889 -0.102
 H 1.001 0.839 0.042
 H 1.267 -0.949 0.038
 }
 
 hf
 {multi,
 closed 7
 occ 9
 wf,spin=0;STATE,3
 }
 
 Commands  initialized (763), CPU time= 0.01 sec, 617 directives.
 Default parameters read. Elapsed time= 0.07 sec

 Checking input...
 Passed
1


                                         ***  PROGRAM SYSTEM MOLPRO  ***
                                       Copyright, TTI GmbH Stuttgart, 2015
                                    Version 2019.2 linked Oct 25 2019 22:50:27


 **********************************************************************************************************************************
 LABEL *                                                                                 
  64 bit serial version                                                                  DATE: 15-Mar-23          TIME: 16:14:22  
 **********************************************************************************************************************************

 SHA1:             8dbd9ae1082e4ce945b0f27595c9eb2d4aa09004
 **********************************************************************************************************************************


 Variable memory set to  125000000 words,  buffer space 

 SETTING NELECT         =        16.00000000                                  
 SETTING BASIS          =    6-31G*
 ZSYMEL=NOSYM


Geometry recognized as XYZ



 Recomputing integrals since basis changed


 Using spherical harmonics

 Library entry C      S 6-31G                selected for orbital group  1
 Library entry C      P 6-31G                selected for orbital group  1
 Library entry C      D 6-31G*               selected for orbital group  1
 Library entry H      S 6-31G                selected for orbital group  2


 PROGRAM * SEWARD (Integral evaluation for generally contracted gaussian basis sets)     Author: Roland Lindh, 1990

 Geometry written to block  1 of record 700


 Point group  C1  



 ATOMIC COORDINATES

 NR  ATOM    CHARGE       X              Y              Z

   1  C       6.00   -1.224542529    0.266451384    0.559358933
   2  C       6.00    1.241550064   -0.360937690   -0.672742500
   3  H       1.00   -2.377275465    1.698863786   -0.187082886
   4  H       1.00   -1.874608316   -1.679966525   -0.192752065
   5  H       1.00    1.891615851    1.585480219    0.079368497
   6  H       1.00    2.394283000   -1.793350092    0.071809593

 Bond lengths in Bohr (Angstrom)

 1-2  2.827243121  1-3  1.984382499  1-4  2.185588972  2-5  2.185588972  2-6  1.983672436
     ( 1.496112629)     ( 1.050089996)     ( 1.156563876)     ( 1.156563876)     ( 1.049714247)

 Bond angles

  1-2-5   84.94262489   1-2-6  120.23503501   2-1-3  120.19557160   2-1-4   84.94262489

  3-1-4  109.91506975   5-2-6  109.94248017

 NUCLEAR CHARGE:                   16
 NUMBER OF PRIMITIVE AOS:          72
 NUMBER OF SYMMETRY AOS:           70
 NUMBER OF CONTRACTIONS:           36   (   36A   )
 NUMBER OF CORE ORBITALS:           2   (    2A   )
 NUMBER OF VALENCE ORBITALS:       12   (   12A   )


 NUCLEAR REPULSION ENERGY   32.06776979

 Eigenvalues of metric

         1 0.103E-01 0.261E-01 0.546E-01 0.672E-01 0.762E-01 0.216E+00 0.243E+00 0.282E+00


 Contracted 2-electron integrals neglected if value below      1.0D-11
 AO integral compression algorithm  1   Integral accuracy      1.0D-11

     1.573 MB (compressed) written to integral file ( 58.8%)


 NUMBER OF SORTED TWO-ELECTRON INTEGRALS:     222111.     BUFFER LENGTH:  32768
 NUMBER OF SEGMENTS:   1  SEGMENT LENGTH:     222111      RECORD LENGTH: 524288

 Memory used in sort:       0.78 MW

 SORT1 READ      284735. AND WROTE      212529. INTEGRALS IN      1 RECORDS. CPU TIME:     0.00 SEC, REAL TIME:     0.01 SEC
 SORT2 READ      212529. AND WROTE      222111. INTEGRALS IN      6 RECORDS. CPU TIME:     0.02 SEC, REAL TIME:     0.02 SEC

 FILE SIZES:   FILE 1:    31.7 MBYTE,  FILE 4:     4.2 MBYTE,   TOTAL:     35.9 MBYTE

 OPERATOR DM      FOR CENTER  0  COORDINATES:    0.000000    0.000000    0.000000


 **********************************************************************************************************************************
 DATASETS  * FILE   NREC   LENGTH (MB)   RECORD NAMES
              1      19       31.13       500      610      700      900      950      970     1000      129      960     1100   
                                          VAR    BASINP    GEOM    SYMINP    ZMAT    AOBASIS   BASIS     P2S    ABASIS      S 
                                         1400     1410     1200     1210     1080     1600     1650     1300     1700   
                                           T        V       H0       H01     AOSYM     SMH    MOLCAS    ERIS     OPER   

 PROGRAMS   *        TOTAL       INT
 CPU TIMES  *         0.26      0.17
 REAL TIME  *         0.41 SEC
 DISK USED  *        36.24 MB
 **********************************************************************************************************************************


 PROGRAM * RHF-SCF (CLOSED SHELL)       Authors: W. Meyer, H.-J. Werner


 NUMBER OF ELECTRONS:       8+    8-    SPACE SYMMETRY=1    SPIN SYMMETRY: Singlet 
 CONVERGENCE THRESHOLDS:    1.00E-05 (Density)    1.00E-07 (Energy)
 MAX. NUMBER OF ITERATIONS:       60
 INTERPOLATION TYPE:            DIIS
 INTERPOLATION STEPS:              2 (START)      1 (STEP)
 LEVEL SHIFTS:                  0.00 (CLOSED)  0.00 (OPEN) 



 Orbital guess generated from atomic densities. Full valence occupancy:    8

 Molecular orbital dump at record        2100.2

 Initial occupancy:   8

 ITERATION    DDIFF          GRAD             ENERGY        2-EL.EN.            DIPOLE MOMENTS         DIIS   ORB.
    1      0.000D+00      0.000D+00       -77.83973249    115.274598    0.00009    0.00007   -0.00036    0    start
    2      0.000D+00      0.697D-02       -77.85802178    114.352624    0.00044   -0.00018   -0.00054    1    diag
    3      0.750D-02      0.225D-02       -77.86024761    114.733483    0.00036   -0.00011   -0.00041    2    diag
    4      0.300D-02      0.832D-03       -77.86073883    114.609877    0.00053   -0.00019   -0.00058    3    diag
    5      0.161D-02      0.329D-03       -77.86092123    114.618040    0.00041   -0.00010   -0.00039    4    diag
    6      0.112D-02      0.140D-03       -77.86097214    114.619458    0.00081   -0.00034   -0.00092    5    diag
    7      0.651D-03      0.419D-04       -77.86097605    114.620524    0.00006    0.00013    0.00008    6    diag
    8      0.174D-03      0.178D-04       -77.86097640    114.620818    0.00075   -0.00031   -0.00085    7    diag
    9      0.448D-04      0.855D-05       -77.86097647    114.620910    0.00050   -0.00015   -0.00051    8    diag
   10      0.218D-04      0.214D-05       -77.86097648    114.620875    0.00052   -0.00016   -0.00054    9    orth
   11      0.556D-05      0.412D-06       -77.86097648    114.620879    0.00052   -0.00016   -0.00054    0    orth

 Final occupancy:   8

 !RHF STATE  1.1 Energy               -77.860976480509
 Nuclear energy                        32.06776979
 One-electron energy                 -167.23918587
 Two-electron energy                   57.31043960
 Virial quotient                       -1.00137097
 !RHF STATE  1.1 Dipole moment          0.00051934    -0.00016297    -0.00053616
 Dipole moment /Debye                   0.00131995    -0.00041419    -0.00136270

 ELECTRON ORBITALS
 =================

  Orbital  Occupation    Energy     Coefficients
    1.1     2.00000   -11.25989     1 1s    0.69396     2 1s    0.71478
    2.1     2.00000   -11.25916     1 1s    0.71487     2 1s   -0.69405
    3.1     2.00000    -1.02269     1 1s    0.28389     1 1s    0.25190     2 1s    0.28401     2 1s    0.25195
    4.1     2.00000    -0.79761     1 1s    0.27684     2 1s   -0.27670
    5.1     2.00000    -0.62024     1 2py   0.30549     2 2py   0.30619
    6.1     2.00000    -0.57436     1 2px   0.28653     2 2px  -0.28656
    7.1     2.00000    -0.39569     1 2px   0.28577     2 2px  -0.28593     4 1s   -0.27292     5 1s   -0.27289
    8.1     2.00000    -0.37951     1 2pz   0.31127     1 2pz   0.29324     2 2pz   0.31129     2 2pz   0.29325
    9.1     0.00000     0.06827     1 1s   -0.38277     1 2pz  -0.33641     1 2pz  -0.47888     2 1s   -0.38254     2 2pz   0.33654
                                    2 2pz   0.47914
   10.1     0.00000     0.23199     1 1s   -1.11231     1 2px   0.48033     1 2py   0.35980     1 2pz   0.40452     2 1s   -1.11181
                                    2 2px  -0.48084     2 2py  -0.35977     2 2pz  -0.40412     3 1s    0.59886     4 1s    1.07592
                                    5 1s    1.07614     6 1s    0.59885
   11.1     0.00000     0.29190     1 1s   -1.63447     1 2py  -0.39473     1 2pz   0.45410     2 1s    1.63426     2 2py  -0.39343
                                    2 2pz   0.45287     3 1s    1.49655     6 1s   -1.49477
   12.1     0.00000     0.32183     1 1s   -0.85475     1 2px   0.40383     1 2py  -1.07529     1 2pz   0.42243     2 1s   -0.85432
                                    2 2px  -0.40261     2 2py   1.07892     2 2pz  -0.42167     3 1s    1.69303     4 1s   -0.45955
                                    5 1s   -0.46578     6 1s    1.69604
   13.1     0.00000     0.33018     1 1s    1.04348     1 2px  -0.29397     1 2py  -0.73248     1 2pz  -0.28190     2 1s   -1.04641
                                    2 2px  -0.29532     2 2py  -0.72838     2 2pz  -0.28336     4 1s   -1.63854     5 1s    1.63660
   14.1     0.00000     0.41553     1 1s    1.69148     1 2px   1.71342     1 2py  -0.67287     1 2pz  -0.69491     2 1s   -1.69024
                                    2 2px   1.71382     2 2py  -0.67392     2 2pz  -0.69494     3 1s    0.79352     4 1s   -0.25666
                                    5 1s    0.25712     6 1s   -0.79555
   15.1     0.00000     0.71318     1 2px  -0.55232     1 2px   0.91870     2 2px   0.55241     2 2px  -0.91941     3 1s    0.26375
                                    4 1s   -0.39749     5 1s   -0.39740     6 1s    0.26448
   16.1     0.00000     0.74285     1 2px   0.25743     1 2py  -0.35257     1 2px  -0.72146     1 2py   0.78872     2 2px   0.25726
                                    2 2py  -0.35238     2 2px  -0.72205     2 2py   0.78956     3 1s   -0.48722     6 1s    0.48735
   17.1     0.00000     0.80045     1 2pz   0.73894     1 2pz  -0.70947     2 2pz   0.74346     2 2pz  -0.71328
   18.1     0.00000     0.80229     1 1s   -0.33539     1 2py   0.57550     1 2pz   0.32691     1 2py  -1.29679     1 2pz  -0.27299
                                    2 1s   -0.33781     2 2py  -0.57453     2 2pz  -0.31751     2 2py   1.29555     2 2pz   0.26423
                                    3 1s    0.33954     4 1s   -0.25016     6 1s    0.34223
   19.1     0.00000     0.86658     1 1s   -0.34366     1 2pz  -0.66616     1 2px   0.48161     1 2py  -0.65286     1 2pz   0.94916
                                    2 1s   -0.34364     2 2pz   0.66576     2 2px  -0.48258     2 2py   0.65324     2 2pz  -0.94847
                                    3 1s    0.30498     6 1s    0.30549
   20.1     0.00000     0.96016     1 1s   -0.30602     1 2px   0.71013     1 2py   0.35691     1 2px  -1.12003     1 2py  -0.73195
                                    2 1s    0.30497     2 2px   0.70981     2 2py   0.35720     2 2px  -1.11990     2 2py  -0.73229
                                    4 1s   -0.88725     5 1s    0.88784
   21.1     0.00000     1.11877     1 1s   -0.69176     1 1s    1.27216     1 2px   0.26643     1 2py   0.37015     1 2px  -0.37262
                                    1 2py  -0.33414     2 1s   -0.69217     2 1s    1.27340     2 2px  -0.26609     2 2py  -0.37038
                                    2 2px   0.37213     2 2py   0.33441     4 1s    0.66787     4 1s   -1.16730     5 1s    0.66802
                                    5 1s   -1.16760
   22.1     0.00000     1.14450     1 1s    0.38394     1 2py   0.58706     1 2py  -0.81573     2 1s   -0.37685     2 2py   0.58630
                                    2 2py  -0.81703     3 1s    0.54759     4 1s    0.68680     4 1s   -1.18876     5 1s   -0.68824
                                    5 1s    1.18674     6 1s   -0.54827
   23.1     0.00000     1.18560     1 1s    0.89440     1 1s   -1.68410     1 2px   0.40135     1 2py  -0.42882     1 2pz   0.80060
                                    2 1s    0.90119     2 1s   -1.72191     2 2px  -0.37078     2 2py   0.40666     2 2pz  -0.80911
                                    3 1s    0.60904     3 1s    0.55814     4 1s    0.36594     4 1s    0.30464     5 1s    0.37219
                                    5 1s    0.30853     6 1s    0.62226     6 1s    0.53323
   24.1     0.00000     1.19337     1 1s    0.59541     1 2px  -0.37920     1 2py   0.28613     1 2px   1.17865     1 2py  -0.72312
                                    2 1s   -0.56788     2 2px  -0.37418     2 2py   0.28435     2 2px   1.18481     2 2py  -0.72965
                                    3 1s   -0.62154     3 1s    1.22244     4 1s   -0.42779     5 1s    0.42122     6 1s    0.60485
                                    6 1s   -1.22668
   25.1     0.00000     1.23704     1 1s   -0.94329     1 1s    1.58943     1 2py  -0.38939     1 2px  -0.42383     1 2py   0.51416
                                    1 2pz  -0.42718     2 1s   -0.93901     2 1s    1.57135     2 2py   0.39226     2 2px   0.43431
                                    2 2py  -0.52175     2 2pz   0.42219     3 1s    0.60399     3 1s   -1.35241     6 1s    0.60800
                                    6 1s   -1.35892
   26.1     0.00000     1.28176     1 1s   -1.61941     1 1s    4.85353     1 2px   1.07294     1 2py  -0.64361     1 2pz  -1.10246
                                    2 1s    1.61720     2 1s   -4.84882     2 2px   1.07386     2 2py  -0.64411     2 2pz  -1.09894
                                    3 1s   -0.64367     4 1s   -0.62555     5 1s    0.62378     6 1s    0.64469
   27.1     0.00000     1.69074     1 1s   -0.46072     1 3d0  -0.32602     1 3d2-  0.30165     1 3d2+  0.33482     2 1s    0.46099
                                    2 3d0   0.32613     2 3d2- -0.30160     2 3d2+ -0.33476
   28.1     0.00000     1.92594     1 1s   -1.01684     1 2pz   0.25405     1 3d2-  0.28997     1 3d1+ -0.40926     1 3d1- -0.39727
                                    2 1s    1.01386     2 2pz   0.25255     2 3d2- -0.28998     2 3d1+  0.41050     2 3d1-  0.39838
                                    3 1s    0.30035     6 1s   -0.29972
   29.1     0.00000     1.96108     1 1s    0.31624     1 1s   -0.70577     1 2pz   0.34515     1 3d0   0.35914     1 3d1+  0.36273
                                    1 3d2+  0.32635     1 3d1-  0.32206     2 1s    0.31625     2 1s   -0.70625     2 2pz  -0.34499
                                    2 3d0   0.35905     2 3d1+  0.36125     2 3d2+  0.32566     2 3d1-  0.32043     3 1s    0.32085
                                    6 1s    0.32109
   30.1     0.00000     2.19982     1 1s   -0.47692     1 1s    0.27970     1 2px  -0.26381     1 2px   0.30675     1 3d2- -0.27518
                                    1 3d1+ -0.35266     1 3d2+  0.39235     2 1s   -0.47561     2 1s    0.27392     2 2px   0.26368
                                    2 2px  -0.30588     2 3d2- -0.27428     2 3d1+ -0.35216     2 3d2+  0.39414
   31.1     0.00000     2.22883     1 1s   -0.34517     1 1s    1.61807     1 2px   0.38866     1 2py  -0.27941     1 2pz  -0.41781
                                    1 3d0  -0.59340     1 3d2+ -0.34811     2 1s    0.34725     2 1s   -1.61946     2 2px   0.39006
                                    2 2py  -0.28040     2 2pz  -0.41813     2 3d0   0.59466     2 3d2+  0.34637     3 1s   -0.38320
                                    4 1s   -0.37383     5 1s    0.37369     6 1s    0.38284
   32.1     0.00000     2.34084     1 2py   0.39079     1 3d0   0.50966     1 3d2- -0.35319     1 3d1+ -0.25210     1 3d1- -0.34770
                                    2 2py  -0.39128     2 3d0   0.50925     2 3d2- -0.35361     2 3d1+ -0.25205     2 3d1- -0.34798
                                    3 1s   -0.25179     4 1s    0.39760     5 1s    0.39770     6 1s   -0.25219
   33.1     0.00000     2.59209     1 1s   -0.32134     1 2py   0.32851     1 3d2- -0.51807     1 3d1- -0.57628     2 1s    0.32561
                                    2 2py   0.33688     2 3d2-  0.50825     2 3d1-  0.58818     3 1s   -0.54674     4 1s    0.38786
                                    5 1s   -0.39676     6 1s    0.54557
   34.1     0.00000     2.60178     1 2py   0.35287     1 3d2-  0.34663     1 3d2+  0.54052     1 3d1- -0.51820     2 2py  -0.34485
                                    2 3d2-  0.35941     2 3d2+  0.53980     2 3d1- -0.50376     4 1s    0.37595     5 1s    0.36634
   35.1     0.00000     2.74672     1 3d0   0.37239     1 3d2-  0.57673     1 3d1+ -0.46636     2 3d0   0.37280     2 3d2-  0.57797
                                    2 3d1+ -0.46717     3 1s    0.56805     6 1s    0.57020
   36.1     0.00000     2.93330     1 1s   -1.68728     1 2px  -0.38205     1 2px  -0.87660     1 2pz   0.42765     1 3d2-  0.34526
                                    1 3d1+  0.66452     1 3d2+ -0.64190     2 1s    1.68724     2 2px  -0.38205     2 2px  -0.87649
                                    2 2pz   0.42768     2 3d2- -0.34569     2 3d1+ -0.66414     2 3d2+  0.64183


 HOMO      8.1    -0.379506 =     -10.3269eV
 LUMO      9.1     0.068266 =       1.8576eV
 LUMO-HOMO         0.447772 =      12.1845eV


 **********************************************************************************************************************************
 DATASETS  * FILE   NREC   LENGTH (MB)   RECORD NAMES
              1      19       31.13       500      610      700      900      950      970     1000      129      960     1100   
                                          VAR    BASINP    GEOM    SYMINP    ZMAT    AOBASIS   BASIS     P2S    ABASIS      S 
                                         1400     1410     1200     1210     1080     1600     1650     1300     1700   
                                           T        V       H0       H01     AOSYM     SMH    MOLCAS    ERIS     OPER   

              2       4        2.86       700     1000      520     2100   
                                         GEOM     BASIS   MCVARS     RHF  

 PROGRAMS   *        TOTAL    HF-SCF       INT
 CPU TIMES  *         0.36      0.10      0.17
 REAL TIME  *         0.58 SEC
 DISK USED  *        36.24 MB
 **********************************************************************************************************************************


 PROGRAM * MULTI (Direct Multiconfiguration SCF)       Authors: P.J. Knowles, H.-J. Werner (1984)


 Number of closed-shell orbitals:   7 (   7 )
 Number of active  orbitals:        2 (   2 )
 Number of external orbitals:      27 (  27 )

 State symmetry 1

 Number of electrons:     2    Spin symmetry=Singlet   Space symmetry=1
 Number of states:        3
 Number of CSFs:          3   (4 determinants, 4 intermediate states)

 Molecular orbitals read from record     2100.2  Type=RHF/CANONICAL (state 1.1)

 Wavefunction dump at record             2140.2

 Convergence thresholds  0.10E-01 (gradient)  0.10E-05 (energy)  0.10E-02 (step length)

 Weight factors for state symmetry  1:    0.33333   0.33333   0.33333

 Number of orbital rotations:      257   (    14 Core/Active    189 Core/Virtual   0 Active/Active     54 Active/Virtual)
 Total number of variables:        269

 Micro-Iterations solved by the two-step solver

 ITER. MIC  NCI  NEG     ENERGY(VAR)     ENERGY(PROJ)   ENERGY CHANGE     GRAD(0)  GRAD(ORB)   GRAD(CI)     STEP       TIME

   1   13    6    1     -77.62771584     -77.65236155   -0.02464571    0.10601860 0.00099818 0.00000000  0.30D+00      0.43
   2   12    7    0     -77.70106055     -77.71236811   -0.01130757    0.12657278 0.00001511 0.00000000  0.13D+00      0.56
   3    8    5    0     -77.71261579     -77.71265244   -0.00003664    0.00766581 0.00004227 0.00000000  0.74D-02      0.66
   4    9    5    0     -77.71265253     -77.71265253   -0.00000000    0.00003020 0.00000000 0.00000000  0.37D-04      0.75

 ** WVFN ****  CONVERGENCE REACHED, FINAL GRADIENT:  0.69D-09



 Results for state 1.1
 =====================

 !MCSCF STATE  1.1 Energy             -77.854322229519
 Nuclear energy                        32.06776979
 Kinetic energy                        77.81323035
 One electron energy                 -167.31799201
 Two electron energy                   57.39589999
 Virial ratio                           2.00052808

 !MCSCF STATE  1.1 Dipole moment        0.00053708    -0.00013302    -0.00057176
 Dipole moment /Debye                   0.00136504    -0.00033808    -0.00145318

 Results for state 2.1
 =====================

 !MCSCF STATE  2.1 Energy             -77.740025896473
 Nuclear energy                        32.06776979
 Kinetic energy                        77.89852905
 One electron energy                 -167.00823706
 Two electron energy                   57.20044137
 Virial ratio                           1.99796526

 !MCSCF STATE  2.1 Dipole moment        0.00047999    -0.00026999    -0.00046801
 Dipole moment /Debye                   0.00121993    -0.00068621    -0.00118949

 Results for state 3.1
 =====================

 !MCSCF STATE  3.1 Energy             -77.543609477745
 Nuclear energy                        32.06776979
 Kinetic energy                        77.97534564
 One electron energy                 -166.73952011
 Two electron energy                   57.12814084
 Virial ratio                           1.99446317

 !MCSCF STATE  3.1 Dipole moment        0.00036635    -0.00038342    -0.00029810
 Dipole moment /Debye                   0.00093112    -0.00097450    -0.00075765

 State-averaged charge density matrix saved on record  2140.2 (density set 1)

 !MCSCF expec         <1.1|DMX|1.1>     0.000537081672 au =     0.001365036036 Debye
 !MCSCF trans         <2.1|DMX|1.1>    -0.000171028396 au =    -0.000434682351 Debye
 !MCSCF expec         <2.1|DMX|2.1>     0.000479989368 au =     0.001219931377 Debye
 !MCSCF trans         <3.1|DMX|1.1>    -0.000002116612 au =    -0.000005379540 Debye
 !MCSCF trans         <3.1|DMX|2.1>    -0.000181634723 au =    -0.000461639179 Debye
 !MCSCF expec         <3.1|DMX|3.1>     0.000366354117 au =     0.000931118296 Debye

 !MCSCF expec         <1.1|DMY|1.1>    -0.000133019960 au =    -0.000338080870 Debye
 !MCSCF trans         <2.1|DMY|1.1>     0.000066725567 au =     0.000169588367 Debye
 !MCSCF expec         <2.1|DMY|2.1>    -0.000269991926 au =    -0.000686206079 Debye
 !MCSCF trans         <3.1|DMY|1.1>     0.000014706529 au =     0.000037377820 Debye
 !MCSCF trans         <3.1|DMY|2.1>     0.000079740693 au =     0.000202667350 Debye
 !MCSCF expec         <3.1|DMY|3.1>    -0.000383421581 au =    -0.000974496621 Debye

 !MCSCF expec         <1.1|DMZ|1.1>    -0.000571760735 au =    -0.001453175650 Debye
 !MCSCF trans         <2.1|DMZ|1.1>     0.000201159525 au =     0.000511263025 Debye
 !MCSCF expec         <2.1|DMZ|2.1>    -0.000468013685 au =    -0.001189494223 Debye
 !MCSCF trans         <3.1|DMZ|1.1>    -0.000000700433 au =    -0.000001780206 Debye
 !MCSCF trans         <3.1|DMZ|2.1>     0.000211594373 au =     0.000537784027 Debye
 !MCSCF expec         <3.1|DMZ|3.1>    -0.000298102855 au =    -0.000757652254 Debye


 NATURAL ORBITALS (state averaged)
 =================================

  Orbital  Occupation    Energy     Coefficients
    1.1     2.00000   -11.25379     1 1s    0.71285     2 1s    0.69592
    2.1     2.00000   -11.25318     1 1s    0.69597     2 1s   -0.71289
    3.1     2.00000    -1.03351     1 1s    0.27875     2 1s    0.27883
    4.1     2.00000    -0.79616     1 1s    0.30345     2 1s   -0.30336
    5.1     2.00000    -0.62389     1 2py   0.29975     2 2py   0.30038
    6.1     2.00000    -0.57288     1 2py  -0.25344     2 2py   0.25271
    7.1     2.00000    -0.40869     1 2pz  -0.32944     1 2pz  -0.28856     2 2pz  -0.32933     2 2pz  -0.28850
    8.1     1.00000    -0.23802     1 2px   0.32087     2 2px  -0.32087     4 1s   -0.27980     5 1s   -0.27976
    9.1     1.00000    -0.08340     1 2pz  -0.41286     1 2pz  -0.43587     2 2pz   0.41301     2 2pz   0.43604
   10.1    -0.00000     0.21991     1 1s   -1.11557     1 2px   0.47659     1 2py   0.38001     1 2pz   0.34637     2 1s   -1.11498
                                    2 2px  -0.47703     2 2py  -0.37993     2 2pz  -0.34595     3 1s    0.55844     4 1s    1.08801
                                    5 1s    1.08805     6 1s    0.55840
   11.1    -0.00000     0.29140     1 1s   -1.78856     1 2py  -0.27548     1 2pz   0.48502     2 1s    1.78800     2 2py  -0.27395
                                    2 2pz   0.48378     3 1s    1.47748     6 1s   -1.47525
   12.1    -0.00000     0.31534     1 1s    0.91163     1 2py  -0.84933     1 2pz  -0.26288     2 1s   -0.90971     2 2py  -0.85125
                                    2 2pz  -0.26221     4 1s   -1.64494     5 1s    1.64558
   13.1    -0.00000     0.32430     1 1s   -0.90761     1 2px   0.40867     1 2py  -1.06741     1 2pz   0.40183     2 1s   -0.91323
                                    2 2px  -0.40885     2 2py   1.06679     2 2pz  -0.40269     3 1s    1.71361     4 1s   -0.42066
                                    5 1s   -0.41759     6 1s    1.71679
   14.1    -0.00000     0.42075     1 1s    1.54606     1 2px   1.72864     1 2py  -0.55968     1 2pz  -0.63774     2 1s   -1.54483
                                    2 2px   1.72903     2 2py  -0.56072     2 2pz  -0.63779     3 1s    0.79223     6 1s   -0.79423
   15.1    -0.00000     0.70944     1 2px  -0.53577     1 2px   0.89232     2 2px   0.53582     2 2px  -0.89289     3 1s    0.25645
                                    4 1s    0.27519     4 1s   -0.45130     5 1s    0.27529     5 1s   -0.45127     6 1s    0.25712
   16.1    -0.00000     0.74172     1 2px   0.25339     1 2py  -0.34616     1 2px  -0.75285     1 2py   0.80174     2 2px   0.25320
                                    2 2py  -0.34580     2 2px  -0.75335     2 2py   0.80214     3 1s   -0.48587     6 1s    0.48593
   17.1    -0.00000     0.79896     1 1s    0.40860     1 2pz   0.73407     1 2pz  -0.77395     2 1s   -0.40674     2 2pz   0.73674
                                    2 2pz  -0.77679
   18.1    -0.00000     0.80228     1 1s   -0.27566     1 2py   0.55012     1 2pz   0.32756     1 2py  -1.26571     1 2pz  -0.34937
                                    2 1s   -0.27854     2 2py  -0.54970     2 2pz  -0.32234     2 2py   1.26531     2 2pz   0.34411
                                    3 1s    0.29583     6 1s    0.29816
   19.1    -0.00000     0.86408     1 1s   -0.30385     1 2px  -0.26184     1 2pz  -0.63529     1 2px   0.52202     1 2py  -0.67916
                                    1 2pz   0.99557     2 1s   -0.30386     2 2px   0.26209     2 2pz   0.63493     2 2px  -0.52301
                                    2 2py   0.67956     2 2pz  -0.99492     3 1s    0.35921     6 1s    0.35972
   20.1    -0.00000     0.96644     1 2px   0.70970     1 2py   0.34879     1 2px  -1.03783     1 2py  -0.72966     2 2px   0.70937
                                    2 2py   0.34909     2 2px  -1.03777     2 2py  -0.72999     4 1s   -0.81718     5 1s    0.81779
   21.1    -0.00000     1.09251     1 1s   -0.60878     1 1s    1.10927     1 2px   0.29317     1 2py   0.39604     1 2px  -0.35124
                                    1 2py  -0.40075     2 1s   -0.60883     2 1s    1.10924     2 2px  -0.29298     2 2py  -0.39622
                                    2 2px   0.35135     2 2py   0.40078     4 1s    0.68825     4 1s   -1.12497     5 1s    0.68859
                                    5 1s   -1.12531
   22.1    -0.00000     1.11130     1 1s   -0.27648     1 1s    0.31735     1 2py   0.53856     1 2py  -0.69145     2 1s    0.27355
                                    2 1s   -0.31170     2 2py   0.53804     2 2py  -0.69227     3 1s    0.26821     4 1s    0.75243
                                    4 1s   -1.25907     5 1s   -0.75311     5 1s    1.25724     6 1s   -0.26912
   23.1    -0.00000     1.17723     1 1s    0.98793     1 1s   -1.86002     1 2px   0.44200     1 2py  -0.44434     1 2pz   0.82428
                                    2 1s    0.99649     2 1s   -1.89203     2 2px  -0.42426     2 2py   0.43053     2 2pz  -0.83107
                                    3 1s    0.59341     3 1s    0.62374     4 1s    0.31330     4 1s    0.40085     5 1s    0.31460
                                    5 1s    0.40728     6 1s    0.59967     6 1s    0.61276
   24.1    -0.00000     1.19026     1 1s    0.86571     1 2px  -0.41762     1 2py   0.38349     1 2px   1.24660     1 2py  -0.88334
                                    2 1s   -0.85273     2 2px  -0.41489     2 2py   0.38179     2 2px   1.24961     2 2py  -0.88624
                                    3 1s   -0.63946     3 1s    1.28314     4 1s   -0.27911     5 1s    0.27656     6 1s    0.62937
                                    6 1s   -1.28339
   25.1    -0.00000     1.24204     1 1s   -0.92076     1 1s    1.53694     1 2py  -0.39202     1 2px  -0.40074     1 2py   0.49538
                                    1 2pz  -0.37339     2 1s   -0.91222     2 1s    1.50718     2 2py   0.39459     2 2px   0.41297
                                    2 2py  -0.50378     2 2pz   0.36588     3 1s    0.62916     3 1s   -1.32528     6 1s    0.63247
                                    6 1s   -1.32902
   26.1    -0.00000     1.27737     1 1s   -1.62189     1 1s    4.82144     1 2px   1.03892     1 2py  -0.58417     1 2pz  -1.07645
                                    2 1s    1.62175     2 1s   -4.82018     2 2px   1.03894     2 2py  -0.58358     2 2pz  -1.07382
                                    3 1s   -0.69867     4 1s   -0.59421     5 1s    0.59254     6 1s    0.70253
   27.1    -0.00000     1.68475     1 1s   -0.47513     1 3d0  -0.32146     1 3d2-  0.30443     1 3d2+  0.33640     2 1s    0.47537
                                    2 3d0   0.32156     2 3d2- -0.30437     2 3d2+ -0.33632
   28.1    -0.00000     1.92311     1 1s   -0.98923     1 3d2-  0.28792     1 3d1+ -0.41178     1 3d1- -0.39566     2 1s    0.98660
                                    2 3d2- -0.28791     2 3d1+  0.41285     2 3d1-  0.39662     3 1s    0.30254     6 1s   -0.30201
   29.1    -0.00000     1.95863     1 1s    0.30400     1 1s   -0.69404     1 2pz   0.33959     1 3d0   0.35573     1 3d1+  0.35622
                                    1 3d2+  0.33588     1 3d1-  0.32246     2 1s    0.30388     2 1s   -0.69393     2 2pz  -0.33928
                                    2 3d0   0.35557     2 3d1+  0.35491     2 3d2+  0.33526     2 3d1-  0.32102     3 1s    0.31882
                                    6 1s    0.31906
   30.1    -0.00000     2.19499     1 1s   -0.47678     1 1s    0.29138     1 2px  -0.27189     1 2px   0.30064     1 3d2- -0.28219
                                    1 3d1+ -0.36444     1 3d2+  0.39133     2 1s   -0.47552     2 1s    0.28591     2 2px   0.27175
                                    2 2px  -0.29983     2 3d2- -0.28138     2 3d1+ -0.36399     2 3d2+  0.39303
   31.1    -0.00000     2.22881     1 1s   -0.34871     1 1s    1.60563     1 2px   0.38245     1 2py  -0.28243     1 2pz  -0.41198
                                    1 3d0  -0.59521     1 3d2+ -0.35204     2 1s    0.35070     2 1s   -1.60703     2 2px   0.38376
                                    2 2py  -0.28327     2 2pz  -0.41232     2 3d0   0.59642     2 3d2+  0.35038     3 1s   -0.38095
                                    4 1s   -0.36896     5 1s    0.36880     6 1s    0.38069
   32.1    -0.00000     2.33479     1 2py   0.40766     1 3d0   0.50900     1 3d2- -0.35157     1 3d1- -0.36191     2 2py  -0.40816
                                    2 3d0   0.50857     2 3d2- -0.35197     2 3d1- -0.36217     3 1s   -0.26623     4 1s    0.38891
                                    5 1s    0.38899     6 1s   -0.26661
   33.1    -0.00000     2.58634     1 1s   -0.30320     1 2py   0.32528     1 3d2- -0.52275     1 3d1- -0.57444     2 1s    0.30932
                                    2 2py   0.33761     2 3d2-  0.50865     2 3d1-  0.59193     3 1s   -0.55140     4 1s    0.37660
                                    5 1s   -0.38920     6 1s    0.54990
   34.1    -0.00000     2.59321     1 2py   0.35802     1 3d2-  0.35699     1 3d2+  0.53595     1 3d1- -0.52054     2 2py  -0.34642
                                    2 3d2-  0.37551     2 3d2+  0.53480     2 3d1- -0.49970     4 1s    0.36630     5 1s    0.35275
   35.1    -0.00000     2.74953     1 3d0   0.38153     1 3d2-  0.56440     1 3d1+ -0.47144     2 3d0   0.38194     2 3d2-  0.56559
                                    2 3d1+ -0.47229     3 1s    0.56704     6 1s    0.56916
   36.1    -0.00000     2.92770     1 1s   -1.71989     1 2px  -0.37572     1 2px  -0.88985     1 2py   0.25779     1 2pz   0.43587
                                    1 3d2-  0.34273     1 3d1+  0.66764     1 3d2+ -0.63883     2 1s    1.71986     2 2px  -0.37572
                                    2 2px  -0.88973     2 2py   0.25766     2 2pz   0.43589     2 3d2- -0.34319     2 3d1+ -0.66723
                                    2 3d2+  0.63877


 Natural orbital dump (state averaged) at molpro section  2140.2    (Orbital set 2)



 **********************************************************************************************************************************
 DATASETS  * FILE   NREC   LENGTH (MB)   RECORD NAMES
              1      20       31.86       500      610      700      900      950      970     1000      129      960     1100   
                                          VAR    BASINP    GEOM    SYMINP    ZMAT    AOBASIS   BASIS     P2S    ABASIS      S 
                                         1400     1410     1200     1210     1080     1600     1650     1300     1700     1380   
                                           T        V       H0       H01     AOSYM     SMH    MOLCAS    ERIS     OPER     JKOP   

              2       5        5.42       700     1000      520     2100     2140   
                                         GEOM     BASIS   MCVARS     RHF     MCSCF   

 PROGRAMS   *        TOTAL     MULTI    HF-SCF       INT
 CPU TIMES  *         1.15      0.79      0.10      0.17
 REAL TIME  *         1.40 SEC
 DISK USED  *        39.04 MB
 **********************************************************************************************************************************
 Molecular orbitals read from record     2140.2  Type=MCSCF/NATURAL (state averaged)
 Occupation numbers read from record     2140.2  Type=MCSCF/NATURAL (state averaged)
 Orbital energies read from record       2140.2  Type=MCSCF/NATURAL (state averaged)
 Redundancy group numbers read from rec  2140.2  Type=MCSCF/NATURAL (state averaged)

 MULTI/6-31G* energy=    -77.543609477745

           MULTI          HF-SCF
    -77.54360948    -77.86097648
 **********************************************************************************************************************************
 Molpro calculation terminated
