
 Primary working directories    : /scratch.local/johan406.molpro_temp/molpro.Ujlo6rcvdG
 Secondary working directories  : /scratch.local/johan406.molpro_temp/molpro.Ujlo6rcvdG
 Wavefunction directory         : /home/goodpast/johan406/wfu/
 Main file repository           : /scratch.local/johan406.molpro_temp/molpro.Ujlo6rcvdG/

 id        : roweumn

 Nodes     nprocs
 acn06        1

 Using customized tuning parameters: mindgm=1; mindgv=20; mindgc=4; mindgr=1; noblas=0; minvec=7
 default implementation of scratch files=df  


 Variables initialized (934), CPU time= 0.00 sec
                                                                                 !leave this line blank
 
 gprint, orbitals=30
 memory, 125., m
 symmetry, nosym
 nelect=16
 basis=6-31g*
 
 geometry={
 C -0.789 0.125 0.300
 C 0.798 -0.175 -0.361
 H -1.345 1.067 0.125
 H -1.401 -0.747 0.120
 H 1.410 0.697 -0.180
 H 1.354 -1.117 -0.185
 }
 
 hf
 {multi,
 closed 7
 occ 9
 wf,spin=0;STATE,3
 }
 
 Commands  initialized (763), CPU time= 0.01 sec, 617 directives.
 Default parameters read. Elapsed time= 0.05 sec

 Checking input...
 Passed
1


                                         ***  PROGRAM SYSTEM MOLPRO  ***
                                       Copyright, TTI GmbH Stuttgart, 2015
                                    Version 2019.2 linked Oct 25 2019 22:50:27


 **********************************************************************************************************************************
 LABEL *                                                                                 
  64 bit serial version                                                                  DATE: 15-Mar-23          TIME: 16:38:12  
 **********************************************************************************************************************************

 SHA1:             8dbd9ae1082e4ce945b0f27595c9eb2d4aa09004
 **********************************************************************************************************************************


 Variable memory set to  125000000 words,  buffer space 

 SETTING NELECT         =        16.00000000                                  
 SETTING BASIS          =    6-31G*
 ZSYMEL=NOSYM


Geometry recognized as XYZ



 Recomputing integrals since basis changed


 Using spherical harmonics

 Library entry C      S 6-31G                selected for orbital group  1
 Library entry C      P 6-31G                selected for orbital group  1
 Library entry C      D 6-31G*               selected for orbital group  1
 Library entry H      S 6-31G                selected for orbital group  2


 PROGRAM * SEWARD (Integral evaluation for generally contracted gaussian basis sets)     Author: Roland Lindh, 1990

 Geometry written to block  1 of record 700


 Point group  C1  



 ATOMIC COORDINATES

 NR  ATOM    CHARGE       X              Y              Z

   1  C       6.00   -1.490993912    0.236215766    0.566917837
   2  C       6.00    1.508001447   -0.330702072   -0.682191131
   3  H       1.00   -2.541681638    2.016337775    0.236215766
   4  H       1.00   -2.647506301   -1.411625415    0.226767135
   5  H       1.00    2.664513836    1.317139109   -0.340150702
   6  H       1.00    2.558689173   -2.110824081   -0.349599333

 Bond lengths in Bohr (Angstrom)

 1-2  3.297823861  1-3  2.093356855  1-4  2.041715935  2-5  2.042031615  2-6  2.093656220
     ( 1.745133233)     ( 1.107756742)     ( 1.080429544)     ( 1.080596594)     ( 1.107915159)

 Bond angles

  1-2-5  108.23219348   1-2-6  122.84461106   2-1-3  122.87322349   2-1-4  108.25626124

  3-1-4  112.06728854   5-2-6  112.04199526

 NUCLEAR CHARGE:                   16
 NUMBER OF PRIMITIVE AOS:          72
 NUMBER OF SYMMETRY AOS:           70
 NUMBER OF CONTRACTIONS:           36   (   36A   )
 NUMBER OF CORE ORBITALS:           2   (    2A   )
 NUMBER OF VALENCE ORBITALS:       12   (   12A   )


 NUCLEAR REPULSION ENERGY   29.05552353

 Eigenvalues of metric

         1 0.199E-01 0.338E-01 0.464E-01 0.630E-01 0.777E-01 0.241E+00 0.269E+00 0.321E+00


 Contracted 2-electron integrals neglected if value below      1.0D-11
 AO integral compression algorithm  1   Integral accuracy      1.0D-11

     1.311 MB (compressed) written to integral file ( 66.6%)


 NUMBER OF SORTED TWO-ELECTRON INTEGRALS:     222111.     BUFFER LENGTH:  32768
 NUMBER OF SEGMENTS:   1  SEGMENT LENGTH:     222111      RECORD LENGTH: 524288

 Memory used in sort:       0.78 MW

 SORT1 READ      284735. AND WROTE      212449. INTEGRALS IN      1 RECORDS. CPU TIME:     0.00 SEC, REAL TIME:     0.00 SEC
 SORT2 READ      212449. AND WROTE      222111. INTEGRALS IN      5 RECORDS. CPU TIME:     0.02 SEC, REAL TIME:     0.03 SEC

 FILE SIZES:   FILE 1:    31.4 MBYTE,  FILE 4:     4.2 MBYTE,   TOTAL:     35.6 MBYTE

 OPERATOR DM      FOR CENTER  0  COORDINATES:    0.000000    0.000000    0.000000


 **********************************************************************************************************************************
 DATASETS  * FILE   NREC   LENGTH (MB)   RECORD NAMES
              1      19       31.09       500      610      700      900      950      970     1000      129      960     1100   
                                          VAR    BASINP    GEOM    SYMINP    ZMAT    AOBASIS   BASIS     P2S    ABASIS      S 
                                         1400     1410     1200     1210     1080     1600     1650     1300     1700   
                                           T        V       H0       H01     AOSYM     SMH    MOLCAS    ERIS     OPER   

 PROGRAMS   *        TOTAL       INT
 CPU TIMES  *         0.25      0.15
 REAL TIME  *         0.37 SEC
 DISK USED  *        35.97 MB
 **********************************************************************************************************************************


 PROGRAM * RHF-SCF (CLOSED SHELL)       Authors: W. Meyer, H.-J. Werner


 NUMBER OF ELECTRONS:       8+    8-    SPACE SYMMETRY=1    SPIN SYMMETRY: Singlet 
 CONVERGENCE THRESHOLDS:    1.00E-05 (Density)    1.00E-07 (Energy)
 MAX. NUMBER OF ITERATIONS:       60
 INTERPOLATION TYPE:            DIIS
 INTERPOLATION STEPS:              2 (START)      1 (STEP)
 LEVEL SHIFTS:                  0.00 (CLOSED)  0.00 (OPEN) 



 Orbital guess generated from atomic densities. Full valence occupancy:    8

 Molecular orbital dump at record        2100.2

 Initial occupancy:   8

 ITERATION    DDIFF          GRAD             ENERGY        2-EL.EN.            DIPOLE MOMENTS         DIIS   ORB.
    1      0.000D+00      0.000D+00       -77.86865878    109.031754   -0.00058    0.00010    0.00091    0    start
    2      0.000D+00      0.661D-02       -77.88785903    108.614710   -0.00054    0.00007    0.00075    1    diag
    3      0.695D-02      0.216D-02       -77.89112106    108.844231   -0.00090    0.00015    0.00103    2    diag
    4      0.350D-02      0.860D-03       -77.89187833    108.751906   -0.00067    0.00009    0.00082    3    diag
    5      0.158D-02      0.516D-03       -77.89241806    108.771073   -0.00122    0.00023    0.00123    4    diag
    6      0.222D-02      0.128D-03       -77.89244708    108.767778   -0.00028   -0.00002    0.00049    5    diag
    7      0.489D-03      0.239D-04       -77.89244767    108.768357   -0.00152    0.00030    0.00147    6    diag
    8      0.524D-04      0.134D-04       -77.89244775    108.768452   -0.00073    0.00010    0.00084    7    diag
    9      0.167D-04      0.429D-05       -77.89244776    108.768441   -0.00088    0.00014    0.00096    8    diag
   10      0.122D-04      0.705D-06       -77.89244776    108.768445   -0.00087    0.00014    0.00096    9    orth
   11      0.200D-05      0.166D-06       -77.89244776    108.768445   -0.00087    0.00014    0.00096    0    orth

 Final occupancy:   8

 !RHF STATE  1.1 Energy               -77.892447764968
 Nuclear energy                        29.05552353
 One-electron energy                 -161.33219399
 Two-electron energy                   54.38422269
 Virial quotient                       -1.00689355
 !RHF STATE  1.1 Dipole moment         -0.00087440     0.00013693     0.00095756
 Dipole moment /Debye                  -0.00222236     0.00034802     0.00243372

 ELECTRON ORBITALS
 =================

  Orbital  Occupation    Energy     Coefficients
    1.1     2.00000   -11.28138     1 1s    0.77084     2 1s    0.63123
    2.1     2.00000   -11.28105     1 1s    0.63133     2 1s   -0.77092
    3.1     2.00000    -0.94545     1 1s    0.28414     1 1s    0.27430     2 1s    0.28386     2 1s    0.27411
    4.1     2.00000    -0.82607     1 1s   -0.25900     1 1s   -0.25611     2 1s    0.25923     2 1s    0.25640
    5.1     2.00000    -0.60012     1 2py   0.31682     2 2py   0.31580
    6.1     2.00000    -0.54352     1 2py  -0.30887     2 2py   0.30978
    7.1     2.00000    -0.48596     1 2px  -0.36570     2 2px   0.36570
    8.1     2.00000    -0.31833     1 2pz   0.31075     1 2pz   0.32199     2 2pz   0.31097     2 2pz   0.32214
    9.1     0.00000     0.07452     1 1s    0.25019     1 2pz   0.35680     1 2pz   0.50139     2 1s    0.25069     2 2pz  -0.35659
                                    2 2pz  -0.50101
   10.1     0.00000     0.25582     1 1s    1.50614     1 2pz  -0.36086     2 1s   -1.49952     2 2pz  -0.36040     3 1s   -1.03920
                                    4 1s   -0.37518     5 1s    0.37045     6 1s    1.03456
   11.1     0.00000     0.26159     1 1s   -1.40437     1 2px   0.63019     1 2pz   0.28245     2 1s   -1.41115     2 2px  -0.62865
                                    2 2pz  -0.28505     3 1s    0.97772     4 1s    1.10426     5 1s    1.10553     6 1s    0.98227
   12.1     0.00000     0.32073     1 1s    0.81030     1 2py  -0.83640     2 1s   -0.81035     2 2py  -0.83621     3 1s    0.56220
                                    4 1s   -1.50485     5 1s    1.50479     6 1s   -0.56191
   13.1     0.00000     0.34453     1 2py  -0.25698     1 2py  -1.24715     2 2py   0.25689     2 2py   1.24656     3 1s    1.33325
                                    4 1s   -1.18693     5 1s   -1.18617     6 1s    1.33233
   14.1     0.00000     0.35644     1 2px   0.31767     1 2px   1.29147     1 2py  -0.32232     1 2pz  -0.32489     2 2px   0.31774
                                    2 2px   1.29147     2 2py  -0.32279     2 2pz  -0.32408     3 1s    0.95810     4 1s    0.48243
                                    5 1s   -0.48174     6 1s   -0.95824
   15.1     0.00000     0.69786     1 2py  -0.43878     1 2px  -0.31788     1 2py   0.78574     2 2py  -0.43887     2 2px  -0.31785
                                    2 2py   0.78498     3 1s   -0.40268     4 1s    0.26697     5 1s   -0.26701     6 1s    0.40265
   16.1     0.00000     0.78675     1 1s    0.71631     1 2px   0.60307     1 2px  -1.00645     1 2py  -0.38912     2 1s    0.72460
                                    2 2px  -0.57748     2 2px   0.95175     2 2py   0.38803     4 1s   -0.27898     5 1s   -0.26538
   17.1     0.00000     0.78939     1 2px  -0.60659     1 2px   1.28078     2 2px  -0.63097     2 2px   1.32045     4 1s    0.32291
                                    4 1s    0.26274     5 1s   -0.33375     5 1s   -0.27185
   18.1     0.00000     0.80696     1 2pz   0.78252     1 2px   0.37757     1 2pz  -0.71582     2 2pz   0.78220     2 2px   0.38028
                                    2 2pz  -0.71507
   19.1     0.00000     0.84896     1 1s    0.27723     1 1s   -0.27261     1 2pz   0.73530     1 2px  -0.26207     1 2pz  -0.85826
                                    2 1s    0.27737     2 1s   -0.27196     2 2pz  -0.73611     2 2px   0.26205     2 2pz   0.85906
   20.1     0.00000     0.96644     1 2px   0.28152     1 2py  -0.65570     1 2py   1.85530     2 2px  -0.28142     2 2py   0.65591
                                    2 2py  -1.85479     3 1s   -0.79510     4 1s    0.60678     5 1s    0.60631     6 1s   -0.79442
   21.1     0.00000     0.99850     1 1s   -0.76744     1 1s    1.33116     1 2px  -0.27296     1 2py   0.60178     1 2pz  -0.49806
                                    2 1s   -0.76511     2 1s    1.32630     2 2px   0.27594     2 2py  -0.60222     2 2pz   0.49773
                                    3 1s   -0.51447     3 1s   -0.39369     4 1s   -0.31720     5 1s   -0.31702     6 1s   -0.51426
                                    6 1s   -0.39385
   22.1     0.00000     1.15955     1 1s   -0.51491     1 1s    0.78906     1 2py  -0.43388     1 2py   0.33588     2 1s   -0.51533
                                    2 1s    0.78608     2 2py   0.44260     2 2py  -0.34933     3 1s    0.66551     3 1s   -0.99650
                                    4 1s   -0.37720     4 1s    0.28632     5 1s   -0.37754     5 1s    0.29229     6 1s    0.67594
                                    6 1s   -1.01525
   23.1     0.00000     1.16338     1 1s   -0.26203     1 2px   0.34027     1 2py  -0.51974     1 2px  -0.73594     1 2py   0.81396
                                    2 1s    0.27500     2 2px   0.34032     2 2py  -0.51273     2 2px  -0.73367     2 2py   0.80744
                                    3 1s    0.70527     3 1s   -1.20925     6 1s   -0.69573     6 1s    1.19335
   24.1     0.00000     1.18981     1 1s    0.28318     1 2px  -0.38194     1 2py  -0.46955     1 2px   0.81228     1 2py   0.54612
                                    2 1s   -0.27076     2 2px  -0.38414     2 2py  -0.46971     2 2px   0.81561     2 2py   0.54600
                                    4 1s   -0.72403     4 1s    1.17996     5 1s    0.72767     5 1s   -1.18678
   25.1     0.00000     1.20038     1 1s    1.02085     1 1s   -1.72683     1 2px  -0.28972     1 2px   0.48702     2 1s    1.02097
                                    2 1s   -1.72872     2 2px   0.28696     2 2px  -0.48117     3 1s    0.54994     4 1s   -0.60081
                                    4 1s    1.13477     5 1s   -0.59569     5 1s    1.12664     6 1s    0.55090
   26.1     0.00000     1.24914     1 1s    1.60882     1 1s   -3.61498     1 2px  -0.44397     1 2py   0.31881     1 2pz   0.54209
                                    2 1s   -1.61013     2 1s    3.61707     2 2px  -0.44353     2 2py   0.31764     2 2pz   0.54382
                                    3 1s    0.60073     4 1s    0.84194     5 1s   -0.84198     6 1s   -0.60153
   27.1     0.00000     1.79877     1 1s    0.43196     1 3d1+  0.47610     1 3d2+  0.38685     2 1s   -0.43279     2 3d1+ -0.47595
                                    2 3d2+ -0.38731
   28.1     0.00000     1.90833     1 3d2- -0.28527     1 3d1+  0.26145     1 3d1-  0.57870     2 3d2-  0.28635     2 3d1+ -0.25949
                                    2 3d1- -0.57805
   29.1     0.00000     1.92407     1 1s    0.34037     1 3d0   0.34588     1 3d1+  0.40188     1 3d2+ -0.32372     2 1s    0.34010
                                    2 3d0   0.34604     2 3d1+  0.40315     2 3d2+ -0.32315
   30.1     0.00000     2.07567     1 1s   -0.33364     1 2py  -0.52507     1 3d1+  0.30168     1 3d1-  0.55811     2 1s   -0.33519
                                    2 2py   0.52430     2 3d1+  0.30182     2 3d1-  0.55843     3 1s    0.30865     6 1s    0.30841
   31.1     0.00000     2.23181     1 1s   -0.35228     1 2px   0.28587     1 2py   0.36065     1 3d1+  0.27996     1 3d2+  0.54993
                                    1 3d1- -0.40406     2 1s   -0.35538     2 2px  -0.28565     2 2py  -0.36012     2 3d1+  0.27979
                                    2 3d2+  0.55098     2 3d1- -0.40386     4 1s    0.29459     5 1s    0.29489
   32.1     0.00000     2.33826     1 1s   -0.29575     1 1s    0.93933     1 3d0  -0.63697     1 3d2+ -0.32166     2 1s    0.29574
                                    2 1s   -0.93928     2 3d0   0.63879     2 3d2+  0.32039     3 1s   -0.49556     4 1s   -0.25510
                                    5 1s    0.25550     6 1s    0.49566
   33.1     0.00000     2.39280     1 1s   -0.27483     1 3d0   0.62893     1 3d1+ -0.40186     2 1s   -0.27256     2 3d0   0.62667
                                    2 3d1+ -0.40239     4 1s    0.40614     5 1s    0.40527
   34.1     0.00000     2.51543     1 1s    0.81794     1 2px   0.30064     1 2py  -0.34903     1 3d0  -0.26682     1 3d2-  0.62025
                                    1 3d1-  0.34476     2 1s   -0.81799     2 2px   0.30065     2 2py  -0.34951     2 3d0   0.26639
                                    2 3d2- -0.61986     2 3d1- -0.34634     3 1s    0.32812     4 1s   -0.56425     5 1s    0.56424
                                    6 1s   -0.32847
   35.1     0.00000     2.64404     1 2py  -0.40978     1 3d2-  0.77059     2 2py   0.40921     2 3d2-  0.77042     3 1s    0.51866
                                    4 1s   -0.43159     5 1s   -0.43139     6 1s    0.51845
   36.1     0.00000     2.78561     1 1s    0.29096     1 1s   -1.17019     1 2px  -0.75998     1 2pz   0.29830     1 3d2-  0.34235
                                    1 3d1+  0.52037     1 3d2+ -0.60863     2 1s   -0.29099     2 1s    1.17024     2 2px  -0.76003
                                    2 2pz   0.29823     2 3d2- -0.34169     2 3d1+ -0.52059     2 3d2+  0.60886


 HOMO      8.1    -0.318326 =      -8.6621eV
 LUMO      9.1     0.074518 =       2.0277eV
 LUMO-HOMO         0.392844 =      10.6898eV


 **********************************************************************************************************************************
 DATASETS  * FILE   NREC   LENGTH (MB)   RECORD NAMES
              1      19       31.09       500      610      700      900      950      970     1000      129      960     1100   
                                          VAR    BASINP    GEOM    SYMINP    ZMAT    AOBASIS   BASIS     P2S    ABASIS      S 
                                         1400     1410     1200     1210     1080     1600     1650     1300     1700   
                                           T        V       H0       H01     AOSYM     SMH    MOLCAS    ERIS     OPER   

              2       4        2.86       700     1000      520     2100   
                                         GEOM     BASIS   MCVARS     RHF  

 PROGRAMS   *        TOTAL    HF-SCF       INT
 CPU TIMES  *         0.35      0.10      0.15
 REAL TIME  *         0.55 SEC
 DISK USED  *        35.97 MB
 **********************************************************************************************************************************


 PROGRAM * MULTI (Direct Multiconfiguration SCF)       Authors: P.J. Knowles, H.-J. Werner (1984)


 Number of closed-shell orbitals:   7 (   7 )
 Number of active  orbitals:        2 (   2 )
 Number of external orbitals:      27 (  27 )

 State symmetry 1

 Number of electrons:     2    Spin symmetry=Singlet   Space symmetry=1
 Number of states:        3
 Number of CSFs:          3   (4 determinants, 4 intermediate states)

 Molecular orbitals read from record     2100.2  Type=RHF/CANONICAL (state 1.1)

 Wavefunction dump at record             2140.2

 Convergence thresholds  0.10E-01 (gradient)  0.10E-05 (energy)  0.10E-02 (step length)

 Weight factors for state symmetry  1:    0.33333   0.33333   0.33333

 Number of orbital rotations:      257   (    14 Core/Active    189 Core/Virtual   0 Active/Active     54 Active/Virtual)
 Total number of variables:        269

 Micro-Iterations solved by the two-step solver

 ITER. MIC  NCI  NEG     ENERGY(VAR)     ENERGY(PROJ)   ENERGY CHANGE     GRAD(0)  GRAD(ORB)   GRAD(CI)     STEP       TIME

   1   10    5    0     -77.70893041     -77.71527494   -0.00634453    0.08852598 0.00325132 0.00000000  0.12D+00      0.13
   2   10    6    0     -77.71513493     -77.71518767   -0.00005274    0.00798995 0.00000276 0.00000000  0.33D-01      0.24
   3   14    6    0     -77.71519088     -77.71519293   -0.00000206    0.00061908 0.00000053 0.00000000  0.97D-02      0.39
   4    9    6    0     -77.71519295     -77.71519295   -0.00000000    0.00003974 0.00000000 0.00000000  0.13D-03      0.50
   5    5    3    0     -77.71519295     -77.71519295   -0.00000000    0.00000001 0.00000000 0.00000000  0.12D-06      0.56

 ** WVFN ****  CONVERGENCE REACHED, FINAL GRADIENT:  0.20D-12



 Results for state 1.1
 =====================

 !MCSCF STATE  1.1 Energy             -77.921081632198
 Nuclear energy                        29.05552353
 Kinetic energy                        77.42941639
 One electron energy                 -161.25098957
 Two electron energy                   54.27438441
 Virial ratio                           2.00634985

 !MCSCF STATE  1.1 Dipole moment       -0.00178799     0.00025378     0.00096110
 Dipole moment /Debye                  -0.00454433     0.00064501     0.00244271

 Results for state 2.1
 =====================

 !MCSCF STATE  2.1 Energy             -77.651737862120
 Nuclear energy                        29.05552353
 Kinetic energy                        77.55470061
 One electron energy                 -161.16638971
 Two electron energy                   54.45912831
 Virial ratio                           2.00125121

 !MCSCF STATE  2.1 Dipole moment       -0.00058599     0.00063293     0.00336740
 Dipole moment /Debye                  -0.00148934     0.00160864     0.00855851

 Results for state 3.1
 =====================

 !MCSCF STATE  3.1 Energy             -77.572759349898
 Nuclear energy                        29.05552353
 Kinetic energy                        77.67998225
 One electron energy                 -161.08178570
 Two electron energy                   54.45350282
 Virial ratio                           1.99861968

 !MCSCF STATE  3.1 Dipole moment        0.00360024     0.00041813     0.00384791
 Dipole moment /Debye                   0.00915029     0.00106272     0.00977976

 State-averaged charge density matrix saved on record  2140.2 (density set 1)

 !MCSCF expec         <1.1|DMX|1.1>    -0.001787993744 au =    -0.004544329139 Debye
 !MCSCF trans         <2.1|DMX|1.1>     1.145680305722 au =     2.911838151418 Debye
 !MCSCF expec         <2.1|DMX|2.1>    -0.000585990306 au =    -0.001489341242 Debye
 !MCSCF trans         <3.1|DMX|1.1>    -0.001517605000 au =    -0.003857114517 Debye
 !MCSCF trans         <3.1|DMX|2.1>     2.383149960707 au =     6.056966277134 Debye
 !MCSCF expec         <3.1|DMX|3.1>     0.003600237738 au =     0.009150292231 Debye

 !MCSCF expec         <1.1|DMY|1.1>     0.000253782077 au =     0.000645007451 Debye
 !MCSCF trans         <2.1|DMY|1.1>    -0.228021251018 au =    -0.579534251162 Debye
 !MCSCF expec         <2.1|DMY|2.1>     0.000632928390 au =     0.001608638138 Debye
 !MCSCF trans         <3.1|DMY|1.1>    -0.000192464988 au =    -0.000489165163 Debye
 !MCSCF trans         <3.1|DMY|2.1>    -0.474311399526 au =    -1.205500366808 Debye
 !MCSCF expec         <3.1|DMY|3.1>     0.000418133248 au =     0.001062719100 Debye

 !MCSCF expec         <1.1|DMZ|1.1>     0.000961100134 au =     0.002442712880 Debye
 !MCSCF trans         <2.1|DMZ|1.1>    -0.739333819956 au =    -1.879076050123 Debye
 !MCSCF expec         <2.1|DMZ|2.1>     0.003367398356 au =     0.008558512315 Debye
 !MCSCF trans         <3.1|DMZ|1.1>    -0.001565246318 au =    -0.003978198738 Debye
 !MCSCF trans         <3.1|DMZ|2.1>    -1.537903184349 au =    -3.908703975277 Debye
 !MCSCF expec         <3.1|DMZ|3.1>     0.003847906087 au =     0.009779761152 Debye


 NATURAL ORBITALS (state averaged)
 =================================

  Orbital  Occupation    Energy     Coefficients
    1.1     2.00000   -11.27952     1 1s    0.77136     2 1s    0.63059
    2.1     2.00000   -11.27929     1 1s    0.63065     2 1s   -0.77141
    3.1     2.00000    -0.94465     1 1s    0.28752     1 1s    0.27492     2 1s    0.28756     2 1s    0.27523
    4.1     2.00000    -0.82785     1 1s   -0.26063     1 1s   -0.28179     2 1s    0.26054     2 1s    0.28189
    5.1     2.00000    -0.60288     1 2py   0.31701     2 2py   0.31626
    6.1     2.00000    -0.54409     1 2py  -0.31128     2 2py   0.31195
    7.1     2.00000    -0.48552     1 2px  -0.36501     2 2px   0.36670
    8.1     1.00000    -0.05461     1 2pz   0.38271     1 2pz   0.48187     2 2pz  -0.38073     2 2pz  -0.47952
    9.1     1.00000    -0.19063     1 2pz   0.28098     1 2pz   0.30983     2 2pz   0.28057     2 2pz   0.30904
   10.1    -0.00000     0.24954     1 1s    1.47669     1 2px   0.27258     1 2pz  -0.38350     2 1s   -1.48110     2 2px   0.27018
                                    2 2pz  -0.38834     3 1s   -0.98024     4 1s   -0.33365     5 1s    0.33880     6 1s    0.98321
   11.1    -0.00000     0.26038     1 1s   -1.41547     1 2px   0.63625     1 2pz   0.27474     2 1s   -1.40985     2 2px  -0.63705
                                    2 2pz  -0.27402     3 1s    0.97078     4 1s    1.11884     5 1s    1.11825     6 1s    0.96626
   12.1    -0.00000     0.31654     1 1s    0.81502     1 2py  -0.85139     2 1s   -0.81396     2 2py  -0.85063     3 1s    0.59871
                                    4 1s   -1.48372     5 1s    1.48234     6 1s   -0.59875
   13.1    -0.00000     0.34332     1 2py  -0.25672     1 2py  -1.24520     2 2py   0.25712     2 2py   1.24549     3 1s    1.34249
                                    4 1s   -1.17428     5 1s   -1.17241     6 1s    1.34456
   14.1    -0.00000     0.34940     1 2px   0.31455     1 2px   1.25612     1 2py  -0.29693     1 2pz  -0.30045     2 2px   0.31490
                                    2 2px   1.25614     2 2py  -0.29415     2 2pz  -0.30294     3 1s    0.99590     4 1s    0.57008
                                    5 1s   -0.57225     6 1s   -0.99259
   15.1    -0.00000     0.69352     1 2py  -0.44494     1 2px  -0.29010     1 2py   0.78248     2 2py  -0.44467     2 2px  -0.29029
                                    2 2py   0.78141     3 1s   -0.39682     4 1s    0.27282     5 1s   -0.27276     6 1s    0.39678
   16.1    -0.00000     0.78463     1 1s    0.61342     1 2px   0.68777     1 2px  -1.16567     1 2py  -0.37789     2 1s    0.68535
                                    2 2px  -0.49144     2 2px   0.74716     2 2py   0.37486     4 1s   -0.31429
   17.1    -0.00000     0.78504     1 1s    0.31635     1 2px  -0.49247     1 2px   1.09192     2 2px  -0.68743     2 2px   1.40866
                                    4 1s    0.27416     5 1s   -0.36063     5 1s   -0.27866
   18.1    -0.00000     0.80286     1 1s    0.27341     1 2pz   0.77754     1 2px   0.54358     1 2pz  -0.72696     2 1s   -0.27241
                                    2 2pz   0.77539     2 2px   0.55125     2 2pz  -0.72216
   19.1    -0.00000     0.84302     1 1s    0.26405     1 1s   -0.25808     1 2pz   0.73009     1 2px  -0.25709     1 2pz  -0.87724
                                    2 1s    0.26341     2 1s   -0.25419     2 2pz  -0.73442     2 2px   0.25419     2 2pz   0.88123
   20.1    -0.00000     0.96296     1 1s    0.31042     1 2px   0.28286     1 2py  -0.64537     1 2py   1.81863     2 1s    0.31024
                                    2 2px  -0.28289     2 2py   0.64546     2 2py  -1.81810     3 1s   -0.75487     4 1s    0.25336
                                    4 1s    0.63274     5 1s    0.25326     5 1s    0.63203     6 1s   -0.75410
   21.1    -0.00000     0.99558     1 1s   -0.76790     1 1s    1.36793     1 2px  -0.31036     1 2py   0.72120     1 2pz  -0.48959
                                    2 1s   -0.76633     2 1s    1.36422     2 2px   0.31246     2 2py  -0.72159     2 2pz   0.48917
                                    3 1s   -0.51564     3 1s   -0.46322     4 1s   -0.30513     5 1s   -0.30457     6 1s   -0.51510
                                    6 1s   -0.46355
   22.1    -0.00000     1.15746     1 1s   -0.48365     1 1s    0.73892     1 2py  -0.43656     1 2py   0.33670     2 1s   -0.48354
                                    2 1s    0.73518     2 2py   0.44289     2 2py  -0.34675     3 1s    0.66515     3 1s   -0.98317
                                    4 1s   -0.39153     4 1s    0.31710     5 1s   -0.39075     5 1s    0.32050     6 1s    0.67357
                                    6 1s   -0.99769
   23.1    -0.00000     1.16060     1 1s   -0.48735     1 2px   0.32982     1 2py  -0.52394     1 2px  -0.75386     1 2py   0.83685
                                    2 1s    0.49468     2 2px   0.33059     2 2py  -0.51809     2 2px  -0.75295     2 2py   0.83150
                                    3 1s    0.70019     3 1s   -1.16900     4 1s    0.29055     5 1s   -0.28452     6 1s   -0.69311
                                    6 1s    1.15747
   24.1    -0.00000     1.18549     1 1s    0.56477     1 2px  -0.37714     1 2py  -0.45856     1 2px   0.85031     1 2py   0.51634
                                    2 1s   -0.55204     2 2px  -0.37986     2 2py  -0.45980     2 2px   0.85404     2 2py   0.51716
                                    4 1s   -0.71984     4 1s    1.11027     5 1s    0.72492     5 1s   -1.11897
   25.1    -0.00000     1.19993     1 1s    1.02446     1 1s   -1.73446     1 2px  -0.30069     1 2px   0.49895     2 1s    1.03076
                                    2 1s   -1.75086     2 2px   0.29724     2 2px  -0.48924     3 1s    0.58127     4 1s   -0.59366
                                    4 1s    1.11924     5 1s   -0.58784     5 1s    1.11357     6 1s    0.58284
   26.1    -0.00000     1.24176     1 1s    1.60036     1 1s   -3.55650     1 2px  -0.32125     1 2py   0.30726     1 2pz   0.51022
                                    2 1s   -1.59805     2 1s    3.55237     2 2px  -0.32279     2 2py   0.30615     2 2pz   0.51056
                                    3 1s    0.66072     4 1s    0.91831     5 1s   -0.91497     6 1s   -0.65910
   27.1    -0.00000     1.79248     1 1s    0.42399     1 3d1+  0.47581     1 3d2+  0.38855     2 1s   -0.42502     2 3d1+ -0.47543
                                    2 3d2+ -0.38874
   28.1    -0.00000     1.90124     1 3d2- -0.28304     1 3d1+  0.26148     1 3d1-  0.57945     2 3d2-  0.28430     2 3d1+ -0.25910
                                    2 3d1- -0.57929
   29.1    -0.00000     1.91628     1 1s    0.33401     1 3d0   0.34425     1 3d1+  0.40230     1 3d2+ -0.32534     2 1s    0.33371
                                    2 3d0   0.34433     2 3d1+  0.40388     2 3d2+ -0.32477
   30.1    -0.00000     2.07187     1 1s   -0.33430     1 2py  -0.52077     1 3d1+  0.30735     1 3d2+  0.25345     1 3d1-  0.55386
                                    2 1s   -0.33548     2 2py   0.52013     2 3d1+  0.30760     2 3d2+  0.25320     2 3d1-  0.55385
                                    3 1s    0.30804     6 1s    0.30784
   31.1    -0.00000     2.22391     1 1s   -0.34226     1 2px   0.28178     1 2py   0.36392     1 3d1+  0.28466     1 3d2+  0.54438
                                    1 3d1- -0.41002     2 1s   -0.34438     2 2px  -0.28138     2 2py  -0.36349     2 3d1+  0.28478
                                    2 3d2+  0.54505     2 3d1- -0.40982     4 1s    0.28659     5 1s    0.28649
   32.1    -0.00000     2.33201     1 1s   -0.29741     1 1s    0.94332     1 3d0  -0.63620     1 3d2+ -0.31941     2 1s    0.29748
                                    2 1s   -0.94425     2 3d0   0.63936     2 3d2+  0.31907     3 1s   -0.49810     4 1s   -0.25367
                                    5 1s    0.25531     6 1s    0.49875
   33.1    -0.00000     2.38619     1 1s   -0.28385     1 3d0   0.63211     1 3d1+ -0.39417     2 1s   -0.27891     2 3d0   0.62846
                                    2 3d1+ -0.39504     4 1s    0.41092     5 1s    0.40952
   34.1    -0.00000     2.50856     1 1s    0.82243     1 2px   0.30181     1 2py  -0.34793     1 3d0  -0.26802     1 3d2-  0.62049
                                    1 3d1-  0.34309     2 1s   -0.82267     2 2px   0.30173     2 2py  -0.34803     2 3d0   0.26788
                                    2 3d2- -0.61912     2 3d1- -0.34450     3 1s    0.32864     4 1s   -0.56672     5 1s    0.56622
                                    6 1s   -0.32822
   35.1    -0.00000     2.63849     1 2py  -0.40814     1 3d2-  0.77034     2 2py   0.40816     2 3d2-  0.77081     3 1s    0.51952
                                    4 1s   -0.43293     5 1s   -0.43327     6 1s    0.51976
   36.1    -0.00000     2.77984     1 1s    0.29253     1 1s   -1.17233     1 2px  -0.76246     1 2pz   0.29970     1 3d2-  0.34215
                                    1 3d1+  0.52107     1 3d2+ -0.60887     2 1s   -0.29261     2 1s    1.17251     2 2px  -0.76248
                                    2 2pz   0.29953     2 3d2- -0.34190     2 3d1+ -0.52099     2 3d2+  0.60910


 Natural orbital dump (state averaged) at molpro section  2140.2    (Orbital set 2)



 **********************************************************************************************************************************
 DATASETS  * FILE   NREC   LENGTH (MB)   RECORD NAMES
              1      20       31.82       500      610      700      900      950      970     1000      129      960     1100   
                                          VAR    BASINP    GEOM    SYMINP    ZMAT    AOBASIS   BASIS     P2S    ABASIS      S 
                                         1400     1410     1200     1210     1080     1600     1650     1300     1700     1380   
                                           T        V       H0       H01     AOSYM     SMH    MOLCAS    ERIS     OPER     JKOP   

              2       5        5.42       700     1000      520     2100     2140   
                                         GEOM     BASIS   MCVARS     RHF     MCSCF   

 PROGRAMS   *        TOTAL     MULTI    HF-SCF       INT
 CPU TIMES  *         0.96      0.61      0.10      0.15
 REAL TIME  *         1.27 SEC
 DISK USED  *        39.01 MB
 **********************************************************************************************************************************
 Molecular orbitals read from record     2140.2  Type=MCSCF/NATURAL (state averaged)
 Occupation numbers read from record     2140.2  Type=MCSCF/NATURAL (state averaged)
 Orbital energies read from record       2140.2  Type=MCSCF/NATURAL (state averaged)
 Redundancy group numbers read from rec  2140.2  Type=MCSCF/NATURAL (state averaged)

 MULTI/6-31G* energy=    -77.572759349898

           MULTI          HF-SCF
    -77.57275935    -77.89244776
 **********************************************************************************************************************************
 Molpro calculation terminated
