
 Primary working directories    : /scratch.local/johan406.molpro_temp/molpro.XkWBYsyjyG
 Secondary working directories  : /scratch.local/johan406.molpro_temp/molpro.XkWBYsyjyG
 Wavefunction directory         : /home/goodpast/johan406/wfu/
 Main file repository           : /scratch.local/johan406.molpro_temp/molpro.XkWBYsyjyG/

 id        : roweumn

 Nodes     nprocs
 acn06        1

 Using customized tuning parameters: mindgm=1; mindgv=20; mindgc=4; mindgr=1; noblas=0; minvec=7
 default implementation of scratch files=df  


 Variables initialized (934), CPU time= 0.00 sec
                                                                                 !leave this line blank
 
 gprint, orbitals=30
 memory, 125., m
 symmetry, nosym
 nelect=16
 basis=6-31g*
 
 geometry={
 C -0.804 0.110 0.302
 C 0.813 -0.160 -0.363
 H -1.273 1.090 0.102
 H -1.433 -0.719 0.164
 H 1.441 0.669 -0.224
 H 1.282 -1.140 -0.163
 }
 
 hf
 {multi,
 closed 7
 occ 9
 wf,spin=0;STATE,3
 }
 
 Commands  initialized (763), CPU time= 0.01 sec, 617 directives.
 Default parameters read. Elapsed time= 0.06 sec

 Checking input...
 Passed
1


                                         ***  PROGRAM SYSTEM MOLPRO  ***
                                       Copyright, TTI GmbH Stuttgart, 2015
                                    Version 2019.2 linked Oct 25 2019 22:50:27


 **********************************************************************************************************************************
 LABEL *                                                                                 
  64 bit serial version                                                                  DATE: 15-Mar-23          TIME: 16:38:46  
 **********************************************************************************************************************************

 SHA1:             8dbd9ae1082e4ce945b0f27595c9eb2d4aa09004
 **********************************************************************************************************************************


 Variable memory set to  125000000 words,  buffer space 

 SETTING NELECT         =        16.00000000                                  
 SETTING BASIS          =    6-31G*
 ZSYMEL=NOSYM


Geometry recognized as XYZ



 Recomputing integrals since basis changed


 Using spherical harmonics

 Library entry C      S 6-31G                selected for orbital group  1
 Library entry C      P 6-31G                selected for orbital group  1
 Library entry C      D 6-31G*               selected for orbital group  1
 Library entry H      S 6-31G                selected for orbital group  2


 PROGRAM * SEWARD (Integral evaluation for generally contracted gaussian basis sets)     Author: Roland Lindh, 1990

 Geometry written to block  1 of record 700


 Point group  C1  



 ATOMIC COORDINATES

 NR  ATOM    CHARGE       X              Y              Z

   1  C       6.00   -1.519339804    0.207869874    0.570697290
   2  C       6.00    1.536347339   -0.302356180   -0.685970583
   3  H       1.00   -2.405621357    2.059801476    0.192752065
   4  H       1.00   -2.707977537   -1.358713084    0.309915084
   5  H       1.00    2.723095345    1.264226777   -0.423298652
   6  H       1.00    2.422628892   -2.154287782   -0.308025358

 Bond lengths in Bohr (Angstrom)

 1-2  3.343167463  1-3  2.087579518  1-4  1.983695838  2-5  1.982813540  2-6  2.087579518
     ( 1.769128034)     ( 1.104699507)     ( 1.049726631)     ( 1.049259739)     ( 1.104699507)

 Bond angles

  1-2-5  112.12783206   1-2-6  117.08934992   2-1-3  117.08934992   2-1-4  112.19348789

  3-1-4  114.98567025   5-2-6  115.01222360

 NUCLEAR CHARGE:                   16
 NUMBER OF PRIMITIVE AOS:          72
 NUMBER OF SYMMETRY AOS:           70
 NUMBER OF CONTRACTIONS:           36   (   36A   )
 NUMBER OF CORE ORBITALS:           2   (    2A   )
 NUMBER OF VALENCE ORBITALS:       12   (   12A   )


 NUCLEAR REPULSION ENERGY   29.09293778

 Eigenvalues of metric

         1 0.202E-01 0.341E-01 0.419E-01 0.658E-01 0.730E-01 0.235E+00 0.272E+00 0.305E+00


 Contracted 2-electron integrals neglected if value below      1.0D-11
 AO integral compression algorithm  1   Integral accuracy      1.0D-11

     1.311 MB (compressed) written to integral file ( 66.4%)


 NUMBER OF SORTED TWO-ELECTRON INTEGRALS:     222111.     BUFFER LENGTH:  32768
 NUMBER OF SEGMENTS:   1  SEGMENT LENGTH:     222111      RECORD LENGTH: 524288

 Memory used in sort:       0.78 MW

 SORT1 READ      284735. AND WROTE      212432. INTEGRALS IN      1 RECORDS. CPU TIME:     0.01 SEC, REAL TIME:     0.01 SEC
 SORT2 READ      212432. AND WROTE      222111. INTEGRALS IN      5 RECORDS. CPU TIME:     0.02 SEC, REAL TIME:     0.02 SEC

 FILE SIZES:   FILE 1:    31.4 MBYTE,  FILE 4:     4.2 MBYTE,   TOTAL:     35.6 MBYTE

 OPERATOR DM      FOR CENTER  0  COORDINATES:    0.000000    0.000000    0.000000


 **********************************************************************************************************************************
 DATASETS  * FILE   NREC   LENGTH (MB)   RECORD NAMES
              1      19       31.09       500      610      700      900      950      970     1000      129      960     1100   
                                          VAR    BASINP    GEOM    SYMINP    ZMAT    AOBASIS   BASIS     P2S    ABASIS      S 
                                         1400     1410     1200     1210     1080     1600     1650     1300     1700   
                                           T        V       H0       H01     AOSYM     SMH    MOLCAS    ERIS     OPER   

 PROGRAMS   *        TOTAL       INT
 CPU TIMES  *         0.25      0.16
 REAL TIME  *         0.44 SEC
 DISK USED  *        35.97 MB
 **********************************************************************************************************************************


 PROGRAM * RHF-SCF (CLOSED SHELL)       Authors: W. Meyer, H.-J. Werner


 NUMBER OF ELECTRONS:       8+    8-    SPACE SYMMETRY=1    SPIN SYMMETRY: Singlet 
 CONVERGENCE THRESHOLDS:    1.00E-05 (Density)    1.00E-07 (Energy)
 MAX. NUMBER OF ITERATIONS:       60
 INTERPOLATION TYPE:            DIIS
 INTERPOLATION STEPS:              2 (START)      1 (STEP)
 LEVEL SHIFTS:                  0.00 (CLOSED)  0.00 (OPEN) 



 Orbital guess generated from atomic densities. Full valence occupancy:    8

 Molecular orbital dump at record        2100.2

 Initial occupancy:   8

 ITERATION    DDIFF          GRAD             ENERGY        2-EL.EN.            DIPOLE MOMENTS         DIIS   ORB.
    1      0.000D+00      0.000D+00       -77.86529829    109.060936   -0.00137    0.00010    0.00100    0    start
    2      0.000D+00      0.668D-02       -77.88480511    108.642599    0.00026   -0.00003   -0.00006    1    diag
    3      0.708D-02      0.217D-02       -77.88809855    108.868245   -0.00140    0.00029    0.00121    2    diag
    4      0.350D-02      0.862D-03       -77.88887920    108.780703    0.00047   -0.00004   -0.00017    3    diag
    5      0.157D-02      0.529D-03       -77.88947708    108.799921   -0.00289    0.00059    0.00234    4    diag
    6      0.231D-02      0.142D-03       -77.88951020    108.797691    0.00326   -0.00054   -0.00228    5    diag
    7      0.517D-03      0.681D-04       -77.88951218    108.797403   -0.00094    0.00023    0.00088    6    diag
    8      0.829D-04      0.146D-04       -77.88951235    108.797807   -0.00040    0.00013    0.00047    7    diag
    9      0.294D-04      0.318D-05       -77.88951236    108.797787   -0.00042    0.00013    0.00049    8    diag
   10      0.118D-04      0.505D-06       -77.88951236    108.797792   -0.00042    0.00013    0.00049    9    orth
   11      0.168D-05      0.828D-07       -77.88951236    108.797793   -0.00042    0.00013    0.00049    0    orth

 Final occupancy:   8

 !RHF STATE  1.1 Energy               -77.889512362034
 Nuclear energy                        29.09293778
 One-electron energy                 -161.38134651
 Two-electron energy                   54.39889637
 Virial quotient                       -1.00585416
 !RHF STATE  1.1 Dipole moment         -0.00042053     0.00013446     0.00048606
 Dipole moment /Debye                  -0.00106880     0.00034173     0.00123535

 ELECTRON ORBITALS
 =================

  Orbital  Occupation    Energy     Coefficients
    1.1     2.00000   -11.27844     1 1s   -0.79862     2 1s   -0.59568
    2.1     2.00000   -11.27812     1 1s    0.59579     2 1s   -0.79870
    3.1     2.00000    -0.94558     1 1s    0.28351     1 1s    0.27149     2 1s    0.28362     2 1s    0.27156
    4.1     2.00000    -0.83241     1 1s    0.26235     1 1s    0.25212     2 1s   -0.26223     2 1s   -0.25193
    5.1     2.00000    -0.60937     1 2py   0.31743     2 2py   0.31793
    6.1     2.00000    -0.54924     1 2py   0.32150     2 2py  -0.32110
    7.1     2.00000    -0.48521     1 2px  -0.37789     2 2px   0.37786
    8.1     2.00000    -0.31340     1 2pz   0.31053     1 2pz   0.32529     2 2pz   0.31069     2 2pz   0.32542
    9.1     0.00000     0.07348     1 2pz   0.35710     1 2pz   0.50073     2 2pz  -0.35701     2 2pz  -0.50057
   10.1     0.00000     0.26213     1 1s   -1.45567     1 2px   0.60280     1 2pz   0.27375     2 1s   -1.43033     2 2px  -0.60676
                                    2 2pz  -0.26804     3 1s    1.05678     4 1s    1.06675     5 1s    1.05740     6 1s    1.04211
   11.1     0.00000     0.26609     1 1s    1.61134     1 2px   0.29986     1 2pz  -0.39487     2 1s   -1.63476     2 2px   0.29046
                                    2 2pz  -0.39944     3 1s   -0.93994     4 1s   -0.53703     5 1s    0.55388     6 1s    0.95742
   12.1     0.00000     0.32232     1 1s    0.48620     1 2py  -0.92030     2 1s   -0.48782     2 2py  -0.91655     3 1s    0.98400
                                    4 1s   -1.25762     5 1s    1.25529     6 1s   -0.97923
   13.1     0.00000     0.34933     1 2py   1.29483     2 2py  -1.29886     3 1s   -1.25909     4 1s    1.39616     5 1s    1.39017
                                    6 1s   -1.26975
   14.1     0.00000     0.35025     1 1s   -0.32818     1 2px   0.32393     1 2px   1.21870     2 1s    0.33016     2 2px   0.32412
                                    2 2px   1.22087     3 1s    0.69042     4 1s    0.98837     5 1s   -1.00477     6 1s   -0.67611
   15.1     0.00000     0.69289     1 2py  -0.42616     1 2py   0.79071     2 2py  -0.42613     2 2py   0.79182     3 1s   -0.34614
                                    4 1s    0.33080     5 1s   -0.33078     6 1s    0.34605
   16.1     0.00000     0.77401     1 2px  -0.61654     1 2px   1.30129     2 2px  -0.62032     2 2px   1.30752     3 1s    0.28618
                                    4 1s    0.27550     4 1s    0.26501     5 1s   -0.27700     5 1s   -0.26769     6 1s   -0.28716
   17.1     0.00000     0.78861     1 1s   -0.90045     1 2px  -0.57599     1 2px   1.00600     2 1s   -0.90315     2 2px   0.57186
                                    2 2px  -0.99541     4 1s    0.27039     4 1s    0.30435     5 1s    0.26835     5 1s    0.30200
   18.1     0.00000     0.80720     1 2pz   0.78700     1 2px   0.27728     1 2pz  -0.71167     2 2pz   0.78704     2 2px   0.27983
                                    2 2pz  -0.71131
   19.1     0.00000     0.85178     1 2pz  -0.73220     1 2px   0.33084     1 2pz   0.86741     2 2pz   0.73264     2 2px  -0.32931
                                    2 2pz  -0.86812
   20.1     0.00000     0.95561     1 2py   0.68595     1 2py  -2.02091     2 2py  -0.68594     2 2py   2.02190     3 1s    0.77950
                                    4 1s   -0.74886     5 1s   -0.74921     6 1s    0.77999
   21.1     0.00000     0.99059     1 1s   -0.76735     1 1s    1.18721     1 2px  -0.36006     1 2py   0.37406     1 2pz  -0.44973
                                    2 1s   -0.76630     2 1s    1.18619     2 2px   0.35950     2 2py  -0.37314     2 2pz   0.44960
                                    3 1s   -0.46926     3 1s   -0.25151     4 1s   -0.31577     5 1s   -0.31572     6 1s   -0.46894
                                    6 1s   -0.25125
   22.1     0.00000     1.16738     1 1s    0.28326     1 2px  -0.36276     1 2py   0.46059     1 2px   0.79682     1 2py  -0.71933
                                    2 1s   -0.28129     2 2px  -0.36318     2 2py   0.46181     2 2px   0.79755     2 2py  -0.72009
                                    3 1s   -0.70775     3 1s    1.15830     6 1s    0.71005     6 1s   -1.16136
   23.1     0.00000     1.17256     1 1s   -0.73443     1 1s    1.20229     1 2py  -0.39049     1 2py   0.28535     2 1s   -0.73242
                                    2 1s    1.19844     2 2py   0.38665     2 2py  -0.27986     3 1s    0.68733     3 1s   -1.10260
                                    6 1s    0.68498     6 1s   -1.09642
   24.1     0.00000     1.21174     1 1s    0.49490     1 1s   -1.27690     1 2px   0.34123     1 2py   0.50675     1 2px  -0.85290
                                    1 2py  -0.58306     1 2pz   0.28936     2 1s   -0.52214     2 1s    1.32235     2 2px   0.33421
                                    2 2py   0.50106     2 2px  -0.84084     2 2py  -0.57893     2 2pz   0.29367     3 1s    0.54166
                                    4 1s    0.66996     4 1s   -0.92217     5 1s   -0.65331     5 1s    0.89078     6 1s   -0.55385
   25.1     0.00000     1.22737     1 1s   -0.90181     1 1s    1.52831     1 2px   0.26563     1 2py   0.29505     1 2px  -0.40469
                                    2 1s   -0.87280     2 1s    1.45958     2 2px  -0.27286     2 2py  -0.30635     2 2px   0.42957
                                    3 1s   -0.26886     4 1s    0.66733     4 1s   -1.18010     5 1s    0.68247     5 1s   -1.19243
                                    6 1s   -0.25008
   26.1     0.00000     1.25651     1 1s    1.52993     1 1s   -3.36640     1 2py   0.38736     1 2pz   0.45576     2 1s   -1.53940
                                    2 1s    3.38259     2 2py   0.38958     2 2pz   0.45810     3 1s    0.51877     4 1s    1.15961
                                    5 1s   -1.17242     6 1s   -0.52128
   27.1     0.00000     1.80891     1 1s    0.40678     1 3d1+  0.52189     1 3d2+  0.36878     2 1s   -0.40695     2 3d1+ -0.52168
                                    2 3d2+ -0.36891
   28.1     0.00000     1.90446     1 3d2- -0.27285     1 3d1-  0.61876     2 3d2-  0.27308     2 3d1- -0.61796
   29.1     0.00000     1.90852     1 1s    0.33011     1 3d0   0.35712     1 3d1+  0.41404     1 3d2+ -0.32050     2 1s    0.33028
                                    2 3d0   0.35764     2 3d1+  0.41351     2 3d2+ -0.31985
   30.1     0.00000     2.10962     1 2py  -0.66086     1 3d1-  0.65862     2 2py   0.66074     2 3d1-  0.65834     3 1s    0.30353
                                    6 1s    0.30359
   31.1     0.00000     2.20464     1 1s   -0.43689     1 2px   0.31176     1 3d1+  0.37733     1 3d2+  0.58381     2 1s   -0.43659
                                    2 2px  -0.31103     2 3d1+  0.37705     2 3d2+  0.58351     4 1s    0.26393     5 1s    0.26309
   32.1     0.00000     2.37431     1 1s    0.33288     1 1s   -1.09100     1 3d0   0.65677     1 3d2+  0.29409     2 1s   -0.33274
                                    2 1s    1.08940     2 3d0  -0.65267     2 3d2+ -0.29391     3 1s    0.49923     4 1s    0.27784
                                    5 1s   -0.27626     6 1s   -0.49733
   33.1     0.00000     2.39236     1 1s   -0.30873     1 3d0   0.64143     1 3d1+ -0.37447     2 1s   -0.31597     2 3d0   0.64514
                                    2 3d1+ -0.37391     3 1s    0.31475     4 1s    0.33773     5 1s    0.33843     6 1s    0.31869
   34.1     0.00000     2.53286     1 1s    0.56910     1 2py  -0.32227     1 3d2-  0.66445     1 3d1-  0.31352     2 1s   -0.57045
                                    2 2py  -0.32300     2 3d2- -0.66258     2 3d1- -0.31481     3 1s    0.34472     4 1s   -0.59582
                                    5 1s    0.59650     6 1s   -0.34304
   35.1     0.00000     2.65210     1 2py  -0.49127     1 3d2-  0.77433     2 2py   0.49258     2 3d2-  0.77492     3 1s    0.46111
                                    4 1s   -0.55264     5 1s   -0.55384     6 1s    0.46181
   36.1     0.00000     2.76827     1 1s   -0.30925     1 1s    1.13466     1 2px   0.75049     1 2pz  -0.28928     1 3d2- -0.29268
                                    1 3d1+ -0.51491     1 3d2+  0.63018     2 1s    0.30955     2 1s   -1.13466     2 2px   0.75077
                                    2 2pz  -0.28921     2 3d2-  0.29448     2 3d1+  0.51512     2 3d2+ -0.63032


 HOMO      8.1    -0.313400 =      -8.5280eV
 LUMO      9.1     0.073475 =       1.9994eV
 LUMO-HOMO         0.386875 =      10.5274eV


 **********************************************************************************************************************************
 DATASETS  * FILE   NREC   LENGTH (MB)   RECORD NAMES
              1      19       31.09       500      610      700      900      950      970     1000      129      960     1100   
                                          VAR    BASINP    GEOM    SYMINP    ZMAT    AOBASIS   BASIS     P2S    ABASIS      S 
                                         1400     1410     1200     1210     1080     1600     1650     1300     1700   
                                           T        V       H0       H01     AOSYM     SMH    MOLCAS    ERIS     OPER   

              2       4        2.86       700     1000      520     2100   
                                         GEOM     BASIS   MCVARS     RHF  

 PROGRAMS   *        TOTAL    HF-SCF       INT
 CPU TIMES  *         0.34      0.09      0.16
 REAL TIME  *         0.61 SEC
 DISK USED  *        35.97 MB
 **********************************************************************************************************************************


 PROGRAM * MULTI (Direct Multiconfiguration SCF)       Authors: P.J. Knowles, H.-J. Werner (1984)


 Number of closed-shell orbitals:   7 (   7 )
 Number of active  orbitals:        2 (   2 )
 Number of external orbitals:      27 (  27 )

 State symmetry 1

 Number of electrons:     2    Spin symmetry=Singlet   Space symmetry=1
 Number of states:        3
 Number of CSFs:          3   (4 determinants, 4 intermediate states)

 Molecular orbitals read from record     2100.2  Type=RHF/CANONICAL (state 1.1)

 Wavefunction dump at record             2140.2

 Convergence thresholds  0.10E-01 (gradient)  0.10E-05 (energy)  0.10E-02 (step length)

 Weight factors for state symmetry  1:    0.33333   0.33333   0.33333

 Number of orbital rotations:      257   (    14 Core/Active    189 Core/Virtual   0 Active/Active     54 Active/Virtual)
 Total number of variables:        269

 Micro-Iterations solved by the two-step solver

 ITER. MIC  NCI  NEG     ENERGY(VAR)     ENERGY(PROJ)   ENERGY CHANGE     GRAD(0)  GRAD(ORB)   GRAD(CI)     STEP       TIME

   1   13    5    0     -77.71039679     -77.71678777   -0.00639097    0.08689830 0.00076247 0.00000000  0.13D+00      0.31
   2   15    7    0     -77.71667798     -77.71671561   -0.00003763    0.00553311 0.00000401 0.00000000  0.37D-01      0.47
   3   13    6    0     -77.71671846     -77.71672171   -0.00000325    0.00072702 0.00000428 0.00000000  0.17D-01      0.60
   4    8    6    0     -77.71672178     -77.71672180   -0.00000002    0.00012794 0.00000001 0.00000000  0.99D-03      0.70
   5    4    4    0     -77.71672180     -77.71672180   -0.00000000    0.00000042 0.00000000 0.00000000  0.68D-05      0.77

 ** WVFN ****  CONVERGENCE REACHED, FINAL GRADIENT:  0.61D-10



 Results for state 1.1
 =====================

 !MCSCF STATE  1.1 Energy             -77.918274283755
 Nuclear energy                        29.09293778
 Kinetic energy                        77.51030292
 One electron energy                 -161.29728098
 Two electron energy                   54.28606891
 Virial ratio                           2.00526345

 !MCSCF STATE  1.1 Dipole moment       -0.00054483     0.00012980     0.00039004
 Dipole moment /Debye                  -0.00138474     0.00032990     0.00099132

 Results for state 2.1
 =====================

 !MCSCF STATE  2.1 Energy             -77.653662732652
 Nuclear energy                        29.09293778
 Kinetic energy                        77.63345018
 One electron energy                 -161.22564490
 Two electron energy                   54.47904438
 Virial ratio                           2.00026036

 !MCSCF STATE  2.1 Dipole moment       -0.00165494     0.00043292     0.00228233
 Dipole moment /Debye                  -0.00420615     0.00110029     0.00580073

 Results for state 3.1
 =====================

 !MCSCF STATE  3.1 Energy             -77.578228384379
 Nuclear energy                        29.09293778
 Kinetic energy                        77.75659548
 One electron energy                 -161.15400554
 Two electron energy                   54.48283937
 Virial ratio                           1.99770608

 !MCSCF STATE  3.1 Dipole moment        0.00330947    -0.00035518     0.00033405
 Dipole moment /Debye                   0.00841129    -0.00090273     0.00084902

 State-averaged charge density matrix saved on record  2140.2 (density set 1)

 !MCSCF expec         <1.1|DMX|1.1>    -0.000544832781 au =    -0.001384736099 Debye
 !MCSCF trans         <2.1|DMX|1.1>     1.138861369939 au =     2.894507280608 Debye
 !MCSCF expec         <2.1|DMX|2.1>    -0.001654935313 au =    -0.004206150493 Debye
 !MCSCF trans         <3.1|DMX|1.1>    -0.000275849222 au =    -0.000701092866 Debye
 !MCSCF trans         <3.1|DMX|2.1>     2.413696115423 au =     6.134601773037 Debye
 !MCSCF expec         <3.1|DMX|3.1>     0.003309473735 au =     0.008411292254 Debye

 !MCSCF expec         <1.1|DMY|1.1>     0.000129800361 au =     0.000329898002 Debye
 !MCSCF trans         <2.1|DMY|1.1>    -0.204583375387 au =    -0.519965015215 Debye
 !MCSCF expec         <2.1|DMY|2.1>     0.000432916794 au =     0.001100292666 Debye
 !MCSCF trans         <3.1|DMY|1.1>    -0.000035872319 au =    -0.000091172369 Debye
 !MCSCF trans         <3.1|DMY|2.1>    -0.433592926679 au =    -1.102011110589 Debye
 !MCSCF expec         <3.1|DMY|3.1>    -0.000355183312 au =    -0.000902726801 Debye

 !MCSCF expec         <1.1|DMZ|1.1>     0.000390041173 au =     0.000991320844 Debye
 !MCSCF trans         <2.1|DMZ|1.1>    -0.720037427767 au =    -1.830032725665 Debye
 !MCSCF expec         <2.1|DMZ|2.1>     0.002282332214 au =     0.005800729910 Debye
 !MCSCF trans         <3.1|DMZ|1.1>    -0.000806254815 au =    -0.002049161112 Debye
 !MCSCF trans         <3.1|DMZ|2.1>    -1.526044477172 au =    -3.878564122292 Debye
 !MCSCF expec         <3.1|DMZ|3.1>     0.000334051416 au =     0.000849018398 Debye


 NATURAL ORBITALS (state averaged)
 =================================

  Orbital  Occupation    Energy     Coefficients
    1.1     2.00000   -11.27584     1 1s   -0.77933     2 1s   -0.62069
    2.1     2.00000   -11.27562     1 1s    0.62076     2 1s   -0.77938
    3.1     2.00000    -0.94425     1 1s    0.28679     1 1s    0.27165     2 1s    0.28710     2 1s    0.27198
    4.1     2.00000    -0.83405     1 1s    0.26359     1 1s    0.27676     2 1s   -0.26327     2 1s   -0.27642
    5.1     2.00000    -0.61171     1 2py   0.31731     2 2py   0.31806
    6.1     2.00000    -0.55008     1 2py   0.32229     2 2py  -0.32164
    7.1     2.00000    -0.48359     1 2px  -0.37601     2 2px   0.37666
    8.1     1.00000    -0.18626     1 2pz   0.27960     1 2pz   0.31152     2 2pz   0.27962     2 2pz   0.31142
    9.1     1.00000    -0.05503     1 2pz   0.38178     1 2pz   0.48019     2 2pz  -0.38096     2 2pz  -0.47926
   10.1    -0.00000     0.25923     1 1s    1.59695     1 2px   0.35342     1 2pz  -0.42677     2 1s   -1.57763     2 2px   0.36188
                                    2 2pz  -0.42457     3 1s   -0.88291     4 1s   -0.50827     5 1s    0.49398     6 1s    0.86953
   11.1    -0.00000     0.26100     1 1s   -1.43814     1 2px   0.61455     1 2pz   0.25952     2 1s   -1.45994     2 2px  -0.60934
                                    2 2pz  -0.26571     3 1s    1.04054     4 1s    1.06569     5 1s    1.07210     6 1s    1.05277
   12.1    -0.00000     0.31766     1 1s    0.42134     1 2py  -0.92613     2 1s   -0.42278     2 2py  -0.92352     3 1s    1.04053
                                    4 1s   -1.18873     5 1s    1.18753     6 1s   -1.03702
   13.1    -0.00000     0.34470     1 1s   -0.48914     1 2px   0.31256     1 2px   1.16809     2 1s    0.48944     2 2px   0.31251
                                    2 2px   1.16727     3 1s    0.69453     4 1s    1.10321     5 1s   -1.09767     6 1s   -0.69981
   14.1    -0.00000     0.34830     1 2py   1.29516     2 2py  -1.29783     3 1s   -1.26878     4 1s    1.38435     5 1s    1.39300
                                    6 1s   -1.26799
   15.1    -0.00000     0.68772     1 2py  -0.43122     1 2py   0.78388     2 2py  -0.43109     2 2py   0.78506     3 1s   -0.34251
                                    4 1s    0.33278     5 1s   -0.33276     6 1s    0.34244
   16.1    -0.00000     0.77081     1 2px  -0.60362     1 2px   1.29004     2 2px  -0.60762     2 2px   1.29694     3 1s    0.28955
                                    4 1s    0.27396     5 1s   -0.27564     5 1s   -0.25255     6 1s   -0.29064
   17.1    -0.00000     0.78779     1 1s   -0.83800     1 2px  -0.58616     1 2px   1.00017     2 1s   -0.84184     2 2px   0.58168
                                    2 2px  -0.98823     4 1s    0.26437     4 1s    0.28112     5 1s    0.26217     5 1s    0.27873
   18.1    -0.00000     0.80317     1 2pz   0.79074     1 2px   0.39187     1 2pz  -0.72194     2 2pz   0.79047     2 2px   0.39563
                                    2 2pz  -0.72067
   19.1    -0.00000     0.84587     1 2pz  -0.72894     1 2px   0.31735     1 2pz   0.88415     2 2pz   0.73016     2 2px  -0.31511
                                    2 2pz  -0.88553
   20.1    -0.00000     0.95380     1 2py   0.68256     1 2py  -2.00447     2 2py  -0.68252     2 2py   2.00554     3 1s    0.76068
                                    4 1s   -0.25189     4 1s   -0.76685     5 1s   -0.25187     5 1s   -0.76723     6 1s    0.76121
   21.1    -0.00000     0.98625     1 1s   -0.78543     1 1s    1.23896     1 2px  -0.33701     1 2py   0.46731     1 2pz  -0.44888
                                    2 1s   -0.78466     2 1s    1.23830     2 2px   0.33668     2 2py  -0.46639     2 2pz   0.44867
                                    3 1s   -0.47257     3 1s   -0.30965     4 1s   -0.30720     5 1s   -0.30706     6 1s   -0.47216
                                    6 1s   -0.30941
   22.1    -0.00000     1.16460     1 1s    0.54466     1 2px  -0.36382     1 2py   0.44895     1 2px   0.83983     1 2py  -0.71883
                                    2 1s   -0.53693     2 2px  -0.36477     2 2py   0.45171     2 2px   0.84187     2 2py  -0.72067
                                    3 1s   -0.70175     3 1s    1.09933     6 1s    0.70705     6 1s   -1.10727
   23.1    -0.00000     1.17104     1 1s   -0.70814     1 1s    1.16133     1 2py  -0.39653     1 2py   0.28948     2 1s   -0.70701
                                    2 1s    1.16058     2 2py   0.39024     2 2py  -0.28014     3 1s    0.69248     3 1s   -1.09813
                                    6 1s    0.68695     6 1s   -1.08680
   24.1    -0.00000     1.20528     1 1s    0.63559     1 1s   -1.56974     1 2px   0.30515     1 2py   0.50447     1 2px  -0.82773
                                    1 2py  -0.57645     1 2pz   0.31737     2 1s   -0.65543     2 1s    1.60280     2 2px   0.30036
                                    2 2py   0.50208     2 2px  -0.81919     2 2py  -0.57491     2 2pz   0.32025     3 1s    0.63971
                                    4 1s    0.63356     4 1s   -0.80931     5 1s   -0.62327     5 1s    0.78882     6 1s   -0.65087
   25.1    -0.00000     1.22660     1 1s   -0.91150     1 1s    1.54539     1 2px   0.27786     1 2py   0.28404     1 2px  -0.41963
                                    2 1s   -0.88459     2 1s    1.48376     2 2px  -0.28050     2 2py  -0.29082     2 2px   0.43455
                                    3 1s   -0.29445     4 1s    0.66805     4 1s   -1.18183     5 1s    0.67574     5 1s   -1.18281
                                    6 1s   -0.27784
   26.1    -0.00000     1.25212     1 1s    1.47322     1 1s   -3.20404     1 2py   0.39639     1 2pz   0.40942     2 1s   -1.48253
                                    2 1s    3.22002     2 2py   0.39889     2 2pz   0.41145     3 1s    0.53208     4 1s   -0.30583
                                    4 1s    1.23498     5 1s    0.31334     5 1s   -1.24826     6 1s   -0.53406
   27.1    -0.00000     1.80333     1 1s    0.39843     1 3d1+  0.52161     1 3d2+  0.37034     2 1s   -0.39862     2 3d1+ -0.52136
                                    2 3d2+ -0.37039
   28.1    -0.00000     1.89793     1 3d2- -0.27062     1 3d1-  0.61959     2 3d2-  0.27092     2 3d1- -0.61901
   29.1    -0.00000     1.90120     1 1s    0.32358     1 3d0   0.35541     1 3d1+  0.41419     1 3d2+ -0.32251     2 1s    0.32378
                                    2 3d0   0.35594     2 3d1+  0.41367     2 3d2+ -0.32188
   30.1    -0.00000     2.10636     1 2py  -0.65758     1 3d1-  0.65599     2 2py   0.65754     2 3d1-  0.65549     3 1s    0.30379
                                    6 1s    0.30390
   31.1    -0.00000     2.19650     1 1s   -0.42781     1 2px   0.30914     1 3d1+  0.38233     1 3d2+  0.57884     2 1s   -0.42733
                                    2 2px  -0.30837     2 3d1+  0.38214     2 3d2+  0.57845     4 1s    0.25770     5 1s    0.25679
   32.1    -0.00000     2.36867     1 1s    0.33462     1 1s   -1.09524     1 3d0   0.65590     1 3d2+  0.29225     2 1s   -0.33447
                                    2 1s    1.09446     2 3d0  -0.65349     2 3d2+ -0.29258     3 1s    0.50111     4 1s    0.27672
                                    5 1s   -0.27609     6 1s   -0.50004
   33.1    -0.00000     2.38634     1 1s   -0.31737     1 3d0   0.64453     1 3d1+ -0.36588     2 1s   -0.32148     2 3d0   0.64645
                                    2 3d1+ -0.36568     3 1s    0.32033     4 1s    0.34200     5 1s    0.34199     6 1s    0.32299
   34.1    -0.00000     2.52661     1 1s    0.57281     1 2py  -0.32075     1 3d2-  0.66431     1 3d1-  0.31175     2 1s   -0.57414
                                    2 2py  -0.32139     2 3d2- -0.66221     2 3d1- -0.31300     3 1s    0.34505     4 1s   -0.59816
                                    5 1s    0.59866     6 1s   -0.34320
   35.1    -0.00000     2.64738     1 2py  -0.48986     1 3d2-  0.77393     2 2py   0.49129     2 3d2-  0.77470     3 1s    0.46188
                                    4 1s   -0.55405     5 1s   -0.55539     6 1s    0.46270
   36.1    -0.00000     2.76273     1 1s   -0.31086     1 1s    1.13669     1 2px   0.75272     1 2pz  -0.29050     1 3d2- -0.29282
                                    1 3d1+ -0.51548     1 3d2+  0.63030     2 1s    0.31117     2 1s   -1.13672     2 2px   0.75300
                                    2 2pz  -0.29040     2 3d2-  0.29468     2 3d1+  0.51558     2 3d2+ -0.63044


 Natural orbital dump (state averaged) at molpro section  2140.2    (Orbital set 2)



 **********************************************************************************************************************************
 DATASETS  * FILE   NREC   LENGTH (MB)   RECORD NAMES
              1      20       31.82       500      610      700      900      950      970     1000      129      960     1100   
                                          VAR    BASINP    GEOM    SYMINP    ZMAT    AOBASIS   BASIS     P2S    ABASIS      S 
                                         1400     1410     1200     1210     1080     1600     1650     1300     1700     1380   
                                           T        V       H0       H01     AOSYM     SMH    MOLCAS    ERIS     OPER     JKOP   

              2       5        5.42       700     1000      520     2100     2140   
                                         GEOM     BASIS   MCVARS     RHF     MCSCF   

 PROGRAMS   *        TOTAL     MULTI    HF-SCF       INT
 CPU TIMES  *         1.16      0.82      0.09      0.16
 REAL TIME  *         1.54 SEC
 DISK USED  *        39.01 MB
 **********************************************************************************************************************************
 Molecular orbitals read from record     2140.2  Type=MCSCF/NATURAL (state averaged)
 Occupation numbers read from record     2140.2  Type=MCSCF/NATURAL (state averaged)
 Orbital energies read from record       2140.2  Type=MCSCF/NATURAL (state averaged)
 Redundancy group numbers read from rec  2140.2  Type=MCSCF/NATURAL (state averaged)

 MULTI/6-31G* energy=    -77.578228384379

           MULTI          HF-SCF
    -77.57822838    -77.88951236
 **********************************************************************************************************************************
 Molpro calculation terminated
