
 Primary working directories    : /scratch.local/johan406.molpro_temp/molpro.T8wwV6loni
 Secondary working directories  : /scratch.local/johan406.molpro_temp/molpro.T8wwV6loni
 Wavefunction directory         : /home/goodpast/johan406/wfu/
 Main file repository           : /scratch.local/johan406.molpro_temp/molpro.T8wwV6loni/

 id        : roweumn

 Nodes     nprocs
 acn06        1

 Using customized tuning parameters: mindgm=1; mindgv=20; mindgc=4; mindgr=1; noblas=0; minvec=7
 default implementation of scratch files=df  


 Variables initialized (934), CPU time= 0.00 sec
                                                                                 !leave this line blank
 
 gprint, orbitals=30
 memory, 125., m
 symmetry, nosym
 nelect=16
 basis=6-31g*
 
 geometry={
 C -0.820 0.087 0.307
 C 0.828 -0.137 -0.367
 H -1.121 1.107 0.051
 H -1.466 -0.696 0.213
 H 1.474 0.647 -0.273
 H 1.130 -1.157 -0.111
 }
 
 hf
 {multi,
 closed 7
 occ 9
 wf,spin=0;STATE,3
 }
 
 Commands  initialized (763), CPU time= 0.01 sec, 617 directives.
 Default parameters read. Elapsed time= 0.05 sec

 Checking input...
 Passed
1


                                         ***  PROGRAM SYSTEM MOLPRO  ***
                                       Copyright, TTI GmbH Stuttgart, 2015
                                    Version 2019.2 linked Oct 25 2019 22:50:27


 **********************************************************************************************************************************
 LABEL *                                                                                 
  64 bit serial version                                                                  DATE: 15-Mar-23          TIME: 16:39:40  
 **********************************************************************************************************************************

 SHA1:             8dbd9ae1082e4ce945b0f27595c9eb2d4aa09004
 **********************************************************************************************************************************


 Variable memory set to  125000000 words,  buffer space 

 SETTING NELECT         =        16.00000000                                  
 SETTING BASIS          =    6-31G*
 ZSYMEL=NOSYM


Geometry recognized as XYZ



 Recomputing integrals since basis changed


 Using spherical harmonics

 Library entry C      S 6-31G                selected for orbital group  1
 Library entry C      P 6-31G                selected for orbital group  1
 Library entry C      D 6-31G*               selected for orbital group  1
 Library entry H      S 6-31G                selected for orbital group  2


 PROGRAM * SEWARD (Integral evaluation for generally contracted gaussian basis sets)     Author: Roland Lindh, 1990

 Geometry written to block  1 of record 700


 Point group  C1  



 ATOMIC COORDINATES

 NR  ATOM    CHARGE       X              Y              Z

   1  C       6.00   -1.549575422    0.164406173    0.580145920
   2  C       6.00    1.564693231   -0.258892479   -0.693529488
   3  H       1.00   -2.118382986    2.091926820    0.096376032
   4  H       1.00   -2.770338499   -1.315249383    0.402511665
   5  H       1.00    2.785456308    1.222652803   -0.515895232
   6  H       1.00    2.135390521   -2.186413126   -0.209759600

 Bond lengths in Bohr (Angstrom)

 1-2  3.391179741  1-3  2.067102125  1-4  1.926446724  2-5  1.927898555  2-6  2.067622922
     ( 1.794535037)     ( 1.093863337)     ( 1.019431704)     ( 1.020199980)     ( 1.094138931)

 Bond angles

  1-2-5  116.80618290   1-2-6  106.37757792   2-1-3  106.33168924   2-1-4  116.83586459

  3-1-4  121.34958551   5-2-6  121.33699485

 NUCLEAR CHARGE:                   16
 NUMBER OF PRIMITIVE AOS:          72
 NUMBER OF SYMMETRY AOS:           70
 NUMBER OF CONTRACTIONS:           36   (   36A   )
 NUMBER OF CORE ORBITALS:           2   (    2A   )
 NUMBER OF VALENCE ORBITALS:       12   (   12A   )


 NUCLEAR REPULSION ENERGY   29.26091044

 Eigenvalues of metric

         1 0.198E-01 0.305E-01 0.437E-01 0.583E-01 0.761E-01 0.229E+00 0.278E+00 0.286E+00


 Contracted 2-electron integrals neglected if value below      1.0D-11
 AO integral compression algorithm  1   Integral accuracy      1.0D-11

     1.311 MB (compressed) written to integral file ( 66.3%)


 NUMBER OF SORTED TWO-ELECTRON INTEGRALS:     222111.     BUFFER LENGTH:  32768
 NUMBER OF SEGMENTS:   1  SEGMENT LENGTH:     222111      RECORD LENGTH: 524288

 Memory used in sort:       0.78 MW

 SORT1 READ      284735. AND WROTE      212397. INTEGRALS IN      1 RECORDS. CPU TIME:     0.01 SEC, REAL TIME:     0.00 SEC
 SORT2 READ      212397. AND WROTE      222111. INTEGRALS IN      5 RECORDS. CPU TIME:     0.02 SEC, REAL TIME:     0.02 SEC

 FILE SIZES:   FILE 1:    31.4 MBYTE,  FILE 4:     4.2 MBYTE,   TOTAL:     35.6 MBYTE

 OPERATOR DM      FOR CENTER  0  COORDINATES:    0.000000    0.000000    0.000000


 **********************************************************************************************************************************
 DATASETS  * FILE   NREC   LENGTH (MB)   RECORD NAMES
              1      19       31.09       500      610      700      900      950      970     1000      129      960     1100   
                                          VAR    BASINP    GEOM    SYMINP    ZMAT    AOBASIS   BASIS     P2S    ABASIS      S 
                                         1400     1410     1200     1210     1080     1600     1650     1300     1700   
                                           T        V       H0       H01     AOSYM     SMH    MOLCAS    ERIS     OPER   

 PROGRAMS   *        TOTAL       INT
 CPU TIMES  *         0.27      0.17
 REAL TIME  *         0.41 SEC
 DISK USED  *        35.97 MB
 **********************************************************************************************************************************


 PROGRAM * RHF-SCF (CLOSED SHELL)       Authors: W. Meyer, H.-J. Werner


 NUMBER OF ELECTRONS:       8+    8-    SPACE SYMMETRY=1    SPIN SYMMETRY: Singlet 
 CONVERGENCE THRESHOLDS:    1.00E-05 (Density)    1.00E-07 (Energy)
 MAX. NUMBER OF ITERATIONS:       60
 INTERPOLATION TYPE:            DIIS
 INTERPOLATION STEPS:              2 (START)      1 (STEP)
 LEVEL SHIFTS:                  0.00 (CLOSED)  0.00 (OPEN) 



 Orbital guess generated from atomic densities. Full valence occupancy:    8

 Molecular orbital dump at record        2100.2

 Initial occupancy:   8

 ITERATION    DDIFF          GRAD             ENERGY        2-EL.EN.            DIPOLE MOMENTS         DIIS   ORB.
    1      0.000D+00      0.000D+00       -77.85026229    109.342555    0.00220    0.00007   -0.00116    0    start
    2      0.000D+00      0.674D-02       -77.86991357    108.922398   -0.00117    0.00023    0.00096    1    diag
    3      0.728D-02      0.216D-02       -77.87323469    109.144132    0.00232   -0.00010   -0.00158    2    diag
    4      0.352D-02      0.865D-03       -77.87406892    109.062659   -0.00192    0.00030    0.00139    3    diag
    5      0.159D-02      0.555D-03       -77.87479168    109.081991    0.00608   -0.00043   -0.00435    4    diag
    6      0.245D-02      0.197D-03       -77.87485224    109.082460   -0.00656    0.00074    0.00471    5    diag
    7      0.651D-03      0.119D-03       -77.87486114    109.081366    0.00021    0.00012   -0.00014    6    diag
    8      0.233D-03      0.149D-04       -77.87486139    109.081806   -0.00001    0.00014    0.00002    7    diag
    9      0.404D-04      0.336D-05       -77.87486141    109.081780   -0.00001    0.00014    0.00002    8    diag
   10      0.107D-04      0.831D-06       -77.87486141    109.081790   -0.00001    0.00014    0.00002    9    orth
   11      0.216D-05      0.168D-06       -77.87486141    109.081789   -0.00001    0.00014    0.00002    0    orth

 Final occupancy:   8

 !RHF STATE  1.1 Energy               -77.874861405880
 Nuclear energy                        29.26091044
 One-electron energy                 -161.67666620
 Two-electron energy                   54.54089435
 Virial quotient                       -1.00421944
 !RHF STATE  1.1 Dipole moment         -0.00001165     0.00013757     0.00001512
 Dipole moment /Debye                  -0.00002961     0.00034965     0.00003844

 ELECTRON ORBITALS
 =================

  Orbital  Occupation    Energy     Coefficients
    1.1     2.00000   -11.27380     1 1s    0.57140     2 1s    0.81614
    2.1     2.00000   -11.27349     1 1s   -0.81622     2 1s    0.57152
    3.1     2.00000    -0.94773     1 1s    0.28298     1 1s    0.26747     2 1s    0.28251     2 1s    0.26716
    4.1     2.00000    -0.83689     1 1s   -0.26643     2 1s    0.26689
    5.1     2.00000    -0.62417     1 2py   0.31751     2 2py   0.31632
    6.1     2.00000    -0.57149     1 2py  -0.29986     2 2py   0.30111
    7.1     2.00000    -0.46117     1 2px   0.35443     2 2px  -0.35453
    8.1     2.00000    -0.30872     1 2pz   0.30954     1 2pz   0.32864     2 2pz   0.30951     2 2pz   0.32860
    9.1     0.00000     0.07180     1 2pz  -0.35620     1 2pz  -0.49755     2 2pz   0.35619     2 2pz   0.49752
   10.1     0.00000     0.25828     1 1s   -1.42617     1 2px   0.52147     1 2pz   0.26552     2 1s   -1.43573     2 2px  -0.51979
                                    2 2pz  -0.26791     3 1s    1.10230     4 1s    0.95717     5 1s    0.96315     6 1s    1.10511
   11.1     0.00000     0.27505     1 1s    1.64439     1 2px   0.45658     1 2pz  -0.43139     2 1s   -1.63384     2 2px   0.46016
                                    2 2pz  -0.42967     3 1s   -0.55062     4 1s   -0.80434     5 1s    0.79708     6 1s    0.54305
   12.1     0.00000     0.32409     1 1s   -0.46844     1 2px   0.29162     1 2py  -0.86821     2 1s    0.46808     2 2px   0.29165
                                    2 2py  -0.87160     3 1s    1.50538     4 1s   -0.47616     5 1s    0.47977     6 1s   -1.50858
   13.1     0.00000     0.34644     1 1s    0.47415     1 2px  -0.28086     1 2px  -1.07963     1 2py  -0.36601     2 1s   -0.47740
                                    2 2px  -0.28194     2 2px  -1.08482     2 2py  -0.39136     4 1s   -1.49336     5 1s    1.52106
   14.1     0.00000     0.35145     1 1s   -0.36474     1 2px   0.35666     1 2py   1.33980     2 1s   -0.35660     2 2px  -0.33527
                                    2 2py  -1.32960     3 1s   -1.17299     4 1s    1.65288     5 1s    1.62084     6 1s   -1.16869
   15.1     0.00000     0.69360     1 2py  -0.34976     1 2px   0.65267     1 2py   0.77536     2 2py  -0.34964     2 2px   0.65064
                                    2 2py   0.77283     4 1s    0.42065     4 1s    0.29092     5 1s   -0.42031     5 1s   -0.28778
   16.1     0.00000     0.77026     1 1s   -0.33588     1 1s    0.94733     1 2px   0.50502     1 2px  -0.89167     2 1s   -0.33736
                                    2 1s    0.94705     2 2px  -0.49483     2 2px   0.87339     3 1s   -0.30515     6 1s   -0.29793
   17.1     0.00000     0.77450     1 2px  -0.56189     1 2px   1.01859     1 2py  -0.47134     2 2px  -0.57110     2 2py   0.25255
                                    2 2px   1.03500     2 2py  -0.47544     3 1s    0.37231     6 1s   -0.37829
   18.1     0.00000     0.80765     1 2pz   0.78317     1 2px   0.29231     1 2pz  -0.70991     2 2pz   0.78334     2 2px   0.29165
                                    2 2pz  -0.71023
   19.1     0.00000     0.85366     1 2pz   0.74846     1 2px  -0.25100     1 2pz  -0.88427     2 2pz  -0.74821     2 2px   0.25203
                                    2 2pz   0.88394
   20.1     0.00000     0.94426     1 1s    0.61228     1 2py   0.65445     1 2px  -0.52944     1 2py  -2.02066     2 1s    0.61073
                                    2 2py  -0.65516     2 2px   0.52784     2 2py   2.02121     3 1s    0.65587     4 1s   -0.32755
                                    4 1s   -1.01119     5 1s   -0.32783     5 1s   -1.00935     6 1s    0.65629
   21.1     0.00000     0.99247     1 1s   -0.66748     1 1s    0.83521     1 2px  -0.51588     1 2px   0.29081     1 2py   0.53165
                                    1 2pz  -0.37032     2 1s   -0.66742     2 1s    0.83398     2 2px   0.51642     2 2px  -0.29135
                                    2 2py  -0.53124     2 2pz   0.37019     3 1s   -0.41321     3 1s   -0.26978     4 1s   -0.26016
                                    5 1s   -0.26100     6 1s   -0.41320     6 1s   -0.26870
   22.1     0.00000     1.17480     1 1s    0.35477     1 2px  -0.37075     1 2py   0.37647     1 2px   0.89390     1 2py  -0.55879
                                    2 1s   -0.32878     2 2px  -0.37240     2 2py   0.38085     2 2px   0.89915     2 2py  -0.56145
                                    3 1s   -0.71370     3 1s    1.05571     6 1s    0.72357     6 1s   -1.07334
   23.1     0.00000     1.19168     1 1s   -0.95494     1 1s    1.62752     1 2py  -0.29691     1 2px  -0.34015     2 1s   -0.95657
                                    2 1s    1.63488     2 2py   0.29012     2 2px   0.32624     3 1s    0.64611     3 1s   -1.12126
                                    4 1s   -0.41638     5 1s   -0.41470     6 1s    0.63463     6 1s   -1.10432
   24.1     0.00000     1.22539     1 1s   -0.96818     1 1s    2.30907     1 2px  -0.26567     1 2py  -0.50527     1 2px   0.86816
                                    1 2py   0.67442     1 2pz  -0.46552     2 1s    0.96107     2 1s   -2.29781     2 2px  -0.26705
                                    2 2py  -0.50933     2 2px   0.86983     2 2py   0.67616     2 2pz  -0.46463     3 1s   -0.93405
                                    4 1s   -0.49017     4 1s    0.53161     5 1s    0.49782     5 1s   -0.54244     6 1s    0.93432
   25.1     0.00000     1.26435     1 1s   -0.66004     1 1s    1.04109     1 2py   0.40332     1 2px  -0.30473     1 2py  -0.28838
                                    2 1s   -0.73267     2 1s    1.20059     2 2py  -0.41389     2 2px   0.29578     2 2py   0.30420
                                    4 1s    0.70397     4 1s   -1.09309     5 1s    0.72040     5 1s   -1.15277
   26.1     0.00000     1.27988     1 1s   -1.32221     1 1s    2.85218     1 2px   0.25415     1 2py   0.34106     1 2py  -0.47977
                                    1 2pz  -0.33948     2 1s    1.28768     2 1s   -2.79538     2 2py   0.32163     2 2py  -0.46535
                                    2 2pz  -0.33494     3 1s   -0.28334     4 1s    0.47031     4 1s   -1.39150     5 1s   -0.43579
                                    5 1s    1.33588     6 1s    0.28508
   27.1     0.00000     1.80761     1 1s    0.31312     1 3d0  -0.25659     1 3d1+  0.53577     1 3d2+  0.30303     2 1s   -0.31312
                                    2 3d0   0.25669     2 3d1+ -0.53564     2 3d2+ -0.30323
   28.1     0.00000     1.89807     1 1s    0.32105     1 3d0   0.35205     1 3d1+  0.42773     1 3d2+ -0.31613     2 1s    0.32068
                                    2 3d0   0.35245     2 3d1+  0.42807     2 3d2+ -0.31440
   29.1     0.00000     1.90438     1 3d1-  0.62267     2 3d1- -0.62268
   30.1     0.00000     2.11528     1 1s    0.26007     1 2py  -0.63115     1 3d2+ -0.26665     1 3d1-  0.62742     2 1s    0.25947
                                    2 2py   0.63114     2 3d2+ -0.26655     2 3d1-  0.62784     4 1s   -0.38377     5 1s   -0.38292
   31.1     0.00000     2.23838     1 1s   -0.28033     1 3d1+  0.50243     1 3d2+  0.45733     2 1s   -0.28167     2 3d1+  0.50265
                                    2 3d2+  0.45803
   32.1     0.00000     2.38567     1 1s   -0.30639     1 2py  -0.29292     1 3d0   0.57802     1 3d2+  0.33687     1 3d1-  0.28325
                                    2 1s   -0.31732     2 2py   0.29280     2 3d0   0.58426     2 3d2+  0.33915     2 3d1-  0.28432
                                    3 1s    0.50698     6 1s    0.51087
   33.1     0.00000     2.42726     1 1s    0.38156     1 1s   -1.30464     1 2px  -0.33402     1 2pz   0.27208     1 3d0   0.66444
                                    1 3d2+  0.25376     2 1s   -0.38176     2 1s    1.30176     2 2px  -0.33458     2 2pz   0.27142
                                    2 3d0  -0.65971     3 1s    0.51007     4 1s    0.31043     5 1s   -0.30911     6 1s   -0.50405
   34.1     0.00000     2.53904     1 2py   0.33499     1 3d2- -0.70202     1 3d1- -0.29423     2 2py   0.33909     2 3d2-  0.70799
                                    2 3d1-  0.29572     3 1s   -0.34232     4 1s    0.63413     5 1s   -0.63797     6 1s    0.34560
   35.1     0.00000     2.64428     1 2py  -0.53825     1 3d2-  0.74895     2 2py   0.53560     2 3d2-  0.74340     3 1s    0.34638
                                    4 1s   -0.67923     5 1s   -0.67271     6 1s    0.34435
   36.1     0.00000     2.75650     1 1s   -0.31610     1 1s    1.06980     1 2px   0.70638     1 2pz  -0.27305     1 3d1+ -0.49925
                                    1 3d2+  0.66789     2 1s    0.31592     2 1s   -1.07002     2 2px   0.70619     2 2pz  -0.27310
                                    2 3d1+  0.49922     2 3d2+ -0.66779


 HOMO      8.1    -0.308716 =      -8.4006eV
 LUMO      9.1     0.071798 =       1.9537eV
 LUMO-HOMO         0.380513 =      10.3543eV


 **********************************************************************************************************************************
 DATASETS  * FILE   NREC   LENGTH (MB)   RECORD NAMES
              1      19       31.09       500      610      700      900      950      970     1000      129      960     1100   
                                          VAR    BASINP    GEOM    SYMINP    ZMAT    AOBASIS   BASIS     P2S    ABASIS      S 
                                         1400     1410     1200     1210     1080     1600     1650     1300     1700   
                                           T        V       H0       H01     AOSYM     SMH    MOLCAS    ERIS     OPER   

              2       4        2.86       700     1000      520     2100   
                                         GEOM     BASIS   MCVARS     RHF  

 PROGRAMS   *        TOTAL    HF-SCF       INT
 CPU TIMES  *         0.36      0.09      0.17
 REAL TIME  *         0.54 SEC
 DISK USED  *        35.97 MB
 **********************************************************************************************************************************


 PROGRAM * MULTI (Direct Multiconfiguration SCF)       Authors: P.J. Knowles, H.-J. Werner (1984)


 Number of closed-shell orbitals:   7 (   7 )
 Number of active  orbitals:        2 (   2 )
 Number of external orbitals:      27 (  27 )

 State symmetry 1

 Number of electrons:     2    Spin symmetry=Singlet   Space symmetry=1
 Number of states:        3
 Number of CSFs:          3   (4 determinants, 4 intermediate states)

 Molecular orbitals read from record     2100.2  Type=RHF/CANONICAL (state 1.1)

 Wavefunction dump at record             2140.2

 Convergence thresholds  0.10E-01 (gradient)  0.10E-05 (energy)  0.10E-02 (step length)

 Weight factors for state symmetry  1:    0.33333   0.33333   0.33333

 Number of orbital rotations:      257   (    14 Core/Active    189 Core/Virtual   0 Active/Active     54 Active/Virtual)
 Total number of variables:        269

 Micro-Iterations solved by the two-step solver

 ITER. MIC  NCI  NEG     ENERGY(VAR)     ENERGY(PROJ)   ENERGY CHANGE     GRAD(0)  GRAD(ORB)   GRAD(CI)     STEP       TIME

   1   16    7    0     -77.70021519     -77.70720162   -0.00698643    0.08569142 0.00012079 0.00000000  0.17D+00      0.57
   2   11    6    0     -77.70712202     -77.70782878   -0.00070676    0.01843684 0.00001548 0.00000000  0.12D+00      0.77
   3   12    6    0     -77.70789922     -77.70795453   -0.00005530    0.00780700 0.00000343 0.00000000  0.20D-01      0.89
   4   11    6    0     -77.70795524     -77.70795527   -0.00000003    0.00017079 0.00000000 0.00000000  0.48D-03      1.00
   5    5    4    0     -77.70795527     -77.70795527   -0.00000000    0.00000010 0.00000000 0.00000000  0.32D-06      1.06

 ** WVFN ****  CONVERGENCE REACHED, FINAL GRADIENT:  0.15D-12



 Results for state 1.1
 =====================

 !MCSCF STATE  1.1 Energy             -77.893609347012
 Nuclear energy                        29.26091044
 Kinetic energy                        77.62095164
 One electron energy                 -161.62790679
 Two electron energy                   54.47338700
 Virial ratio                           2.00351268

 !MCSCF STATE  1.1 Dipole moment       -0.07470847     0.01548577     0.01623128
 Dipole moment /Debye                  -0.18987756     0.03935832     0.04125310

 Results for state 2.1
 =====================

 !MCSCF STATE  2.1 Energy             -77.663173238965
 Nuclear energy                        29.26091044
 Kinetic energy                        77.78441136
 One electron energy                 -161.53237724
 Two electron energy                   54.60829355
 Virial ratio                           1.99844136

 !MCSCF STATE  2.1 Dipole moment        0.13417966    -0.01279761     0.04064526
 Dipole moment /Debye                   0.34102833    -0.03252615     0.10330318

 Results for state 3.1
 =====================

 !MCSCF STATE  3.1 Energy             -77.567083236393
 Nuclear energy                        29.26091044
 Kinetic energy                        77.95749855
 One electron energy                 -161.45980460
 Two electron energy                   54.63181092
 Virial ratio                           1.99499195

 !MCSCF STATE  3.1 Dipole moment        0.02404339     0.00912581     0.26807235
 Dipole moment /Debye                   0.06110821     0.02319399     0.68132732

 State-averaged charge density matrix saved on record  2140.2 (density set 1)

 !MCSCF expec         <1.1|DMX|1.1>    -0.074708473767 au =    -0.189877562757 Debye
 !MCSCF trans         <2.1|DMX|1.1>    -1.133659019744 au =    -2.881285091400 Debye
 !MCSCF expec         <2.1|DMX|2.1>     0.134179656233 au =     0.341028330689 Debye
 !MCSCF trans         <3.1|DMX|1.1>    -0.095937634065 au =    -0.243833171987 Debye
 !MCSCF trans         <3.1|DMX|2.1>    -2.102922840121 au =    -5.344746631996 Debye
 !MCSCF expec         <3.1|DMX|3.1>     0.024043393034 au =     0.061108206867 Debye

 !MCSCF expec         <1.1|DMY|1.1>     0.015485768378 au =     0.039358319195 Debye
 !MCSCF trans         <2.1|DMY|1.1>     0.178518229013 au =     0.453718360496 Debye
 !MCSCF expec         <2.1|DMY|2.1>    -0.012797611545 au =    -0.032526153549 Debye
 !MCSCF trans         <3.1|DMY|1.1>     0.012089382325 au =     0.030726132330 Debye
 !MCSCF trans         <3.1|DMY|2.1>     0.330891700243 au =     0.840987727503 Debye
 !MCSCF expec         <3.1|DMY|3.1>     0.009125814046 au =     0.023193986464 Debye

 !MCSCF expec         <1.1|DMZ|1.1>     0.016231283157 au =     0.041253104646 Debye
 !MCSCF trans         <2.1|DMZ|1.1>     0.725092815694 au =     1.842881398512 Debye
 !MCSCF expec         <2.1|DMZ|2.1>     0.040645259706 au =     0.103303179165 Debye
 !MCSCF trans         <3.1|DMZ|1.1>    -0.042078391397 au =    -0.106945598006 Debye
 !MCSCF trans         <3.1|DMZ|2.1>     1.336218658960 au =     3.396106619240 Debye
 !MCSCF expec         <3.1|DMZ|3.1>     0.268072348868 au =     0.681327320437 Debye


 NATURAL ORBITALS (state averaged)
 =================================

  Orbital  Occupation    Energy     Coefficients
    1.1     2.00000   -11.26969     1 1s   -0.99621
    2.1     2.00000   -11.26236     2 1s    0.99624
    3.1     2.00000    -0.94551     1 1s    0.28518     1 1s    0.26263     2 1s    0.28493     2 1s    0.26980
    4.1     2.00000    -0.83647     1 1s   -0.26921     1 1s   -0.27330     2 1s    0.26606     2 1s    0.27631
    5.1     2.00000    -0.62593     1 2py   0.32531     2 2py   0.30528
    6.1     2.00000    -0.57150     1 2py  -0.29393     2 2py   0.31229
    7.1     2.00000    -0.44836     1 2px   0.28966     2 2px  -0.38311
    8.1     1.00000    -0.19102     1 2px   0.27883     1 2pz   0.27683     1 2pz   0.31625     2 2pz   0.25910     2 2pz   0.28704
    9.1     1.00000    -0.05462     1 2pz  -0.42712     1 2pz  -0.50913     2 1s   -0.28241     2 2pz   0.33273     2 2pz   0.41014
   10.1    -0.00000     0.25660     1 1s   -1.24093     1 2px   0.58701     2 1s   -1.60192     2 2px  -0.45244     2 2pz  -0.31544
                                    3 1s    1.05919     4 1s    0.85888     5 1s    1.02351     6 1s    1.15422
   11.1    -0.00000     0.26478     1 1s    1.74243     1 2px   0.43655     1 2pz  -0.38899     2 1s   -1.34210     2 2px   0.57415
                                    2 2pz  -0.49202     3 1s   -0.61035     4 1s   -0.83161     5 1s    0.57749     6 1s    0.34761
   12.1    -0.00000     0.32072     1 1s   -0.49764     1 2py  -0.94029     2 1s    0.57716     2 2px   0.27113     2 2py  -0.80046
                                    3 1s    1.58300     4 1s   -0.56347     5 1s    0.36785     6 1s   -1.47013
   13.1    -0.00000     0.34303     1 1s    0.63452     1 2px  -0.26488     1 2px  -1.06231     1 2py  -0.50828     2 1s   -0.60563
                                    2 2px  -0.26577     2 2px  -1.00028     2 2py  -0.25160     4 1s   -1.69707     5 1s    1.40408
   14.1    -0.00000     0.35097     1 1s   -0.33985     1 2px   0.27464     1 2py   1.24760     2 1s   -0.40768     2 2px  -0.42446
                                    2 2py  -1.40456     3 1s   -1.08518     4 1s    1.46860     5 1s    1.80505     6 1s   -1.22567
   15.1    -0.00000     0.68973     1 2py  -0.36955     1 2px   0.64202     1 2py   0.79710     2 2py  -0.34808     2 2px   0.62794
                                    2 2py   0.75245     4 1s    0.42338     4 1s    0.27656     5 1s   -0.41533     5 1s   -0.27103
   16.1    -0.00000     0.76921     1 1s   -0.43354     1 2px  -0.75873     1 2py   0.31379     1 2px   1.37044     1 2py  -0.51903
                                    2 1s    0.26068     2 1s   -0.68820     3 1s    0.48040     4 1s    0.25382
   17.1    -0.00000     0.77313     1 1s   -0.31807     1 1s    0.76544     2 1s    0.65372     2 2px  -0.73817     2 2py   0.28831
                                    2 2px   1.31619     2 2py  -0.45887     5 1s   -0.27343     5 1s   -0.25642     6 1s   -0.47423
   18.1    -0.00000     0.80319     1 2pz   0.84399     1 2px   0.25073     1 2pz  -0.83772     2 2pz   0.70528     2 2px   0.46123
                                    2 2pz  -0.58542
   19.1    -0.00000     0.84945     1 1s   -0.27333     1 2pz   0.63453     1 2px  -0.30287     1 2pz  -0.79964     2 2pz  -0.84081
                                    2 2pz   0.98725
   20.1    -0.00000     0.94449     1 1s    0.63160     1 2py   0.65176     1 2px  -0.53021     1 2py  -2.00082     2 1s    0.65147
                                    2 2py  -0.65416     2 2px   0.51782     2 2py   2.01626     3 1s    0.65650     4 1s   -0.32849
                                    4 1s   -1.01353     5 1s   -0.33890     5 1s   -1.00893     6 1s    0.64060
   21.1    -0.00000     0.98731     1 1s   -0.68780     1 1s    0.89359     1 2px  -0.49743     1 2px   0.28030     1 2py   0.57959
                                    1 2pz  -0.38178     2 1s   -0.68886     2 1s    0.85689     2 2px   0.51601     2 2px  -0.28907
                                    2 2py  -0.58061     2 2pz   0.35822     3 1s   -0.42280     3 1s   -0.30392     4 1s   -0.26363
                                    6 1s   -0.39971     6 1s   -0.30795
   22.1    -0.00000     1.17141     1 1s    0.58301     1 2px  -0.36957     1 2py   0.37421     1 2px   0.95044     1 2py  -0.54681
                                    2 1s   -0.62908     2 2px  -0.38644     2 2py   0.34900     2 2px   0.95315     2 2py  -0.53414
                                    3 1s   -0.72700     3 1s    1.01792     5 1s    0.26691     6 1s    0.69406     6 1s   -0.96576
   23.1    -0.00000     1.19026     1 1s   -0.97064     1 1s    1.70216     1 2py  -0.32762     1 2px  -0.27301     2 1s   -0.89820
                                    2 1s    1.50187     2 2py   0.27349     2 2px   0.40239     3 1s    0.63670     3 1s   -1.13772
                                    4 1s   -0.33998     5 1s   -0.45448     6 1s    0.65580     6 1s   -1.07551
   24.1    -0.00000     1.21880     1 1s   -0.93214     1 1s    2.25988     1 2py  -0.50819     1 2px   0.82620     1 2py   0.67630
                                    1 2pz  -0.45842     2 1s    1.10583     2 1s   -2.54045     2 2py  -0.51833     2 2px   0.77905
                                    2 2py   0.69700     2 2pz  -0.46367     3 1s   -0.94503     4 1s   -0.48077     4 1s    0.51988
                                    5 1s    0.42778     5 1s   -0.39610     6 1s    1.07653
   25.1    -0.00000     1.26395     1 1s   -0.83950     1 1s    1.42816     1 2px   0.25161     1 2py   0.39220     1 2px  -0.31015
                                    1 2py  -0.28642     2 1s   -0.57814     2 1s    0.86060     2 2py  -0.40506     2 2px   0.31018
                                    2 2py   0.29472     4 1s    0.72999     4 1s   -1.21486     5 1s    0.68883     5 1s   -1.03634
   26.1    -0.00000     1.27891     1 1s   -1.21474     1 1s    2.62434     1 2px   0.26829     1 2py   0.30051     1 2py  -0.45405
                                    1 2pz  -0.30744     2 1s    1.28076     2 1s   -2.72275     2 2px   0.29201     2 2py   0.37735
                                    2 2py  -0.51217     2 2pz  -0.29124     3 1s   -0.30218     4 1s    0.42831     4 1s   -1.31675
                                    5 1s   -0.53752     5 1s    1.46711
   27.1    -0.00000     1.80399     1 1s    0.30198     1 3d0  -0.25279     1 3d1+  0.54547     1 3d2+  0.31135     2 1s   -0.31572
                                    2 3d0   0.25810     2 3d1+ -0.52488     2 3d2+ -0.29747
   28.1    -0.00000     1.89232     1 1s    0.31673     1 3d0   0.35655     1 3d1+  0.42752     1 3d2+ -0.31481     2 1s    0.31202
                                    2 3d0   0.34400     2 3d1+  0.42826     2 3d2+ -0.31992
   29.1    -0.00000     1.89992     1 3d1-  0.62437     2 3d1- -0.62142
   30.1    -0.00000     2.11332     1 1s    0.26940     1 2py  -0.62576     1 3d2+ -0.27001     1 3d1-  0.62438     2 1s    0.25137
                                    2 2py   0.62913     2 3d2+ -0.27129     2 3d1-  0.62873     4 1s   -0.38275     5 1s   -0.38422
   31.1    -0.00000     2.23007     1 1s   -0.29266     1 3d1+  0.49641     1 3d2+  0.45568     2 1s   -0.25119     2 3d1+  0.51483
                                    2 3d2+  0.44400
   32.1    -0.00000     2.38242     1 1s   -0.40186     1 2py  -0.30158     1 3d0   0.61886     1 3d2+  0.35443     1 3d1-  0.29832
                                    2 2py   0.28786     2 3d0   0.54027     2 3d2+  0.32981     2 3d1-  0.27073     3 1s    0.54450
                                    6 1s    0.47619
   33.1    -0.00000     2.42396     1 1s    0.38042     1 1s   -1.27804     1 2px  -0.34581     1 2pz   0.26757     1 3d0   0.62403
                                    2 1s   -0.38493     2 1s    1.33080     2 2px  -0.32307     2 2pz   0.27678     2 3d0  -0.69639
                                    2 3d2+ -0.28004     3 1s    0.47476     4 1s    0.28707     5 1s   -0.32712     6 1s   -0.54046
   34.1    -0.00000     2.53378     1 2py   0.36007     1 3d2- -0.74633     1 3d1- -0.29899     2 2py   0.30824     2 3d2-  0.65979
                                    2 3d1-  0.28635     3 1s   -0.35806     4 1s    0.68219     5 1s   -0.59368     6 1s    0.32562
   35.1    -0.00000     2.64084     1 2py  -0.51495     1 3d2-  0.69967     2 2py   0.55576     2 3d2-  0.78924     3 1s    0.32510
                                    4 1s   -0.63981     5 1s   -0.71294     6 1s    0.36482
   36.1    -0.00000     2.75140     1 1s   -0.31703     1 1s    1.06919     1 2px   0.70955     1 2pz  -0.27673     1 3d1+ -0.50585
                                    1 3d2+  0.66264     2 1s    0.31949     2 1s   -1.07576     2 2px   0.70684     2 2pz  -0.27130
                                    2 3d1+  0.49365     2 3d2+ -0.67296


 Natural orbital dump (state averaged) at molpro section  2140.2    (Orbital set 2)



 **********************************************************************************************************************************
 DATASETS  * FILE   NREC   LENGTH (MB)   RECORD NAMES
              1      20       31.82       500      610      700      900      950      970     1000      129      960     1100   
                                          VAR    BASINP    GEOM    SYMINP    ZMAT    AOBASIS   BASIS     P2S    ABASIS      S 
                                         1400     1410     1200     1210     1080     1600     1650     1300     1700     1380   
                                           T        V       H0       H01     AOSYM     SMH    MOLCAS    ERIS     OPER     JKOP   

              2       5        5.42       700     1000      520     2100     2140   
                                         GEOM     BASIS   MCVARS     RHF     MCSCF   

 PROGRAMS   *        TOTAL     MULTI    HF-SCF       INT
 CPU TIMES  *         1.46      1.09      0.09      0.17
 REAL TIME  *         1.72 SEC
 DISK USED  *        39.01 MB
 **********************************************************************************************************************************
 Molecular orbitals read from record     2140.2  Type=MCSCF/NATURAL (state averaged)
 Occupation numbers read from record     2140.2  Type=MCSCF/NATURAL (state averaged)
 Orbital energies read from record       2140.2  Type=MCSCF/NATURAL (state averaged)
 Redundancy group numbers read from rec  2140.2  Type=MCSCF/NATURAL (state averaged)

 MULTI/6-31G* energy=    -77.567083236393

           MULTI          HF-SCF
    -77.56708324    -77.87486141
 **********************************************************************************************************************************
 Molpro calculation terminated
