
 Primary working directories    : /scratch.local/johan406.molpro_temp/molpro.epJPVDT6P4
 Secondary working directories  : /scratch.local/johan406.molpro_temp/molpro.epJPVDT6P4
 Wavefunction directory         : /home/goodpast/johan406/wfu/
 Main file repository           : /scratch.local/johan406.molpro_temp/molpro.epJPVDT6P4/

 id        : roweumn

 Nodes     nprocs
 acn06        1

 Using customized tuning parameters: mindgm=1; mindgv=20; mindgc=4; mindgr=1; noblas=0; minvec=7
 default implementation of scratch files=df  


 Variables initialized (934), CPU time= 0.00 sec
                                                                                 !leave this line blank
 
 gprint, orbitals=30
 memory, 125., m
 symmetry, nosym
 nelect=16
 basis=6-31g*
 
 geometry={
 C -0.824 0.077 0.309
 C 0.833 -0.127 -0.369
 H -1.052 1.109 0.026
 H -1.473 -0.687 0.228
 H 1.482 0.638 -0.288
 H 1.061 -1.159 -0.086
 }
 
 hf
 {multi,
 closed 7
 occ 9
 wf,spin=0;STATE,3
 }
 
 Commands  initialized (763), CPU time= 0.01 sec, 617 directives.
 Default parameters read. Elapsed time= 0.06 sec

 Checking input...
 Passed
1


                                         ***  PROGRAM SYSTEM MOLPRO  ***
                                       Copyright, TTI GmbH Stuttgart, 2015
                                    Version 2019.2 linked Oct 25 2019 22:50:27


 **********************************************************************************************************************************
 LABEL *                                                                                 
  64 bit serial version                                                                  DATE: 15-Mar-23          TIME: 16:40:04  
 **********************************************************************************************************************************

 SHA1:             8dbd9ae1082e4ce945b0f27595c9eb2d4aa09004
 **********************************************************************************************************************************


 Variable memory set to  125000000 words,  buffer space 

 SETTING NELECT         =        16.00000000                                  
 SETTING BASIS          =    6-31G*
 ZSYMEL=NOSYM


Geometry recognized as XYZ



 Recomputing integrals since basis changed


 Using spherical harmonics

 Library entry C      S 6-31G                selected for orbital group  1
 Library entry C      P 6-31G                selected for orbital group  1
 Library entry C      D 6-31G*               selected for orbital group  1
 Library entry H      S 6-31G                selected for orbital group  2


 PROGRAM * SEWARD (Integral evaluation for generally contracted gaussian basis sets)     Author: Roland Lindh, 1990

 Geometry written to block  1 of record 700


 Point group  C1  



 ATOMIC COORDINATES

 NR  ATOM    CHARGE       X              Y              Z

   1  C       6.00   -1.557134327    0.145508912    0.583925372
   2  C       6.00    1.574141862   -0.239995218   -0.697308940
   3  H       1.00   -1.987991883    2.095706272    0.049132879
   4  H       1.00   -2.783566581   -1.298241848    0.430857556
   5  H       1.00    2.800574117    1.205645267   -0.544241124
   6  H       1.00    2.004999418   -2.190192578   -0.162516447

 Bond lengths in Bohr (Angstrom)

 1-2  3.405152767  1-3  2.067585788  1-4  1.900521530  2-5  1.901957477  2-6  2.067585788
     ( 1.801929244)     ( 1.094119281)     ( 1.005712683)     ( 1.006472553)     ( 1.094119281)

 Bond angles

  1-2-5  118.46562178   1-2-6  101.60058580   2-1-3  101.60058580   2-1-4  118.49643395

  3-1-4  124.14043442   5-2-6  124.17598551

 NUCLEAR CHARGE:                   16
 NUMBER OF PRIMITIVE AOS:          72
 NUMBER OF SYMMETRY AOS:           70
 NUMBER OF CONTRACTIONS:           36   (   36A   )
 NUMBER OF CORE ORBITALS:           2   (    2A   )
 NUMBER OF VALENCE ORBITALS:       12   (   12A   )


 NUCLEAR REPULSION ENERGY   29.36735726

 Eigenvalues of metric

         1 0.195E-01 0.285E-01 0.464E-01 0.533E-01 0.783E-01 0.226E+00 0.277E+00 0.281E+00


 Contracted 2-electron integrals neglected if value below      1.0D-11
 AO integral compression algorithm  1   Integral accuracy      1.0D-11

     1.311 MB (compressed) written to integral file ( 66.3%)


 NUMBER OF SORTED TWO-ELECTRON INTEGRALS:     222111.     BUFFER LENGTH:  32768
 NUMBER OF SEGMENTS:   1  SEGMENT LENGTH:     222111      RECORD LENGTH: 524288

 Memory used in sort:       0.78 MW

 SORT1 READ      284735. AND WROTE      212387. INTEGRALS IN      1 RECORDS. CPU TIME:     0.00 SEC, REAL TIME:     0.00 SEC
 SORT2 READ      212387. AND WROTE      222111. INTEGRALS IN      5 RECORDS. CPU TIME:     0.02 SEC, REAL TIME:     0.02 SEC

 FILE SIZES:   FILE 1:    31.4 MBYTE,  FILE 4:     4.2 MBYTE,   TOTAL:     35.6 MBYTE

 OPERATOR DM      FOR CENTER  0  COORDINATES:    0.000000    0.000000    0.000000


 **********************************************************************************************************************************
 DATASETS  * FILE   NREC   LENGTH (MB)   RECORD NAMES
              1      19       31.09       500      610      700      900      950      970     1000      129      960     1100   
                                          VAR    BASINP    GEOM    SYMINP    ZMAT    AOBASIS   BASIS     P2S    ABASIS      S 
                                         1400     1410     1200     1210     1080     1600     1650     1300     1700   
                                           T        V       H0       H01     AOSYM     SMH    MOLCAS    ERIS     OPER   

 PROGRAMS   *        TOTAL       INT
 CPU TIMES  *         0.27      0.17
 REAL TIME  *         0.39 SEC
 DISK USED  *        35.97 MB
 **********************************************************************************************************************************


 PROGRAM * RHF-SCF (CLOSED SHELL)       Authors: W. Meyer, H.-J. Werner


 NUMBER OF ELECTRONS:       8+    8-    SPACE SYMMETRY=1    SPIN SYMMETRY: Singlet 
 CONVERGENCE THRESHOLDS:    1.00E-05 (Density)    1.00E-07 (Energy)
 MAX. NUMBER OF ITERATIONS:       60
 INTERPOLATION TYPE:            DIIS
 INTERPOLATION STEPS:              2 (START)      1 (STEP)
 LEVEL SHIFTS:                  0.00 (CLOSED)  0.00 (OPEN) 



 Orbital guess generated from atomic densities. Full valence occupancy:    8

 Molecular orbital dump at record        2100.2

 Initial occupancy:   8

 ITERATION    DDIFF          GRAD             ENERGY        2-EL.EN.            DIPOLE MOMENTS         DIIS   ORB.
    1      0.000D+00      0.000D+00       -77.83830750    109.527325    0.00192    0.00014   -0.00108    0    start
    2      0.000D+00      0.675D-02       -77.85797092    109.106398   -0.00110    0.00010    0.00086    1    diag
    3      0.738D-02      0.216D-02       -77.86131231    109.327324    0.00223   -0.00011   -0.00152    2    diag
    4      0.355D-02      0.870D-03       -77.86217979    109.247801   -0.00188    0.00013    0.00133    3    diag
    5      0.162D-02      0.568D-03       -77.86297681    109.267795    0.00612   -0.00032   -0.00435    4    diag
    6      0.253D-02      0.217D-03       -77.86306134    109.268943   -0.00755    0.00045    0.00535    5    diag
    7      0.789D-03      0.133D-03       -77.86307337    109.268129    0.00021    0.00002   -0.00016    6    diag
    8      0.283D-03      0.176D-04       -77.86307374    109.268581   -0.00003    0.00003    0.00000    7    diag
    9      0.507D-04      0.390D-05       -77.86307377    109.268581   -0.00004    0.00004    0.00001    8    diag
   10      0.117D-04      0.894D-06       -77.86307377    109.268586   -0.00004    0.00004    0.00001    9    orth
   11      0.231D-05      0.163D-06       -77.86307377    109.268584   -0.00004    0.00004    0.00001    0    orth

 Final occupancy:   8

 !RHF STATE  1.1 Energy               -77.863073766655
 Nuclear energy                        29.36735726
 One-electron energy                 -161.86472312
 Two-electron energy                   54.63429209
 Virial quotient                       -1.00344180
 !RHF STATE  1.1 Dipole moment         -0.00003659     0.00003528     0.00000682
 Dipole moment /Debye                  -0.00009301     0.00008966     0.00001733

 ELECTRON ORBITALS
 =================

  Orbital  Occupation    Energy     Coefficients
    1.1     2.00000   -11.27200     1 1s   -0.59373     2 1s   -0.80002
    2.1     2.00000   -11.27169     1 1s   -0.80011     2 1s    0.59386
    3.1     2.00000    -0.94963     1 1s    0.28251     1 1s    0.26547     2 1s    0.28211     2 1s    0.26521
    4.1     2.00000    -0.83830     1 1s   -0.26777     2 1s    0.26818
    5.1     2.00000    -0.62937     1 2py   0.31584     2 2py   0.31543
    6.1     2.00000    -0.58189     1 2py  -0.29024     2 2py   0.29070
    7.1     2.00000    -0.44736     1 2px   0.34440     2 2px  -0.34442
    8.1     2.00000    -0.30781     1 2pz   0.30881     1 2pz   0.32912     2 2pz   0.30881     2 2pz   0.32912
    9.1     0.00000     0.07107     1 2pz  -0.35557     1 2pz  -0.49572     2 2pz   0.35556     2 2pz   0.49569
   10.1     0.00000     0.25550     1 1s   -1.40729     1 2px   0.47474     1 2pz   0.26817     2 1s   -1.41301     2 2px  -0.47371
                                    2 2pz  -0.26955     3 1s    1.11306     4 1s    0.90700     5 1s    0.91099     6 1s    1.11436
   11.1     0.00000     0.27394     1 1s    1.54280     1 2px   0.51294     1 2py  -0.26066     1 2pz  -0.42220     2 1s   -1.53640
                                    2 2px   0.51506     2 2py  -0.26201     2 2pz  -0.42107     3 1s   -0.36020     4 1s   -0.81374
                                    5 1s    0.80999     6 1s    0.35523
   12.1     0.00000     0.32581     1 1s   -0.81261     1 2px   0.33245     1 2py  -0.77966     2 1s    0.81220     2 2px   0.33228
                                    2 2py  -0.78007     3 1s    1.57619     6 1s   -1.57636
   13.1     0.00000     0.34623     1 1s    0.39665     1 2px  -0.25093     1 2px  -1.03231     1 2py  -0.53268     2 1s   -0.40287
                                    2 2px  -0.25245     2 2px  -1.03987     2 2py  -0.56132     3 1s    0.26230     4 1s   -1.60258
                                    5 1s    1.63624     6 1s   -0.28792
   14.1     0.00000     0.35131     1 1s   -0.48414     1 2px   0.42882     1 2py   1.33696     2 1s   -0.47367     2 2px  -0.40589
                                    2 2py  -1.32482     3 1s   -1.11578     4 1s    1.75484     5 1s    1.71783     6 1s   -1.10965
   15.1     0.00000     0.69241     1 2px  -0.32640     1 2py  -0.29607     1 2px   0.85489     1 2py   0.73925     2 2px  -0.32616
                                    2 2py  -0.29574     2 2px   0.85281     2 2py   0.73701     4 1s    0.43998     4 1s    0.36460
                                    5 1s   -0.43961     5 1s   -0.36165
   16.1     0.00000     0.75936     1 1s    0.34699     1 1s   -0.89731     1 2px  -0.46354     1 2px   0.80966     1 2py  -0.33517
                                    2 1s    0.34687     2 1s   -0.89599     2 2px   0.46493     2 2px  -0.81069     2 2py   0.33658
                                    3 1s    0.32850     6 1s    0.32921
   17.1     0.00000     0.78755     1 2px  -0.52174     1 2py   0.31293     1 2px   0.82076     1 2py  -0.63788     2 2px  -0.52079
                                    2 2py   0.31204     2 2px   0.81910     2 2py  -0.63666     3 1s    0.38615     3 1s    0.26111
                                    6 1s   -0.38549     6 1s   -0.26090
   18.1     0.00000     0.80780     1 2pz   0.77494     1 2px   0.34846     1 2pz  -0.70438     2 2pz   0.77517     2 2px   0.34810
                                    2 2pz  -0.70474
   19.1     0.00000     0.85356     1 1s   -0.26426     1 2pz   0.75378     1 2pz  -0.88302     2 1s   -0.26412     2 2pz  -0.75350
                                    2 2pz   0.88276
   20.1     0.00000     0.94095     1 1s   -0.25544     1 1s    0.81254     1 2py   0.62645     1 2px  -0.64567     1 2py  -1.95182
                                    2 1s   -0.25531     2 1s    0.81027     2 2py  -0.62731     2 2px   0.64466     2 2py   1.95325
                                    3 1s    0.59599     4 1s   -0.36115     4 1s   -1.08273     5 1s   -0.36162     5 1s   -1.08102
                                    6 1s    0.59706
   21.1     0.00000     0.99828     1 1s   -0.61412     1 1s    0.65677     1 2px  -0.56601     1 2px   0.44538     1 2py   0.65125
                                    1 2pz  -0.33458     2 1s   -0.61398     2 1s    0.65656     2 2px   0.56671     2 2px  -0.44717
                                    2 2py  -0.65210     2 2pz   0.33484     3 1s   -0.39561     3 1s   -0.29698     4 1s    0.30085
                                    5 1s    0.30292     6 1s   -0.39585     6 1s   -0.29683
   22.1     0.00000     1.17402     1 1s   -0.32665     1 2px   0.35667     1 2py  -0.35551     1 2px  -0.91399     1 2py   0.49994
                                    2 1s    0.31552     2 2px   0.35727     2 2py  -0.35607     2 2px  -0.91599     2 2py   0.50031
                                    3 1s    0.72932     3 1s   -1.03833     6 1s   -0.73153     6 1s    1.04371
   23.1     0.00000     1.19273     1 1s   -1.00699     1 1s    1.73890     1 2py  -0.26826     1 2px  -0.34359     2 1s   -1.00503
                                    2 1s    1.73446     2 2py   0.26353     2 2px   0.34266     3 1s    0.61919     3 1s   -1.10684
                                    4 1s   -0.51061     5 1s   -0.51330     6 1s    0.61499     6 1s   -1.09774
   24.1     0.00000     1.22648     1 1s   -1.09266     1 1s    2.59870     1 2px  -0.25219     1 2py  -0.48865     1 2px   0.92231
                                    1 2py   0.70838     1 2pz  -0.53123     2 1s    1.09327     2 1s   -2.60032     2 2px  -0.25216
                                    2 2py  -0.49159     2 2px   0.92181     2 2py   0.70938     2 2pz  -0.53150     3 1s   -1.01400
                                    4 1s   -0.42271     4 1s    0.42050     5 1s    0.42640     5 1s   -0.42364     6 1s    1.01885
   25.1     0.00000     1.28421     1 1s   -0.60437     1 1s    0.91719     1 2py   0.41818     1 2px  -0.26981     1 2py  -0.29572
                                    2 1s   -0.69805     2 1s    1.12082     2 2py  -0.44412     2 2px   0.26812     2 2py   0.32995
                                    3 1s   -0.26102     4 1s    0.69800     4 1s   -1.04332     5 1s    0.73297     5 1s   -1.14327
                                    6 1s   -0.27128
   26.1     0.00000     1.29427     1 1s   -1.22272     1 1s    2.61595     1 2px   0.28418     1 2py   0.39334     1 2py  -0.51453
                                    1 2pz  -0.29270     2 1s    1.17278     2 1s   -2.53617     2 2px   0.26744     2 2py   0.36192
                                    2 2py  -0.49095     2 2pz  -0.28691     4 1s    0.53675     4 1s   -1.43725     5 1s   -0.48365
                                    5 1s    1.35400
   27.1     0.00000     1.80301     1 3d0  -0.28506     1 3d1+  0.52362     1 3d2+  0.26732     2 3d0   0.28525     2 3d1+ -0.52352
                                    2 3d2+ -0.26715
   28.1     0.00000     1.89503     1 1s    0.31575     1 3d0   0.33857     1 3d1+  0.43152     1 3d2+ -0.32160     2 1s    0.31561
                                    2 3d0   0.33883     2 3d1+  0.43176     2 3d2+ -0.32085
   29.1     0.00000     1.90664     1 3d1-  0.60837     2 3d1- -0.60837
   30.1     0.00000     2.10497     1 1s    0.33978     1 2px  -0.25871     1 2py  -0.57055     1 3d2+ -0.31725     1 3d1-  0.57745
                                    2 1s    0.33925     2 2px   0.25806     2 2py   0.57064     2 3d2+ -0.31730     2 3d1-  0.57760
                                    4 1s   -0.39810     5 1s   -0.39734
   31.1     0.00000     2.25578     1 3d0  -0.28406     1 3d2- -0.25752     1 3d1+  0.52552     1 3d2+  0.34246     2 3d0  -0.28449
                                    2 3d2- -0.25735     2 3d1+  0.52554     2 3d2+  0.34235
   32.1     0.00000     2.39261     1 1s   -0.27165     1 2py  -0.46515     1 3d0   0.47849     1 3d2+  0.42958     1 3d1-  0.40012
                                    2 1s   -0.27108     2 2py   0.46498     2 3d0   0.47821     2 3d2+  0.42941     2 3d1-  0.39986
                                    3 1s    0.59444     6 1s    0.59401
   33.1     0.00000     2.44350     1 1s   -0.39132     1 1s    1.34627     1 2px   0.41642     1 2pz  -0.29865     1 3d0  -0.64011
                                    1 3d2+ -0.25002     2 1s    0.39151     2 1s   -1.34659     2 2px   0.41614     2 2pz  -0.29874
                                    2 3d0   0.64044     2 3d2+  0.25052     3 1s   -0.53621     4 1s   -0.27633     5 1s    0.27694
                                    6 1s    0.53630
   34.1     0.00000     2.53909     1 2py   0.35464     1 3d2- -0.69958     1 3d1- -0.28177     2 2py   0.36056     2 3d2-  0.70735
                                    2 3d1-  0.28367     3 1s   -0.29625     4 1s    0.67188     5 1s   -0.67844     6 1s    0.29933
   35.1     0.00000     2.64181     1 1s    0.26617     1 2py  -0.50344     1 3d0  -0.28217     1 3d2-  0.73849     2 1s    0.26312
                                    2 2py   0.49993     2 3d0  -0.27887     2 3d2-  0.73066     3 1s    0.26042     4 1s   -0.72656
                                    5 1s   -0.71778     6 1s    0.25757
   36.1     0.00000     2.75197     1 1s    0.31714     1 1s   -1.04705     1 2px  -0.68924     1 2pz   0.26846     1 3d1+  0.49165
                                    1 3d2+ -0.67425     2 1s   -0.31709     2 1s    1.04735     2 2px  -0.68908     2 2pz   0.26846
                                    2 3d1+ -0.49158     2 3d2+  0.67447


 HOMO      8.1    -0.307806 =      -8.3758eV
 LUMO      9.1     0.071066 =       1.9338eV
 LUMO-HOMO         0.378873 =      10.3096eV


 **********************************************************************************************************************************
 DATASETS  * FILE   NREC   LENGTH (MB)   RECORD NAMES
              1      19       31.09       500      610      700      900      950      970     1000      129      960     1100   
                                          VAR    BASINP    GEOM    SYMINP    ZMAT    AOBASIS   BASIS     P2S    ABASIS      S 
                                         1400     1410     1200     1210     1080     1600     1650     1300     1700   
                                           T        V       H0       H01     AOSYM     SMH    MOLCAS    ERIS     OPER   

              2       4        2.86       700     1000      520     2100   
                                         GEOM     BASIS   MCVARS     RHF  

 PROGRAMS   *        TOTAL    HF-SCF       INT
 CPU TIMES  *         0.36      0.09      0.17
 REAL TIME  *         0.55 SEC
 DISK USED  *        35.97 MB
 **********************************************************************************************************************************


 PROGRAM * MULTI (Direct Multiconfiguration SCF)       Authors: P.J. Knowles, H.-J. Werner (1984)


 Number of closed-shell orbitals:   7 (   7 )
 Number of active  orbitals:        2 (   2 )
 Number of external orbitals:      27 (  27 )

 State symmetry 1

 Number of electrons:     2    Spin symmetry=Singlet   Space symmetry=1
 Number of states:        3
 Number of CSFs:          3   (4 determinants, 4 intermediate states)

 Molecular orbitals read from record     2100.2  Type=RHF/CANONICAL (state 1.1)

 Wavefunction dump at record             2140.2

 Convergence thresholds  0.10E-01 (gradient)  0.10E-05 (energy)  0.10E-02 (step length)

 Weight factors for state symmetry  1:    0.33333   0.33333   0.33333

 Number of orbital rotations:      257   (    14 Core/Active    189 Core/Virtual   0 Active/Active     54 Active/Virtual)
 Total number of variables:        269

 Micro-Iterations solved by the two-step solver

 ITER. MIC  NCI  NEG     ENERGY(VAR)     ENERGY(PROJ)   ENERGY CHANGE     GRAD(0)  GRAD(ORB)   GRAD(CI)     STEP       TIME

   1   20    9    0     -77.68953747     -77.69735287   -0.00781540    0.08561300 0.00270829 0.00000000  0.21D+00      0.38
   2   14    7    0     -77.69760072     -77.69957421   -0.00197349    0.03046847 0.00002814 0.00000000  0.14D+00      0.58
   3    8    6    0     -77.69972525     -77.69981630   -0.00009105    0.01130227 0.00000380 0.00000000  0.17D-01      0.68
   4   10    6    0     -77.69981704     -77.69981706   -0.00000003    0.00014724 0.00000000 0.00000000  0.32D-03      0.80
   5    3    3    0     -77.69981706     -77.69981706    0.00000000    0.00000005 0.00000000 0.00000000  0.85D-07      0.84

 ** WVFN ****  CONVERGENCE REACHED, FINAL GRADIENT:  0.20D-11



 Results for state 1.1
 =====================

 !MCSCF STATE  1.1 Energy             -77.875175180771
 Nuclear energy                        29.36735726
 Kinetic energy                        77.66513817
 One electron energy                 -161.84694824
 Two electron energy                   54.60441580
 Virial ratio                           2.00270439

 !MCSCF STATE  1.1 Dipole moment        0.10434197    -0.02301847    -0.01717544
 Dipole moment /Debye                   0.26519347    -0.05850329    -0.04365276

 Results for state 2.1
 =====================

 !MCSCF STATE  2.1 Energy             -77.668523449548
 Nuclear energy                        29.36735726
 Kinetic energy                        77.85200843
 One electron energy                 -161.71873353
 Two electron energy                   54.68285281
 Virial ratio                           1.99764316

 !MCSCF STATE  2.1 Dipole moment       -0.15260815     0.01529005    -0.05079228
 Dipole moment /Debye                  -0.38786582     0.03886089    -0.12909264

 Results for state 3.1
 =====================

 !MCSCF STATE  3.1 Energy             -77.555752561379
 Nuclear energy                        29.36735726
 Kinetic energy                        78.05175503
 One electron energy                 -161.62796094
 Two electron energy                   54.70485112
 Virial ratio                           1.99364521

 !MCSCF STATE  3.1 Dipole moment       -0.01140129    -0.00812745    -0.34238319
 Dipole moment /Debye                  -0.02897730    -0.02065656    -0.87019428

 State-averaged charge density matrix saved on record  2140.2 (density set 1)

 !MCSCF expec         <1.1|DMX|1.1>     0.104341973870 au =     0.265193473949 Debye
 !MCSCF trans         <2.1|DMX|1.1>    -1.096437571844 au =    -2.786683803847 Debye
 !MCSCF expec         <2.1|DMX|2.1>    -0.152608150421 au =    -0.387865822947 Debye
 !MCSCF trans         <3.1|DMX|1.1>     0.106232050881 au =     0.269997255879 Debye
 !MCSCF trans         <3.1|DMX|2.1>    -1.836387657735 au =    -4.667326143147 Debye
 !MCSCF expec         <3.1|DMX|3.1>    -0.011401293479 au =    -0.028977299480 Debye

 !MCSCF expec         <1.1|DMY|1.1>    -0.023018472102 au =    -0.058503288325 Debye
 !MCSCF trans         <2.1|DMY|1.1>     0.170026054622 au =     0.432134819905 Debye
 !MCSCF expec         <2.1|DMY|2.1>     0.015290053370 au =     0.038860893844 Debye
 !MCSCF trans         <3.1|DMY|1.1>    -0.015652331131 au =    -0.039781651755 Debye
 !MCSCF trans         <3.1|DMY|2.1>     0.284666444044 au =     0.723502540853 Debye
 !MCSCF expec         <3.1|DMY|3.1>    -0.008127446471 au =    -0.020656555403 Debye

 !MCSCF expec         <1.1|DMZ|1.1>    -0.017175440634 au =    -0.043652756407 Debye
 !MCSCF trans         <2.1|DMZ|1.1>     0.716439087024 au =     1.820887254799 Debye
 !MCSCF expec         <2.1|DMZ|2.1>    -0.050792278616 au =    -0.129092639485 Debye
 !MCSCF trans         <3.1|DMZ|1.1>     0.038248727554 au =     0.097212200977 Debye
 !MCSCF trans         <3.1|DMZ|2.1>     1.186218142426 au =     3.014868306428 Debye
 !MCSCF expec         <3.1|DMZ|3.1>    -0.342383193107 au =    -0.870194275937 Debye


 NATURAL ORBITALS (state averaged)
 =================================

  Orbital  Occupation    Energy     Coefficients
    1.1     2.00000   -11.26768     2 1s   -0.99625
    2.1     2.00000   -11.25572     1 1s   -0.99628
    3.1     2.00000    -0.94748     1 1s    0.28162     1 1s    0.26550     2 1s    0.28610     2 1s    0.26158
    4.1     2.00000    -0.83663     1 1s   -0.26854     1 1s   -0.27770     2 1s    0.26936     2 1s    0.27122
    5.1     2.00000    -0.63135     1 2py   0.29431     2 2py   0.33065
    6.1     2.00000    -0.58164     1 2py  -0.31238     2 2py   0.27658
    7.1     2.00000    -0.42615     1 2px   0.37126
    8.1     1.00000    -0.05709     1 1s   -0.28800     1 2pz  -0.32689     1 2pz  -0.39265     2 2pz   0.43742     2 2pz   0.50067
    9.1     1.00000    -0.19752     1 2pz   0.26751     2 2px   0.30917     2 2pz   0.26762     2 2pz   0.30700
   10.1    -0.00000     0.25321     1 1s   -1.51936     1 2px   0.41491     1 2pz   0.29753     2 1s   -1.28702     2 2px  -0.52877
                                    2 2py   0.27837     3 1s    1.14111     4 1s    0.93583     5 1s    0.82640     6 1s    1.11487
   11.1    -0.00000     0.26294     1 1s    1.30707     1 2px   0.58887     1 2py  -0.25649     1 2pz  -0.50681     2 1s   -1.62129
                                    2 2px   0.48778     2 2pz  -0.34133     3 1s   -0.26181     4 1s   -0.61377     5 1s    0.81791
                                    6 1s    0.43178
   12.1    -0.00000     0.32292     1 1s   -0.88142     1 2px   0.28015     1 2py  -0.71870     2 1s    0.74700     2 2py  -0.91065
                                    3 1s    1.52223     5 1s    0.35322     6 1s   -1.66757
   13.1    -0.00000     0.34351     1 1s    0.48805     1 2px  -0.91207     2 1s   -0.64260     2 2px  -0.25001     2 2px  -1.08149
                                    2 2py  -0.76959     4 1s   -1.26577     5 1s    1.96953     6 1s   -0.34568
   14.1    -0.00000     0.35126     1 1s   -0.56752     1 2py   0.25428     1 2px   0.59713     1 2py   1.45942     2 1s   -0.42354
                                    2 2py  -1.12990     3 1s   -1.21424     4 1s    2.07467     5 1s    1.34582     6 1s   -0.92338
   15.1    -0.00000     0.68977     1 2px  -0.30420     1 2py  -0.29401     1 2px   0.82906     1 2py   0.71501     2 2px  -0.32727
                                    2 2py  -0.31780     2 2px   0.85176     2 2py   0.76913     4 1s    0.43432     4 1s    0.34387
                                    5 1s   -0.44646     5 1s   -0.34898
   16.1    -0.00000     0.76040     1 1s    0.33696     1 1s   -0.91003     1 2px  -0.39856     1 2px   0.65980     1 2py  -0.25232
                                    2 1s    0.30861     2 1s   -0.78642     2 2px   0.52242     2 2py  -0.28583     2 2px  -0.92470
                                    2 2py   0.42884     3 1s    0.28269     6 1s    0.37411
   17.1    -0.00000     0.78392     1 2px  -0.55422     1 2py   0.31668     1 2px   0.92071     1 2py  -0.62328     2 1s   -0.27039
                                    2 2px  -0.47015     2 2py   0.28741     2 2px   0.71619     2 2py  -0.60417     3 1s    0.42727
                                    3 1s    0.25260     6 1s   -0.35187
   18.1    -0.00000     0.80225     1 2pz   0.65817     1 2px   0.50187     1 2pz  -0.53119     2 2pz   0.85936     2 2px   0.28068
                                    2 2pz  -0.87911
   19.1    -0.00000     0.85026     1 2pz   0.87202     1 2pz  -1.01393     2 1s   -0.33723     2 2pz  -0.60130     2 2px   0.26374
                                    2 2pz   0.76492
   20.1    -0.00000     0.94185     1 1s   -0.28982     1 1s    0.85861     1 2py   0.62870     1 2px  -0.62289     1 2py  -1.95045
                                    2 1s   -0.26491     2 1s    0.81663     2 2py  -0.62130     2 2px   0.63997     2 2py   1.92194
                                    3 1s    0.57872     4 1s   -0.37418     4 1s   -1.07956     5 1s   -0.36060     5 1s   -1.07460
                                    6 1s    0.59893
   21.1    -0.00000     0.99297     1 1s   -0.62484     1 1s    0.64715     1 2px  -0.56894     1 2px   0.44788     1 2py   0.70259
                                    1 2pz  -0.31516     2 1s   -0.63805     2 1s    0.72368     2 2px   0.55185     2 2px  -0.45416
                                    2 2py  -0.70607     2 2pz   0.35024     3 1s   -0.37560     3 1s   -0.33470     4 1s    0.30263
                                    5 1s    0.31276     6 1s   -0.40650     6 1s   -0.33380
   22.1    -0.00000     1.16971     1 1s   -0.62103     1 2px   0.37132     1 2py  -0.32506     1 2px  -0.95659     1 2py   0.47363
                                    2 1s    0.45630     2 2px   0.35589     2 2py  -0.36649     2 2px  -0.97158     2 2py   0.49776
                                    3 1s    0.68958     3 1s   -0.92004     4 1s    0.26539     6 1s   -0.75657     6 1s    1.04444
   23.1    -0.00000     1.19048     1 1s   -0.91445     1 1s    1.52142     1 2px  -0.46368     2 1s   -1.05271     2 1s    1.89431
                                    2 2py   0.29825     3 1s    0.65311     3 1s   -1.06465     4 1s   -0.56090     5 1s   -0.43220
                                    6 1s    0.59187     6 1s   -1.12069
   24.1    -0.00000     1.21998     1 1s   -1.22892     1 1s    2.81268     1 2py  -0.50615     1 2px   0.83689     1 2py   0.73692
                                    1 2pz  -0.52351     2 1s    1.00999     2 1s   -2.46238     2 2py  -0.48849     2 2px   0.88353
                                    2 2py   0.70285     2 2pz  -0.51610     3 1s   -1.15600     4 1s   -0.36512     4 1s    0.29417
                                    5 1s    0.42331     5 1s   -0.43737     6 1s    0.98764
   25.1    -0.00000     1.28315     1 2py   0.31657     2 1s   -1.03719     2 1s    1.85956     2 2px  -0.30354     2 2py  -0.48552
                                    2 2px   0.30123     2 2py   0.40954     4 1s    0.53280     4 1s   -0.62597     5 1s    0.82859
                                    5 1s   -1.47571
   26.1    -0.00000     1.29570     1 1s   -1.28203     1 1s    2.62410     1 2px   0.34809     1 2py   0.50737     1 2py  -0.59816
                                    1 2pz  -0.25148     2 1s    0.90884     2 1s   -2.04487     2 2py  -0.39238     4 1s    0.72564
                                    4 1s   -1.67957     5 1s   -0.28581     5 1s    1.01998
   27.1    -0.00000     1.79987     1 1s    0.25216     1 3d0  -0.28606     1 3d1+  0.50978     1 3d2+  0.26001     2 3d0   0.28212
                                    2 3d1+ -0.53578     2 3d2+ -0.27697
   28.1    -0.00000     1.88985     1 1s    0.30628     1 3d0   0.32826     1 3d1+  0.42924     1 3d2+ -0.32734     2 1s    0.31254
                                    2 3d0   0.34440     2 3d1+  0.43402     2 3d2+ -0.31972
   29.1    -0.00000     1.90295     1 3d1-  0.60201     2 3d2+  0.25296     2 3d1- -0.61419
   30.1    -0.00000     2.10337     1 1s    0.32346     1 2px  -0.26229     1 2py  -0.56854     1 3d2+ -0.32252     1 3d1-  0.58337
                                    2 1s    0.35410     2 2px   0.25553     2 2py   0.56552     2 3d2+ -0.31827     2 3d1-  0.56906
                                    4 1s   -0.39913     5 1s   -0.39667
   31.1    -0.00000     2.24747     1 3d0  -0.30444     1 3d2- -0.25349     1 3d1+  0.53739     1 3d2+  0.33066     2 3d0  -0.26978
                                    2 3d2- -0.26360     2 3d1+  0.51238     2 3d2+  0.34507
   32.1    -0.00000     2.38961     1 2py  -0.44708     1 3d0   0.41183     1 3d2+  0.39932     1 3d1-  0.36997     2 1s   -0.41319
                                    2 2py   0.48272     2 3d0   0.53966     2 3d2+  0.45243     2 3d1-  0.42856     3 1s    0.52789
                                    6 1s    0.65245
   33.1    -0.00000     2.44156     1 1s   -0.39504     1 1s    1.37743     1 2px   0.40641     1 2pz  -0.30834     1 3d0  -0.68503
                                    1 3d2+ -0.30171     1 3d1- -0.25919     2 1s    0.38766     2 1s   -1.30651     2 2px   0.42450
                                    2 2pz  -0.28709     2 3d0   0.58474     3 1s   -0.59794     4 1s   -0.29100     6 1s    0.47183
   34.1    -0.00000     2.53371     1 2py   0.31883     1 3d2- -0.63506     1 3d1- -0.27406     2 2py   0.38672     2 3d0  -0.27412
                                    2 3d2-  0.76266     2 3d1-  0.28400     3 1s   -0.27762     4 1s    0.60798     5 1s   -0.74483
                                    6 1s    0.30648
   35.1    -0.00000     2.63887     1 2px  -0.27846     1 2py  -0.53157     1 3d0  -0.29708     1 3d2-  0.79908     2 1s    0.27987
                                    2 2py   0.46665     2 3d0  -0.26431     2 3d2-  0.66259     3 1s    0.28067     4 1s   -0.78361
                                    5 1s   -0.65887
   36.1    -0.00000     2.74633     1 1s    0.32181     1 1s   -1.05704     1 2px  -0.68802     1 2pz   0.26580     1 3d1+  0.48438
                                    1 3d2+ -0.68229     2 1s   -0.31861     2 1s    1.04573     2 2px  -0.69460     2 2pz   0.27327
                                    2 3d1+ -0.50014     2 3d2+  0.66578


 Natural orbital dump (state averaged) at molpro section  2140.2    (Orbital set 2)



 **********************************************************************************************************************************
 DATASETS  * FILE   NREC   LENGTH (MB)   RECORD NAMES
              1      20       31.82       500      610      700      900      950      970     1000      129      960     1100   
                                          VAR    BASINP    GEOM    SYMINP    ZMAT    AOBASIS   BASIS     P2S    ABASIS      S 
                                         1400     1410     1200     1210     1080     1600     1650     1300     1700     1380   
                                           T        V       H0       H01     AOSYM     SMH    MOLCAS    ERIS     OPER     JKOP   

              2       5        5.42       700     1000      520     2100     2140   
                                         GEOM     BASIS   MCVARS     RHF     MCSCF   

 PROGRAMS   *        TOTAL     MULTI    HF-SCF       INT
 CPU TIMES  *         1.25      0.89      0.09      0.17
 REAL TIME  *         1.50 SEC
 DISK USED  *        39.01 MB
 **********************************************************************************************************************************
 Molecular orbitals read from record     2140.2  Type=MCSCF/NATURAL (state averaged)
 Occupation numbers read from record     2140.2  Type=MCSCF/NATURAL (state averaged)
 Orbital energies read from record       2140.2  Type=MCSCF/NATURAL (state averaged)
 Redundancy group numbers read from rec  2140.2  Type=MCSCF/NATURAL (state averaged)

 MULTI/6-31G* energy=    -77.555752561379

           MULTI          HF-SCF
    -77.55575256    -77.86307377
 **********************************************************************************************************************************
 Molpro calculation terminated
