
 Primary working directories    : /scratch.local/johan406.molpro_temp/molpro.Nov7PWimD3
 Secondary working directories  : /scratch.local/johan406.molpro_temp/molpro.Nov7PWimD3
 Wavefunction directory         : /home/goodpast/johan406/wfu/
 Main file repository           : /scratch.local/johan406.molpro_temp/molpro.Nov7PWimD3/

 id        : roweumn

 Nodes     nprocs
 acn06        1

 Using customized tuning parameters: mindgm=1; mindgv=20; mindgc=4; mindgr=1; noblas=0; minvec=7
 default implementation of scratch files=df  


 Variables initialized (934), CPU time= 0.00 sec
                                                                                 !leave this line blank
 
 gprint, orbitals=30
 memory, 125., m
 symmetry, nosym
 nelect=16
 basis=6-31g*
 
 geometry={
 C -0.824 0.075 0.309
 C 0.833 -0.125 -0.369
 H -1.038 1.109 0.021
 H -1.474 -0.685 0.230
 H 1.483 0.636 -0.291
 H 1.047 -1.160 -0.081
 }
 
 hf
 {multi,
 closed 7
 occ 9
 wf,spin=0;STATE,3
 }
 
 Commands  initialized (763), CPU time= 0.01 sec, 617 directives.
 Default parameters read. Elapsed time= 0.06 sec

 Checking input...
 Passed
1


                                         ***  PROGRAM SYSTEM MOLPRO  ***
                                       Copyright, TTI GmbH Stuttgart, 2015
                                    Version 2019.2 linked Oct 25 2019 22:50:27


 **********************************************************************************************************************************
 LABEL *                                                                                 
  64 bit serial version                                                                  DATE: 15-Mar-23          TIME: 16:40:08  
 **********************************************************************************************************************************

 SHA1:             8dbd9ae1082e4ce945b0f27595c9eb2d4aa09004
 **********************************************************************************************************************************


 Variable memory set to  125000000 words,  buffer space 

 SETTING NELECT         =        16.00000000                                  
 SETTING BASIS          =    6-31G*
 ZSYMEL=NOSYM


Geometry recognized as XYZ



 Recomputing integrals since basis changed


 Using spherical harmonics

 Library entry C      S 6-31G                selected for orbital group  1
 Library entry C      P 6-31G                selected for orbital group  1
 Library entry C      D 6-31G*               selected for orbital group  1
 Library entry H      S 6-31G                selected for orbital group  2


 PROGRAM * SEWARD (Integral evaluation for generally contracted gaussian basis sets)     Author: Roland Lindh, 1990

 Geometry written to block  1 of record 700


 Point group  C1  



 ATOMIC COORDINATES

 NR  ATOM    CHARGE       X              Y              Z

   1  C       6.00   -1.557134327    0.141729459    0.583925372
   2  C       6.00    1.574141862   -0.236215766   -0.697308940
   3  H       1.00   -1.961535717    2.095706272    0.039684249
   4  H       1.00   -2.785456308   -1.294462395    0.434637009
   5  H       1.00    2.802463843    1.201865815   -0.549910302
   6  H       1.00    1.978543252   -2.192082304   -0.153067816

 Bond lengths in Bohr (Angstrom)

 1-2  3.404305292  1-3  2.068275676  1-4  1.895708033  2-5  1.896992325  2-6  2.070061063
     ( 1.801480780)     ( 1.094484353)     ( 1.003165490)     ( 1.003845108)     ( 1.095429140)

 Bond angles

  1-2-5  118.82744400   1-2-6  100.69824234   2-1-3  100.70167155   2-1-4  118.83150934

  3-1-4  124.63326259   5-2-6  124.70429647

 NUCLEAR CHARGE:                   16
 NUMBER OF PRIMITIVE AOS:          72
 NUMBER OF SYMMETRY AOS:           70
 NUMBER OF CONTRACTIONS:           36   (   36A   )
 NUMBER OF CORE ORBITALS:           2   (    2A   )
 NUMBER OF VALENCE ORBITALS:       12   (   12A   )


 NUCLEAR REPULSION ENERGY   29.39835725

 Eigenvalues of metric

         1 0.194E-01 0.281E-01 0.470E-01 0.523E-01 0.786E-01 0.226E+00 0.276E+00 0.281E+00


 Contracted 2-electron integrals neglected if value below      1.0D-11
 AO integral compression algorithm  1   Integral accuracy      1.0D-11

     1.311 MB (compressed) written to integral file ( 66.4%)


 NUMBER OF SORTED TWO-ELECTRON INTEGRALS:     222111.     BUFFER LENGTH:  32768
 NUMBER OF SEGMENTS:   1  SEGMENT LENGTH:     222111      RECORD LENGTH: 524288

 Memory used in sort:       0.78 MW

 SORT1 READ      284735. AND WROTE      212387. INTEGRALS IN      1 RECORDS. CPU TIME:     0.00 SEC, REAL TIME:     0.01 SEC
 SORT2 READ      212387. AND WROTE      222111. INTEGRALS IN      5 RECORDS. CPU TIME:     0.02 SEC, REAL TIME:     0.02 SEC

 FILE SIZES:   FILE 1:    31.4 MBYTE,  FILE 4:     4.2 MBYTE,   TOTAL:     35.6 MBYTE

 OPERATOR DM      FOR CENTER  0  COORDINATES:    0.000000    0.000000    0.000000


 **********************************************************************************************************************************
 DATASETS  * FILE   NREC   LENGTH (MB)   RECORD NAMES
              1      19       31.09       500      610      700      900      950      970     1000      129      960     1100   
                                          VAR    BASINP    GEOM    SYMINP    ZMAT    AOBASIS   BASIS     P2S    ABASIS      S 
                                         1400     1410     1200     1210     1080     1600     1650     1300     1700   
                                           T        V       H0       H01     AOSYM     SMH    MOLCAS    ERIS     OPER   

 PROGRAMS   *        TOTAL       INT
 CPU TIMES  *         0.28      0.18
 REAL TIME  *         0.39 SEC
 DISK USED  *        35.97 MB
 **********************************************************************************************************************************


 PROGRAM * RHF-SCF (CLOSED SHELL)       Authors: W. Meyer, H.-J. Werner


 NUMBER OF ELECTRONS:       8+    8-    SPACE SYMMETRY=1    SPIN SYMMETRY: Singlet 
 CONVERGENCE THRESHOLDS:    1.00E-05 (Density)    1.00E-07 (Energy)
 MAX. NUMBER OF ITERATIONS:       60
 INTERPOLATION TYPE:            DIIS
 INTERPOLATION STEPS:              2 (START)      1 (STEP)
 LEVEL SHIFTS:                  0.00 (CLOSED)  0.00 (OPEN) 



 Orbital guess generated from atomic densities. Full valence occupancy:    8

 Molecular orbital dump at record        2100.2

 Initial occupancy:   8

 ITERATION    DDIFF          GRAD             ENERGY        2-EL.EN.            DIPOLE MOMENTS         DIIS   ORB.
    1      0.000D+00      0.000D+00       -77.83622871    109.585543    0.00419   -0.00045   -0.00270    0    start
    2      0.000D+00      0.674D-02       -77.85586499    109.162999   -0.00204    0.00012    0.00129    1    diag
    3      0.739D-02      0.216D-02       -77.85919122    109.384228    0.00506   -0.00021   -0.00380    2    diag
    4      0.354D-02      0.870D-03       -77.86005565    109.305086   -0.00356    0.00028    0.00220    3    diag
    5      0.161D-02      0.570D-03       -77.86082473    109.322784    0.01224   -0.00049   -0.00901    4    diag
    6      0.237D-02      0.284D-03       -77.86093622    109.326819   -0.00567    0.00040    0.00367    5    diag
    7      0.809D-03      0.137D-03       -77.86096015    109.325364    0.00052    0.00009   -0.00072    6    diag
    8      0.465D-03      0.180D-04       -77.86096057    109.325832    0.00045    0.00010   -0.00067    7    diag
    9      0.532D-04      0.408D-05       -77.86096059    109.325838    0.00042    0.00010   -0.00065    8    diag
   10      0.122D-04      0.924D-06       -77.86096059    109.325841    0.00043    0.00010   -0.00065    9    orth
   11      0.241D-05      0.171D-06       -77.86096059    109.325840    0.00043    0.00010   -0.00065    0    orth

 Final occupancy:   8

 !RHF STATE  1.1 Energy               -77.860960591477
 Nuclear energy                        29.39835725
 One-electron energy                 -161.92223777
 Two-electron energy                   54.66291993
 Virial quotient                       -1.00331349
 !RHF STATE  1.1 Dipole moment          0.00042676     0.00009912    -0.00065295
 Dipole moment /Debye                   0.00108465     0.00025192    -0.00165952

 ELECTRON ORBITALS
 =================

  Orbital  Occupation    Energy     Coefficients
    1.1     2.00000   -11.27171     1 1s    0.41163     2 1s    0.90727
    2.1     2.00000   -11.27132     1 1s   -0.90733     2 1s    0.41177
    3.1     2.00000    -0.95021     1 1s    0.28253     1 1s    0.26510     2 1s    0.28198     2 1s    0.26477
    4.1     2.00000    -0.83840     1 1s   -0.26779     2 1s    0.26836
    5.1     2.00000    -0.63015     1 2py   0.31571     2 2py   0.31479
    6.1     2.00000    -0.58373     1 2py  -0.28778     2 2py   0.28850
    7.1     2.00000    -0.44484     1 2px   0.34225     2 2px  -0.34232
    8.1     2.00000    -0.30784     1 2pz   0.30889     1 2pz   0.32928     2 2pz   0.30871     2 2pz   0.32911
    9.1     0.00000     0.07112     1 2pz  -0.35536     1 2pz  -0.49555     2 2pz   0.35549     2 2pz   0.49574
   10.1     0.00000     0.25483     1 1s   -1.39895     1 2px   0.46565     1 2pz   0.26817     2 1s   -1.40974     2 2px  -0.46456
                                    2 2pz  -0.27025     3 1s    1.11182     4 1s    0.89497     5 1s    0.90133     6 1s    1.11706
   11.1     0.00000     0.27381     1 1s    1.52902     1 2px   0.51798     1 2py  -0.27451     1 2pz  -0.41970     2 1s   -1.51862
                                    2 2px   0.52116     2 2py  -0.27680     2 2pz  -0.41736     3 1s   -0.33207     4 1s   -0.81738
                                    5 1s    0.81137     6 1s    0.32346
   12.1     0.00000     0.32603     1 1s   -0.86439     1 2px   0.33635     1 2py  -0.76063     2 1s    0.85406     2 2px   0.33175
                                    2 2py  -0.76746     3 1s    1.57849     6 1s   -1.57916
   13.1     0.00000     0.34639     1 1s    0.37205     1 2px  -1.03112     1 2py  -0.55282     2 1s   -0.38068     2 2px  -1.04025
                                    2 2py  -0.58587     3 1s    0.31034     4 1s   -1.61010     5 1s    1.64999     6 1s   -0.33931
   14.1     0.00000     0.35126     1 1s   -0.50590     1 2px   0.44336     1 2py   1.33852     2 1s   -0.50108     2 2px  -0.41977
                                    2 2py  -1.31902     3 1s   -1.10889     4 1s    1.77661     5 1s    1.73431     6 1s   -1.08971
   15.1     0.00000     0.69210     1 2px  -0.33831     1 2py  -0.28608     1 2px   0.88528     1 2py   0.73168     2 2px  -0.33904
                                    2 2py  -0.28483     2 2px   0.88541     2 2py   0.72804     4 1s    0.44180     4 1s    0.37561
                                    5 1s   -0.44209     5 1s   -0.37358
   16.1     0.00000     0.75730     1 1s   -0.34608     1 1s    0.88420     1 2px   0.45869     1 2py  -0.25346     1 2px  -0.79888
                                    1 2py   0.34929     2 1s   -0.34600     2 1s    0.88083     2 2px  -0.45791     2 2py   0.25443
                                    2 2px   0.79581     2 2py  -0.35111     3 1s   -0.33255     6 1s   -0.33278
   17.1     0.00000     0.79125     1 2px  -0.50950     1 2py   0.31988     1 2px   0.77156     1 2py  -0.66428     2 2px  -0.50998
                                    2 2py   0.31862     2 2px   0.77285     2 2py  -0.65935     3 1s    0.38400     3 1s    0.27537
                                    6 1s   -0.38414     6 1s   -0.27260
   18.1     0.00000     0.80792     1 2pz   0.76917     1 2px   0.37518     1 2pz  -0.69892     2 2pz   0.77026     2 2px   0.37361
                                    2 2pz  -0.70056
   19.1     0.00000     0.85351     1 1s   -0.27520     1 2pz   0.75491     1 2pz  -0.88318     2 1s   -0.27617     2 2pz  -0.75379
                                    2 2pz   0.88202
   20.1     0.00000     0.94054     1 1s   -0.26470     1 1s    0.84708     1 2py   0.62037     1 2px  -0.66484     1 2py  -1.93546
                                    2 1s   -0.26561     2 1s    0.84755     2 2py  -0.62263     2 2px   0.66142     2 2py   1.93959
                                    3 1s    0.58359     4 1s   -0.36651     4 1s   -1.09395     5 1s   -0.36740     5 1s   -1.09306
                                    6 1s    0.58694
   21.1     0.00000     0.99931     1 1s   -0.60586     1 1s    0.62536     1 2px  -0.57293     1 2px   0.47279     1 2py   0.67654
                                    1 2pz  -0.32786     2 1s   -0.60583     2 1s    0.62378     2 2px   0.57395     2 2px  -0.47656
                                    2 2py  -0.67725     2 2pz   0.32847     3 1s   -0.39177     3 1s   -0.30513     4 1s    0.32923
                                    5 1s    0.33257     6 1s   -0.39311     6 1s   -0.30252
   22.1     0.00000     1.17332     1 1s    0.34529     1 2px  -0.34958     1 2py   0.34955     1 2px   0.90686     1 2py  -0.49166
                                    2 1s   -0.26861     2 2px  -0.35376     2 2py   0.35828     2 2px   0.92203     2 2py  -0.49258
                                    3 1s   -0.72147     3 1s    1.01954     5 1s   -0.26561     6 1s    0.74575     6 1s   -1.06396
   23.1     0.00000     1.19208     1 1s   -1.00433     1 1s    1.72870     1 2py  -0.26732     1 2px  -0.36865     2 1s   -1.01900
                                    2 1s    1.77379     2 2py   0.25599     2 2px   0.32148     3 1s    0.62869     3 1s   -1.11590
                                    4 1s   -0.53209     5 1s   -0.52113     6 1s    0.59889     6 1s   -1.08272
   24.1     0.00000     1.22615     1 1s   -1.11656     1 1s    2.65467     1 2px  -0.25173     1 2py  -0.48643     1 2px   0.93812
                                    1 2py   0.71574     1 2pz  -0.54491     2 1s    1.10119     2 1s   -2.62744     2 2px  -0.25387
                                    2 2py  -0.48680     2 2px   0.94355     2 2py   0.71606     2 2pz  -0.54189     3 1s   -1.02829
                                    4 1s   -0.41220     4 1s    0.40463     5 1s    0.41717     5 1s   -0.41807     6 1s    1.01665
   25.1     0.00000     1.28811     1 1s   -0.59855     1 1s    0.90188     1 2py   0.42103     1 2px  -0.26626     1 2py  -0.29787
                                    2 1s   -0.69391     2 1s    1.10892     2 2py  -0.44607     2 2px   0.26328     2 2py   0.33040
                                    3 1s   -0.26574     4 1s    0.69870     4 1s   -1.03892     5 1s    0.73383     5 1s   -1.13839
                                    6 1s   -0.27608
   26.1     0.00000     1.29712     1 1s   -1.20778     1 1s    2.58247     1 2px   0.28902     1 2py   0.39852     1 2py  -0.51641
                                    1 2pz  -0.28645     2 1s    1.15686     2 1s   -2.50085     2 2px   0.27229     2 2py   0.36679
                                    2 2py  -0.49255     2 2pz  -0.27963     4 1s    0.54441     4 1s   -1.43998     5 1s   -0.49131
                                    5 1s    1.35598
   27.1     0.00000     1.80132     1 3d0  -0.29062     1 3d1+  0.52034     1 3d2+  0.26059     2 3d0   0.29113     2 3d1+ -0.52049
                                    2 3d2+ -0.25993
   28.1     0.00000     1.89526     1 1s    0.31599     1 3d0   0.33499     1 3d1+  0.43190     1 3d2+ -0.32364     2 1s    0.31565
                                    2 3d0   0.33517     2 3d1+  0.43207     2 3d2+ -0.32274
   29.1     0.00000     1.90722     1 3d1- -0.60481     2 3d1-  0.60558
   30.1     0.00000     2.10304     1 1s    0.35352     1 2px  -0.26229     1 2py  -0.56000     1 3d2+ -0.32347     1 3d1-  0.56863
                                    2 1s    0.35220     2 2px   0.26241     2 2py   0.56055     2 3d2+ -0.32361     2 3d1-  0.56845
                                    4 1s   -0.39989     5 1s   -0.39950
   31.1     0.00000     2.25872     1 3d0  -0.30828     1 3d2- -0.26427     1 3d1+  0.52677     1 3d2+  0.31964     2 3d0  -0.30941
                                    2 3d2- -0.26316     2 3d1+  0.52672     2 3d2+  0.31948
   32.1     0.00000     2.39427     1 2py  -0.49367     1 3d0   0.44933     1 3d2+  0.44065     1 3d1-  0.41718     2 1s   -0.26381
                                    2 2py   0.49748     2 3d0   0.45562     2 3d2+  0.44526     2 3d1-  0.42170     3 1s    0.60275
                                    6 1s    0.61046
   33.1     0.00000     2.44598     1 1s    0.39192     1 1s   -1.35206     1 2px  -0.43186     1 2pz   0.30403     1 3d0   0.63611
                                    1 3d2+  0.25553     2 1s   -0.39225     2 1s    1.34725     2 2px  -0.43318     2 2pz   0.30282
                                    2 3d0  -0.62927     2 3d2+ -0.25034     3 1s    0.54839     4 1s    0.26554     5 1s   -0.26237
                                    6 1s   -0.54043
   34.1     0.00000     2.53874     1 2py   0.35814     1 3d2- -0.69676     1 3d1- -0.27880     2 2py   0.36216     2 3d2-  0.70723
                                    2 3d1-  0.27747     3 1s   -0.28353     4 1s    0.68033     5 1s   -0.68997     6 1s    0.28279
   35.1     0.00000     2.64265     1 1s    0.27604     1 2px  -0.25789     1 2py  -0.49103     1 3d0  -0.29473     1 3d2-  0.73839
                                    2 1s    0.27768     2 2px   0.25391     2 2py   0.48628     2 3d0  -0.29276     2 3d2-  0.72808
                                    4 1s   -0.73491     5 1s   -0.72465
   36.1     0.00000     2.75181     1 1s   -0.31784     1 1s    1.04991     1 2px   0.68927     1 2pz  -0.26914     1 3d1+ -0.49127
                                    1 3d2+  0.67521     2 1s    0.31763     2 1s   -1.04999     2 2px   0.68938     2 2pz  -0.26936
                                    2 3d1+  0.49107     2 3d2+ -0.67460


 HOMO      8.1    -0.307837 =      -8.3767eV
 LUMO      9.1     0.071119 =       1.9353eV
 LUMO-HOMO         0.378956 =      10.3119eV


 **********************************************************************************************************************************
 DATASETS  * FILE   NREC   LENGTH (MB)   RECORD NAMES
              1      19       31.09       500      610      700      900      950      970     1000      129      960     1100   
                                          VAR    BASINP    GEOM    SYMINP    ZMAT    AOBASIS   BASIS     P2S    ABASIS      S 
                                         1400     1410     1200     1210     1080     1600     1650     1300     1700   
                                           T        V       H0       H01     AOSYM     SMH    MOLCAS    ERIS     OPER   

              2       4        2.86       700     1000      520     2100   
                                         GEOM     BASIS   MCVARS     RHF  

 PROGRAMS   *        TOTAL    HF-SCF       INT
 CPU TIMES  *         0.37      0.09      0.18
 REAL TIME  *         0.54 SEC
 DISK USED  *        35.97 MB
 **********************************************************************************************************************************


 PROGRAM * MULTI (Direct Multiconfiguration SCF)       Authors: P.J. Knowles, H.-J. Werner (1984)


 Number of closed-shell orbitals:   7 (   7 )
 Number of active  orbitals:        2 (   2 )
 Number of external orbitals:      27 (  27 )

 State symmetry 1

 Number of electrons:     2    Spin symmetry=Singlet   Space symmetry=1
 Number of states:        3
 Number of CSFs:          3   (4 determinants, 4 intermediate states)

 Molecular orbitals read from record     2100.2  Type=RHF/CANONICAL (state 1.1)

 Wavefunction dump at record             2140.2

 Convergence thresholds  0.10E-01 (gradient)  0.10E-05 (energy)  0.10E-02 (step length)

 Weight factors for state symmetry  1:    0.33333   0.33333   0.33333

 Number of orbital rotations:      257   (    14 Core/Active    189 Core/Virtual   0 Active/Active     54 Active/Virtual)
 Total number of variables:        269

 Micro-Iterations solved by the two-step solver

 ITER. MIC  NCI  NEG     ENERGY(VAR)     ENERGY(PROJ)   ENERGY CHANGE     GRAD(0)  GRAD(ORB)   GRAD(CI)     STEP       TIME

   1   18    9    0     -77.68729288     -77.69556406   -0.00827118    0.08565516 0.00030246 0.00000000  0.22D+00      0.33
   2   14    7    0     -77.69593176     -77.69800992   -0.00207816    0.03477723 0.00004318 0.00000000  0.13D+00      0.54
   3    8    6    0     -77.69814564     -77.69820758   -0.00006194    0.00949214 0.00000071 0.00000000  0.13D-01      0.64
   4   10    6    0     -77.69820795     -77.69820796   -0.00000001    0.00009053 0.00000000 0.00000000  0.19D-03      0.75
   5    3    3    0     -77.69820796     -77.69820796   -0.00000000    0.00000002 0.00000000 0.00000000  0.27D-07      0.80

 ** WVFN ****  CONVERGENCE REACHED, FINAL GRADIENT:  0.70D-12



 Results for state 1.1
 =====================

 !MCSCF STATE  1.1 Energy             -77.871838458071
 Nuclear energy                        29.39835725
 Kinetic energy                        77.67176917
 One electron energy                 -161.91130246
 Two electron energy                   54.64110676
 Virial ratio                           2.00257583

 !MCSCF STATE  1.1 Dipole moment        0.10898088    -0.02436261    -0.01739908
 Dipole moment /Debye                   0.27698362    -0.06191951    -0.04422115

 Results for state 2.1
 =====================

 !MCSCF STATE  2.1 Energy             -77.669521221295
 Nuclear energy                        29.39835725
 Kinetic energy                        77.86262598
 One electron energy                 -161.77440940
 Two electron energy                   54.70653093
 Virial ratio                           1.99751993

 !MCSCF STATE  2.1 Dipole moment       -0.15173894     0.01518613    -0.05306950
 Dipole moment /Debye                  -0.38565666     0.03859677    -0.13488039

 Results for state 3.1
 =====================

 !MCSCF STATE  3.1 Energy             -77.553264194919
 Nuclear energy                        29.39835725
 Kinetic energy                        78.06636538
 One electron energy                 -161.67702013
 Two electron energy                   54.72539869
 Virial ratio                           1.99342737

 !MCSCF STATE  3.1 Dipole moment       -0.00743583    -0.00812196    -0.35219159
 Dipole moment /Debye                  -0.01889877    -0.02064262    -0.89512311

 State-averaged charge density matrix saved on record  2140.2 (density set 1)

 !MCSCF expec         <1.1|DMX|1.1>     0.108980877406 au =     0.276983618398 Debye
 !MCSCF trans         <2.1|DMX|1.1>    -1.085483462656 au =    -2.758843059017 Debye
 !MCSCF expec         <2.1|DMX|2.1>    -0.151738941363 au =    -0.385656658590 Debye
 !MCSCF trans         <3.1|DMX|1.1>     0.105607228524 au =     0.268409219873 Debye
 !MCSCF trans         <3.1|DMX|2.1>    -1.780866110922 au =    -4.526213690197 Debye
 !MCSCF expec         <3.1|DMX|3.1>    -0.007435834511 au =    -0.018898768277 Debye

 !MCSCF expec         <1.1|DMY|1.1>    -0.024362606408 au =    -0.061919513195 Debye
 !MCSCF trans         <2.1|DMY|1.1>     0.168488021308 au =     0.428225785195 Debye
 !MCSCF expec         <2.1|DMY|2.1>     0.015186131740 au =     0.038596768707 Debye
 !MCSCF trans         <3.1|DMY|1.1>    -0.015922297022 au =    -0.040467791664 Debye
 !MCSCF trans         <3.1|DMY|2.1>     0.276361127500 au =     0.702393914431 Debye
 !MCSCF expec         <3.1|DMY|3.1>    -0.008121962019 au =    -0.020642616228 Debye

 !MCSCF expec         <1.1|DMZ|1.1>    -0.017399076646 au =    -0.044221145222 Debye
 !MCSCF trans         <2.1|DMZ|1.1>     0.712424249075 au =     1.810683222965 Debye
 !MCSCF expec         <2.1|DMZ|2.1>    -0.053069503036 au =    -0.134880387526 Debye
 !MCSCF trans         <3.1|DMZ|1.1>     0.036323432517 au =     0.092318909616 Debye
 !MCSCF trans         <3.1|DMZ|2.1>     1.154494368570 au =     2.934239797270 Debye
 !MCSCF expec         <3.1|DMZ|3.1>    -0.352191592125 au =    -0.895123106714 Debye


 NATURAL ORBITALS (state averaged)
 =================================

  Orbital  Occupation    Energy     Coefficients
    1.1     2.00000   -11.26750     2 1s    0.99625
    2.1     2.00000   -11.25458     1 1s   -0.99628
    3.1     2.00000    -0.94818     1 1s    0.28097     1 1s    0.26455     2 1s    0.28635     2 1s    0.26146
    4.1     2.00000    -0.83652     1 1s   -0.26892     1 1s   -0.27801     2 1s    0.26919     2 1s    0.27076
    5.1     2.00000    -0.63227     1 2py   0.29197     2 2py   0.33149
    6.1     2.00000    -0.58351     1 2py  -0.31233     2 2py   0.27267
    7.1     2.00000    -0.42191     1 2px   0.36755
    8.1     1.00000    -0.05783     1 1s   -0.28714     1 2pz  -0.32791     1 2pz  -0.39165     2 2pz   0.43827     2 2pz   0.49758
    9.1     1.00000    -0.19913     1 2pz   0.26219     2 2px   0.31377     2 2pz   0.26578     2 2pz   0.30511
   10.1    -0.00000     0.25237     1 1s   -1.49427     1 2px   0.41094     1 2pz   0.29076     2 1s   -1.30219     2 2px  -0.51387
                                    2 2py   0.28754     3 1s    1.13556     4 1s    0.91434     5 1s    0.82266     6 1s    1.12670
   11.1    -0.00000     0.26293     1 1s    1.31722     1 2px   0.58510     1 2py  -0.26243     1 2pz  -0.50851     2 1s   -1.59788
                                    2 2px   0.49548     2 2pz  -0.33192     3 1s   -0.26100     4 1s   -0.62863     5 1s    0.81419
                                    6 1s    0.39923
   12.1    -0.00000     0.32315     1 1s   -0.92264     1 2px   0.27711     1 2py  -0.70687     2 1s    0.76769     2 2py  -0.91043
                                    3 1s    1.52672     5 1s    0.33975     6 1s   -1.67376
   13.1    -0.00000     0.34374     1 1s    0.45654     1 2px  -0.90018     2 1s   -0.64544     2 2px  -1.09553     2 2py  -0.80663
                                    4 1s   -1.22277     5 1s    2.01492     6 1s   -0.39157
   14.1    -0.00000     0.35130     1 1s   -0.59503     1 2py   0.25497     1 2px   0.63168     1 2py   1.46826     2 1s   -0.44317
                                    2 2py  -1.10084     3 1s   -1.21316     4 1s    2.12447     5 1s    1.31626     6 1s   -0.88320
   15.1    -0.00000     0.68967     1 2px  -0.31554     1 2py  -0.28405     1 2px   0.85895     1 2py   0.70692     2 2px  -0.34165
                                    2 2py  -0.30672     2 2px   0.88677     2 2py   0.76113     4 1s    0.43599     4 1s    0.35401
                                    5 1s   -0.44968     5 1s   -0.36135
   16.1    -0.00000     0.75830     1 1s   -0.33651     1 1s    0.89857     1 2px   0.40440     1 2px  -0.67035     1 2py   0.27407
                                    2 1s   -0.31122     2 1s    0.77639     2 2px  -0.50483     2 2py   0.29153     2 2px   0.89128
                                    2 2py  -0.43607     3 1s   -0.29518     6 1s   -0.37199
   17.1    -0.00000     0.78756     1 2px  -0.53205     1 2py   0.31941     1 2px   0.85436     1 2py  -0.64266     2 1s   -0.25421
                                    2 2px  -0.47276     2 2py   0.30124     2 2px   0.68844     2 2py  -0.63870     3 1s    0.42010
                                    3 1s    0.26564     6 1s   -0.35943
   18.1    -0.00000     0.80206     1 2pz   0.64591     1 2px   0.52669     1 2pz  -0.51713     2 2pz   0.85822     2 2px   0.30171
                                    2 2pz  -0.88404
   19.1    -0.00000     0.85031     1 2pz   0.87648     1 2pz  -1.01840     2 1s   -0.34906     2 2pz  -0.59552     2 2px   0.25766
                                    2 2pz   0.75927
   20.1    -0.00000     0.94151     1 1s   -0.30069     1 1s    0.89429     1 2py   0.62347     1 2px  -0.63915     1 2py  -1.93465
                                    2 1s   -0.27479     2 1s    0.85191     2 2py  -0.61576     2 2px   0.65525     2 2py   1.90528
                                    3 1s    0.56616     4 1s   -0.37984     4 1s   -1.09023     5 1s   -0.36606     5 1s   -1.08454
                                    6 1s    0.58862
   21.1    -0.00000     0.99393     1 1s   -0.61395     1 1s    0.60859     1 2px  -0.57607     1 2px   0.47614     1 2py   0.72927
                                    1 2pz  -0.30669     2 1s   -0.63044     2 1s    0.69186     2 2px   0.55989     2 2px  -0.48748
                                    2 2py  -0.73389     2 2pz   0.34441     3 1s   -0.37060     3 1s   -0.34274     4 1s    0.33251
                                    5 1s    0.34490     6 1s   -0.40372     6 1s   -0.34062
   22.1    -0.00000     1.16867     1 1s    0.63111     1 2px  -0.36321     1 2py   0.32062     1 2px   0.94380     1 2py  -0.46823
                                    2 1s   -0.38385     2 2px  -0.35219     2 2py   0.37223     2 2px   0.97514     2 2py  -0.49322
                                    3 1s   -0.67921     3 1s    0.90178     4 1s   -0.26121     6 1s    0.77277     6 1s   -1.07463
   23.1    -0.00000     1.18955     1 1s   -0.90209     1 1s    1.48866     1 2px  -0.49839     2 1s   -1.07249     2 1s    1.95070
                                    2 2py   0.29040     2 2pz   0.25797     3 1s    0.66470     3 1s   -1.06923     4 1s   -0.58309
                                    5 1s   -0.43983     6 1s    0.57139     6 1s   -1.10464
   24.1    -0.00000     1.21966     1 1s   -1.25204     1 1s    2.86574     1 2py  -0.50537     1 2px   0.85480     1 2py   0.74491
                                    1 2pz  -0.53639     2 1s    1.01100     2 1s   -2.47680     2 2py  -0.48145     2 2px   0.90681
                                    2 2py   0.70681     2 2pz  -0.52521     3 1s   -1.16992     4 1s   -0.35773     4 1s    0.28216
                                    5 1s    0.41435     5 1s   -0.43467     6 1s    0.97671
   25.1    -0.00000     1.28683     1 2py   0.29628     2 1s   -1.06389     2 1s    1.91802     2 2px  -0.31308     2 2py  -0.49877
                                    2 2px   0.30058     2 2py   0.42766     4 1s    0.50103     4 1s   -0.55145     5 1s    0.84304
                                    5 1s   -1.51321     6 1s   -0.25410
   26.1    -0.00000     1.29902     1 1s   -1.27879     1 1s    2.60060     1 2px   0.35578     1 2py   0.52440     1 2py  -0.60624
                                    2 1s    0.85471     2 1s   -1.94452     2 2py  -0.37571     4 1s    0.75198     4 1s   -1.70329
                                    5 1s   -0.25688     5 1s    0.96051
   27.1    -0.00000     1.79815     1 3d0  -0.29137     1 3d1+  0.50626     1 3d2+  0.25308     2 3d0   0.28830     2 3d1+ -0.53289
                                    2 3d2+ -0.26994
   28.1    -0.00000     1.89010     1 1s    0.30646     1 3d0   0.32440     1 3d1+  0.42891     1 3d2+ -0.32974     2 1s    0.31276
                                    2 3d0   0.34077     2 3d1+  0.43498     2 3d2+ -0.32142
   29.1    -0.00000     1.90358     1 3d1- -0.59733     2 3d2+ -0.26063     2 3d1-  0.61227
   30.1    -0.00000     2.10143     1 1s    0.33577     1 2px  -0.26615     1 2py  -0.55803     1 3d2+ -0.32886     1 3d1-  0.57564
                                    2 1s    0.36811     2 2px   0.25934     2 2py   0.55559     2 3d2+ -0.32405     2 3d1-  0.55874
                                    4 1s   -0.40094     5 1s   -0.39894
   31.1    -0.00000     2.25041     1 3d0  -0.32728     1 3d2- -0.25965     1 3d1+  0.53885     1 3d2+  0.30892     2 3d0  -0.29383
                                    2 3d2- -0.27024     2 3d1+  0.51265     2 3d2+  0.32328
   32.1    -0.00000     2.39097     1 2py  -0.47195     1 3d0   0.37928     1 3d2+  0.40566     1 3d1-  0.38300     2 1s   -0.41339
                                    2 2py   0.51760     2 3d0   0.51997     2 3d2+  0.46941     2 3d1-  0.45336     3 1s    0.52946
                                    6 1s    0.67266
   33.1    -0.00000     2.44430     1 1s    0.39551     1 1s   -1.38131     1 2px  -0.42270     1 2pz   0.31447     1 3d0   0.68063
                                    1 3d2+  0.31108     1 3d1-  0.27807     2 1s   -0.38750     2 1s    1.30468     2 2px  -0.43943
                                    2 2pz   0.28932     2 3d0  -0.57144     3 1s    0.61445     4 1s    0.27817     6 1s   -0.46980
   34.1    -0.00000     2.53331     1 2py   0.32335     1 3d2- -0.63095     1 3d1- -0.27223     2 2py   0.38624     2 3d0  -0.29218
                                    2 3d2-  0.76269     2 3d1-  0.27563     3 1s   -0.26613     4 1s    0.61484     5 1s   -0.75801
                                    6 1s    0.28652
   35.1    -0.00000     2.63973     1 1s    0.25798     1 2px  -0.28820     1 2py  -0.51996     1 3d0  -0.31094     1 3d2-  0.79998
                                    2 1s    0.29516     2 2py   0.45210     2 3d0  -0.27694     2 3d2-  0.65828     3 1s    0.26046
                                    4 1s   -0.79391     5 1s   -0.66337
   36.1    -0.00000     2.74592     1 1s   -0.32279     1 1s    1.06112     1 2px   0.68769     1 2pz  -0.26642     1 3d1+ -0.48372
                                    1 3d2+  0.68368     2 1s    0.31940     2 1s   -1.04835     2 2px   0.69553     2 2pz  -0.27442
                                    2 3d1+  0.49999     2 3d2+ -0.66531


 Natural orbital dump (state averaged) at molpro section  2140.2    (Orbital set 2)



 **********************************************************************************************************************************
 DATASETS  * FILE   NREC   LENGTH (MB)   RECORD NAMES
              1      20       31.82       500      610      700      900      950      970     1000      129      960     1100   
                                          VAR    BASINP    GEOM    SYMINP    ZMAT    AOBASIS   BASIS     P2S    ABASIS      S 
                                         1400     1410     1200     1210     1080     1600     1650     1300     1700     1380   
                                           T        V       H0       H01     AOSYM     SMH    MOLCAS    ERIS     OPER     JKOP   

              2       5        5.42       700     1000      520     2100     2140   
                                         GEOM     BASIS   MCVARS     RHF     MCSCF   

 PROGRAMS   *        TOTAL     MULTI    HF-SCF       INT
 CPU TIMES  *         1.23      0.86      0.09      0.18
 REAL TIME  *         1.48 SEC
 DISK USED  *        39.01 MB
 **********************************************************************************************************************************
 Molecular orbitals read from record     2140.2  Type=MCSCF/NATURAL (state averaged)
 Occupation numbers read from record     2140.2  Type=MCSCF/NATURAL (state averaged)
 Orbital energies read from record       2140.2  Type=MCSCF/NATURAL (state averaged)
 Redundancy group numbers read from rec  2140.2  Type=MCSCF/NATURAL (state averaged)

 MULTI/6-31G* energy=    -77.553264194919

           MULTI          HF-SCF
    -77.55326419    -77.86096059
 **********************************************************************************************************************************
 Molpro calculation terminated
