
 Primary working directories    : /scratch.local/johan406.molpro_temp/molpro.jXTErEmP5K
 Secondary working directories  : /scratch.local/johan406.molpro_temp/molpro.jXTErEmP5K
 Wavefunction directory         : /home/goodpast/johan406/wfu/
 Main file repository           : /scratch.local/johan406.molpro_temp/molpro.jXTErEmP5K/

 id        : roweumn

 Nodes     nprocs
 acn06        1

 Using customized tuning parameters: mindgm=1; mindgv=20; mindgc=4; mindgr=1; noblas=0; minvec=7
 default implementation of scratch files=df  


 Variables initialized (934), CPU time= 0.01 sec
                                                                                 !leave this line blank
 
 gprint, orbitals=30
 memory, 125., m
 symmetry, nosym
 nelect=16
 basis=6-31g*
 
 geometry={
 C -0.827 0.068 0.310
 C 0.835 -0.118 -0.371
 H -0.987 1.110 0.001
 H -1.476 -0.676 0.240
 H 1.485 0.626 -0.300
 H 0.996 -1.160 -0.062
 }
 
 hf
 {multi,
 closed 7
 occ 9
 wf,spin=0;STATE,3
 }
 
 Commands  initialized (763), CPU time= 0.01 sec, 617 directives.
 Default parameters read. Elapsed time= 0.06 sec

 Checking input...
 Passed
1


                                         ***  PROGRAM SYSTEM MOLPRO  ***
                                       Copyright, TTI GmbH Stuttgart, 2015
                                    Version 2019.2 linked Oct 25 2019 22:50:27


 **********************************************************************************************************************************
 LABEL *                                                                                 
  64 bit serial version                                                                  DATE: 15-Mar-23          TIME: 16:40:27  
 **********************************************************************************************************************************

 SHA1:             8dbd9ae1082e4ce945b0f27595c9eb2d4aa09004
 **********************************************************************************************************************************


 Variable memory set to  125000000 words,  buffer space 

 SETTING NELECT         =        16.00000000                                  
 SETTING BASIS          =    6-31G*
 ZSYMEL=NOSYM


Geometry recognized as XYZ



 Recomputing integrals since basis changed


 Using spherical harmonics

 Library entry C      S 6-31G                selected for orbital group  1
 Library entry C      P 6-31G                selected for orbital group  1
 Library entry C      D 6-31G*               selected for orbital group  1
 Library entry H      S 6-31G                selected for orbital group  2


 PROGRAM * SEWARD (Integral evaluation for generally contracted gaussian basis sets)     Author: Roland Lindh, 1990

 Geometry written to block  1 of record 700


 Point group  C1  



 ATOMIC COORDINATES

 NR  ATOM    CHARGE       X              Y              Z

   1  C       6.00   -1.562803505    0.128501376    0.585815099
   2  C       6.00    1.577921314   -0.222987683   -0.701088392
   3  H       1.00   -1.865159685    2.097595998    0.001889726
   4  H       1.00   -2.789235760   -1.277454860    0.453534270
   5  H       1.00    2.806243295    1.182968554   -0.566917837
   6  H       1.00    1.882167220   -2.192082304   -0.117163020

 Bond lengths in Bohr (Angstrom)

 1-2  3.412303847  1-3  2.075986929  1-4  1.870386921  2-5  1.871761087  2-6  2.076262999
     ( 1.805713432)     ( 1.098564973)     ( 0.989766134)     ( 0.990493311)     ( 1.098711063)

 Bond angles

  1-2-5  119.97379418   1-2-6   97.26722406   2-1-3   97.21980526   2-1-4  119.96176792

  3-1-4  126.69781721   5-2-6  126.58739425

 NUCLEAR CHARGE:                   16
 NUMBER OF PRIMITIVE AOS:          72
 NUMBER OF SYMMETRY AOS:           70
 NUMBER OF CONTRACTIONS:           36   (   36A   )
 NUMBER OF CORE ORBITALS:           2   (    2A   )
 NUMBER OF VALENCE ORBITALS:       12   (   12A   )


 NUCLEAR REPULSION ENERGY   29.50004523

 Eigenvalues of metric

         1 0.192E-01 0.265E-01 0.485E-01 0.494E-01 0.799E-01 0.223E+00 0.268E+00 0.282E+00


 Contracted 2-electron integrals neglected if value below      1.0D-11
 AO integral compression algorithm  1   Integral accuracy      1.0D-11

     1.311 MB (compressed) written to integral file ( 66.4%)


 NUMBER OF SORTED TWO-ELECTRON INTEGRALS:     222111.     BUFFER LENGTH:  32768
 NUMBER OF SEGMENTS:   1  SEGMENT LENGTH:     222111      RECORD LENGTH: 524288

 Memory used in sort:       0.78 MW

 SORT1 READ      284735. AND WROTE      212369. INTEGRALS IN      1 RECORDS. CPU TIME:     0.00 SEC, REAL TIME:     0.00 SEC
 SORT2 READ      212369. AND WROTE      222111. INTEGRALS IN      5 RECORDS. CPU TIME:     0.02 SEC, REAL TIME:     0.02 SEC

 FILE SIZES:   FILE 1:    31.4 MBYTE,  FILE 4:     4.2 MBYTE,   TOTAL:     35.6 MBYTE

 OPERATOR DM      FOR CENTER  0  COORDINATES:    0.000000    0.000000    0.000000


 **********************************************************************************************************************************
 DATASETS  * FILE   NREC   LENGTH (MB)   RECORD NAMES
              1      19       31.10       500      610      700      900      950      970     1000      129      960     1100   
                                          VAR    BASINP    GEOM    SYMINP    ZMAT    AOBASIS   BASIS     P2S    ABASIS      S 
                                         1400     1410     1200     1210     1080     1600     1650     1300     1700   
                                           T        V       H0       H01     AOSYM     SMH    MOLCAS    ERIS     OPER   

 PROGRAMS   *        TOTAL       INT
 CPU TIMES  *         0.26      0.17
 REAL TIME  *         0.38 SEC
 DISK USED  *        35.97 MB
 **********************************************************************************************************************************


 PROGRAM * RHF-SCF (CLOSED SHELL)       Authors: W. Meyer, H.-J. Werner


 NUMBER OF ELECTRONS:       8+    8-    SPACE SYMMETRY=1    SPIN SYMMETRY: Singlet 
 CONVERGENCE THRESHOLDS:    1.00E-05 (Density)    1.00E-07 (Energy)
 MAX. NUMBER OF ITERATIONS:       60
 INTERPOLATION TYPE:            DIIS
 INTERPOLATION STEPS:              2 (START)      1 (STEP)
 LEVEL SHIFTS:                  0.00 (CLOSED)  0.00 (OPEN) 



 Orbital guess generated from atomic densities. Full valence occupancy:    8

 Molecular orbital dump at record        2100.2

 Initial occupancy:   8

 ITERATION    DDIFF          GRAD             ENERGY        2-EL.EN.            DIPOLE MOMENTS         DIIS   ORB.
    1      0.000D+00      0.000D+00       -77.82363438    109.756589    0.00116    0.00017   -0.00017    0    start
    2      0.000D+00      0.675D-02       -77.84330914    109.333020   -0.00101    0.00013    0.00112    1    diag
    3      0.748D-02      0.216D-02       -77.84665891    109.553848    0.00103    0.00008   -0.00033    2    diag
    4      0.358D-02      0.871D-03       -77.84755292    109.475682   -0.00162    0.00016    0.00150    3    diag
    5      0.164D-02      0.577D-03       -77.84841831    109.496705    0.00366    0.00003   -0.00222    4    diag
    6      0.260D-02      0.226D-03       -77.84853914    109.498117   -0.00791    0.00030    0.00597    5    diag
    7      0.106D-02      0.126D-03       -77.84854814    109.497941    0.00009    0.00012    0.00032    6    diag
    8      0.224D-03      0.222D-04       -77.84854873    109.498402   -0.00039    0.00013    0.00066    7    diag
    9      0.633D-04      0.518D-05       -77.84854877    109.498481   -0.00039    0.00013    0.00065    8    diag
   10      0.154D-04      0.134D-05       -77.84854878    109.498461   -0.00038    0.00013    0.00065    9    orth
   11      0.352D-05      0.301D-06       -77.84854878    109.498463   -0.00038    0.00013    0.00065    0    orth

 Final occupancy:   8

 !RHF STATE  1.1 Energy               -77.848548776045
 Nuclear energy                        29.50004523
 One-electron energy                 -162.09782564
 Two-electron energy                   54.74923163
 Virial quotient                       -1.00261377
 !RHF STATE  1.1 Dipole moment         -0.00038370     0.00012631     0.00065090
 Dipole moment /Debye                  -0.00097520     0.00032102     0.00165431

 ELECTRON ORBITALS
 =================

  Orbital  Occupation    Energy     Coefficients
    1.1     2.00000   -11.27046     1 1s   -0.70609     2 1s   -0.70283
    2.1     2.00000   -11.27017     1 1s   -0.70294     2 1s    0.70619
    3.1     2.00000    -0.95241     1 1s    0.28220     1 1s    0.26323     2 1s    0.28167     2 1s    0.26288
    4.1     2.00000    -0.84032     1 1s   -0.26835     2 1s    0.26880
    5.1     2.00000    -0.63304     1 2py   0.31503     2 2py   0.31241
    6.1     2.00000    -0.59178     1 2py  -0.27925     2 2py   0.28205
    7.1     2.00000    -0.43380     1 2px   0.33507     2 2px  -0.33509
    8.1     2.00000    -0.30770     1 2pz   0.30811     1 2pz   0.32899     2 2pz   0.30820     2 2pz   0.32906
    9.1     0.00000     0.07053     1 2pz   0.35503     1 2pz   0.49426     2 2pz  -0.35489     2 2pz  -0.49402
   10.1     0.00000     0.25229     1 1s   -1.38213     1 2px   0.42883     1 2py  -0.26479     1 2pz   0.27037     2 1s   -1.38599
                                    2 2px  -0.42707     2 2py   0.26357     2 2pz  -0.27210     3 1s    1.11743     4 1s    0.85714
                                    5 1s    0.85925     6 1s    1.11754
   11.1     0.00000     0.27173     1 1s    1.44185     1 2px   0.55155     1 2py  -0.31596     1 2pz  -0.40853     2 1s   -1.43654
                                    2 2px   0.55247     2 2py  -0.31767     2 2pz  -0.40816     4 1s   -0.78718     5 1s    0.78477
   12.1     0.00000     0.32679     1 1s   -1.03096     1 2px   0.35006     1 2py  -0.68955     2 1s    1.03273     2 2px   0.35195
                                    2 2py  -0.68717     3 1s    1.56496     6 1s   -1.56347
   13.1     0.00000     0.34697     1 1s    0.31337     1 2px  -1.01171     1 2py  -0.66177     1 2pz   0.25971     2 1s   -0.32077
                                    2 2px  -1.01840     2 2py  -0.67911     2 2pz   0.25936     3 1s    0.51838     4 1s   -1.67168
                                    5 1s    1.69574     6 1s   -0.53179
   14.1     0.00000     0.35115     1 1s   -0.61144     1 2px   0.49256     1 2py   1.32262     2 1s   -0.60173     2 2px  -0.47753
                                    2 2py  -1.31260     3 1s   -1.04879     4 1s    1.85055     5 1s    1.82229     6 1s   -1.04348
   15.1     0.00000     0.68911     1 2px  -0.37632     1 2px   0.98422     1 2py   0.71045     2 2px  -0.37498     2 2px   0.98040
                                    2 2py   0.70856     4 1s    0.44545     4 1s    0.42705     5 1s   -0.44464     5 1s   -0.42225
   16.1     0.00000     0.75073     1 1s    0.34676     1 1s   -0.84126     1 2px  -0.43600     1 2py   0.28544     1 2px   0.75141
                                    1 2py  -0.38682     2 1s    0.34675     2 1s   -0.84044     2 2px   0.43644     2 2py  -0.28336
                                    2 2px  -0.75600     2 2py   0.38218     3 1s    0.34670     6 1s    0.34525
   17.1     0.00000     0.80394     1 2px   0.33043     1 2pz   0.55145     1 2px  -0.34046     1 2py   0.53041     1 2pz  -0.51642
                                    2 2px   0.33051     2 2pz   0.55078     2 2px  -0.34125     2 2py   0.53225     2 2pz  -0.51593
                                    3 1s   -0.28942     6 1s    0.29041
   18.1     0.00000     0.81007     1 2px   0.38140     1 2py  -0.32020     1 2pz  -0.55548     1 2px  -0.66429     1 2py   0.59224
                                    1 2pz   0.49402     2 2px   0.38204     2 2py  -0.32106     2 2pz  -0.55537     2 2px  -0.66543
                                    2 2py   0.59426     2 2pz   0.49353
   19.1     0.00000     0.85327     1 1s   -0.32212     1 2pz   0.75595     1 2pz  -0.87921     2 1s   -0.32149     2 2pz  -0.75649
                                    2 2pz   0.87962
   20.1     0.00000     0.93719     1 1s    0.28408     1 1s   -0.96184     1 2py  -0.60353     1 2px   0.72354     1 2py   1.89561
                                    2 1s    0.28344     2 1s   -0.95838     2 2py   0.60299     2 2px  -0.72554     2 2py  -1.89222
                                    3 1s   -0.55143     4 1s    0.38097     4 1s    1.14459     5 1s    0.38088     5 1s    1.14183
                                    6 1s   -0.54905
   21.1     0.00000     1.00501     1 1s   -0.57593     1 1s    0.51385     1 2px  -0.59912     1 2px   0.56769     1 2py   0.72013
                                    1 2pz  -0.30622     2 1s   -0.57557     2 1s    0.51240     2 2px   0.59920     2 2px  -0.56558
                                    2 2py  -0.71831     2 2pz   0.30518     3 1s   -0.38493     3 1s   -0.30753     4 1s    0.41281
                                    5 1s    0.41136     6 1s   -0.38412     6 1s   -0.30670
   22.1     0.00000     1.17051     1 1s    0.26170     1 2px  -0.32969     1 2py   0.34530     1 2px   0.91006     1 2py  -0.45835
                                    2 1s   -0.26096     2 2px  -0.32990     2 2py   0.34682     2 2px   0.90987     2 2py  -0.46051
                                    3 1s   -0.74686     3 1s    1.03962     4 1s    0.28908     5 1s   -0.28784     6 1s    0.74896
                                    6 1s   -1.04262
   23.1     0.00000     1.18933     1 1s   -1.02657     1 1s    1.79608     1 2py  -0.25364     1 2px  -0.34433     2 1s   -1.02729
                                    2 1s    1.79814     2 2py   0.25385     2 2px   0.34115     3 1s    0.60589     3 1s   -1.09557
                                    4 1s   -0.56492     5 1s   -0.56188     6 1s    0.60417     6 1s   -1.09476
   24.1     0.00000     1.22412     1 1s   -1.18130     1 1s    2.81083     1 2py  -0.46723     1 2px   1.00362     1 2py   0.73601
                                    1 2pz  -0.59092     2 1s    1.17785     2 1s   -2.80584     2 2px  -0.25020     2 2py  -0.46858
                                    2 2px   1.00369     2 2py   0.73677     2 2pz  -0.59068     3 1s   -1.04466     4 1s   -0.36601
                                    4 1s    0.34917     5 1s    0.36950     5 1s   -0.35352     6 1s    1.04384
   25.1     0.00000     1.30645     1 1s   -0.55428     1 1s    0.79643     1 2py   0.40977     1 2px  -0.25154     1 2py  -0.28860
                                    2 1s   -0.73149     2 1s    1.17601     2 2py  -0.47064     2 2px   0.26904     2 2py   0.36674
                                    3 1s   -0.26415     4 1s    0.67515     4 1s   -0.97637     5 1s    0.75989     5 1s   -1.19632
                                    6 1s   -0.28565
   26.1     0.00000     1.31199     1 1s   -1.15318     1 1s    2.43366     1 2px   0.32071     1 2py   0.44069     1 2py  -0.54702
                                    1 2pz  -0.25070     2 1s    1.05348     2 1s   -2.28027     2 2px   0.28678     2 2py   0.37127
                                    2 2py  -0.49443     4 1s    0.60857     4 1s   -1.49887     5 1s   -0.49614     5 1s    1.32836
   27.1     0.00000     1.79730     1 3d0  -0.31396     1 3d1+  0.50716     2 3d0   0.31345     2 3d1+ -0.50679
   28.1     0.00000     1.89171     1 1s    0.30976     1 3d0   0.31885     1 3d1+  0.43255     1 3d2+ -0.33449     2 1s    0.30933
                                    2 3d0   0.31876     2 3d1+  0.43349     2 3d2+ -0.33340
   29.1     0.00000     1.90978     1 3d2+ -0.26564     1 3d1-  0.59205     2 3d2+  0.26609     2 3d1- -0.59164
   30.1     0.00000     2.09510     1 1s    0.39663     1 2px  -0.26829     1 2py  -0.51849     1 3d0  -0.27121     1 3d2+ -0.34079
                                    1 3d1-  0.53393     2 1s    0.39704     2 2px   0.26785     2 2py   0.51763     2 3d0  -0.27201
                                    2 3d2+ -0.34077     2 3d1-  0.53498     4 1s   -0.40514     5 1s   -0.40420
   31.1     0.00000     2.26085     1 3d0  -0.38738     1 3d2- -0.28079     1 3d1+  0.52041     2 3d0  -0.38555     2 3d2- -0.28139
                                    2 3d1+  0.52082
   32.1     0.00000     2.40258     1 2py  -0.59007     1 3d0   0.33703     1 3d2+  0.48152     1 3d1-  0.47901     2 2py   0.58854
                                    2 3d0   0.34399     2 3d2+  0.48327     2 3d1-  0.47968     3 1s    0.63751     6 1s    0.64062
   33.1     0.00000     2.45122     1 1s   -0.39263     1 1s    1.33870     1 2px   0.49699     1 2pz  -0.32179     1 3d0  -0.58918
                                    1 3d2+ -0.26822     1 3d1- -0.28922     2 1s    0.39242     2 1s   -1.33921     2 2px   0.49486
                                    2 2pz  -0.32046     2 3d0   0.58910     2 3d2+  0.26304     2 3d1-  0.28468     3 1s   -0.58231
                                    6 1s    0.57595
   34.1     0.00000     2.54383     1 2py   0.36160     1 3d0   0.31875     1 3d2- -0.68992     2 2py   0.36460     2 3d0  -0.31769
                                    2 3d2-  0.69177     2 3d1-  0.25128     4 1s    0.73122     5 1s   -0.73185
   35.1     0.00000     2.65106     1 1s    0.32701     1 2px  -0.27315     1 2py  -0.43468     1 3d0  -0.34256     1 3d2-  0.73018
                                    2 1s    0.31356     2 2px   0.27897     2 2py   0.43353     2 3d0  -0.33778     2 3d2-  0.72941
                                    4 1s   -0.76290     5 1s   -0.75938
   36.1     0.00000     2.74588     1 1s   -0.32520     1 1s    1.05348     1 2px   0.69166     1 2pz  -0.27264     1 3d1+ -0.48947
                                    1 3d2+  0.67253     2 1s    0.32466     2 1s   -1.05485     2 2px   0.69035     2 2pz  -0.27260
                                    2 3d1+  0.48930     2 3d2+ -0.67247


 HOMO      8.1    -0.307702 =      -8.3730eV
 LUMO      9.1     0.070526 =       1.9191eV
 LUMO-HOMO         0.378228 =      10.2921eV


 **********************************************************************************************************************************
 DATASETS  * FILE   NREC   LENGTH (MB)   RECORD NAMES
              1      19       31.10       500      610      700      900      950      970     1000      129      960     1100   
                                          VAR    BASINP    GEOM    SYMINP    ZMAT    AOBASIS   BASIS     P2S    ABASIS      S 
                                         1400     1410     1200     1210     1080     1600     1650     1300     1700   
                                           T        V       H0       H01     AOSYM     SMH    MOLCAS    ERIS     OPER   

              2       4        2.86       700     1000      520     2100   
                                         GEOM     BASIS   MCVARS     RHF  

 PROGRAMS   *        TOTAL    HF-SCF       INT
 CPU TIMES  *         0.35      0.09      0.17
 REAL TIME  *         0.56 SEC
 DISK USED  *        35.97 MB
 **********************************************************************************************************************************


 PROGRAM * MULTI (Direct Multiconfiguration SCF)       Authors: P.J. Knowles, H.-J. Werner (1984)


 Number of closed-shell orbitals:   7 (   7 )
 Number of active  orbitals:        2 (   2 )
 Number of external orbitals:      27 (  27 )

 State symmetry 1

 Number of electrons:     2    Spin symmetry=Singlet   Space symmetry=1
 Number of states:        3
 Number of CSFs:          3   (4 determinants, 4 intermediate states)

 Molecular orbitals read from record     2100.2  Type=RHF/CANONICAL (state 1.1)

 Wavefunction dump at record             2140.2

 Convergence thresholds  0.10E-01 (gradient)  0.10E-05 (energy)  0.10E-02 (step length)

 Weight factors for state symmetry  1:    0.33333   0.33333   0.33333

 Number of orbital rotations:      257   (    14 Core/Active    189 Core/Virtual   0 Active/Active     54 Active/Virtual)
 Total number of variables:        269

 Micro-Iterations solved by the two-step solver

 ITER. MIC  NCI  NEG     ENERGY(VAR)     ENERGY(PROJ)   ENERGY CHANGE     GRAD(0)  GRAD(ORB)   GRAD(CI)     STEP       TIME

   1   19    9    0     -77.67534639     -77.68505148   -0.00970509    0.08575938 0.00006186 0.00000000  0.25D+00      0.37
   2   12    6    0     -77.68635825     -77.68965658   -0.00329833    0.04848713 0.00005661 0.00000000  0.12D+00      0.54
   3    8    6    0     -77.68985242     -77.68992776   -0.00007535    0.00962801 0.00000183 0.00000000  0.14D-01      0.64
   4   10    6    0     -77.68992820     -77.68992821   -0.00000001    0.00011025 0.00000000 0.00000000  0.21D-03      0.75
   5    3    3    0     -77.68992821     -77.68992821    0.00000000    0.00000002 0.00000000 0.00000000  0.30D-07      0.80

 ** WVFN ****  CONVERGENCE REACHED, FINAL GRADIENT:  0.39D-12



 Results for state 1.1
 =====================

 !MCSCF STATE  1.1 Energy             -77.853894476471
 Nuclear energy                        29.50004523
 Kinetic energy                        77.70955186
 One electron energy                 -162.12040131
 Two electron energy                   54.76646160
 Virial ratio                           2.00185746

 !MCSCF STATE  1.1 Dipole moment       -0.12019824     0.03053591     0.01308331
 Dipole moment /Debye                  -0.30549344     0.07760946     0.03325227

 Results for state 2.1
 =====================

 !MCSCF STATE  2.1 Energy             -77.673854719394
 Nuclear energy                        29.50004523
 Kinetic energy                        77.91141504
 One electron energy                 -161.94026120
 Two electron energy                   54.76636124
 Virial ratio                           1.99695089

 !MCSCF STATE  2.1 Dipole moment        0.13417554    -0.01059434     0.06534811
 Dipole moment /Debye                   0.34101788    -0.02692636     0.16608746

 Results for state 3.1
 =====================

 !MCSCF STATE  3.1 Energy             -77.542035432427
 Nuclear energy                        29.50004523
 Kinetic energy                        78.12359671
 One electron energy                 -161.80576966
 Two electron energy                   54.76368899
 Virial ratio                           1.99255588

 !MCSCF STATE  3.1 Dipole moment       -0.01426609     0.01228341     0.38572842
 Dipole moment /Debye                  -0.03625842     0.03121927     0.98035963

 State-averaged charge density matrix saved on record  2140.2 (density set 1)

 !MCSCF expec         <1.1|DMX|1.1>    -0.120198239174 au =    -0.305493440720 Debye
 !MCSCF trans         <2.1|DMX|1.1>     1.007842882043 au =     2.561513312143 Debye
 !MCSCF expec         <2.1|DMX|2.1>     0.134175543317 au =     0.341017877382 Debye
 !MCSCF trans         <3.1|DMX|1.1>    -0.094039000196 au =    -0.239007642119 Debye
 !MCSCF trans         <3.1|DMX|2.1>     1.503890323714 au =     3.822257568945 Debye
 !MCSCF expec         <3.1|DMX|3.1>    -0.014266094118 au =    -0.036258419490 Debye

 !MCSCF expec         <1.1|DMY|1.1>     0.030535910232 au =     0.077609458727 Debye
 !MCSCF trans         <2.1|DMY|1.1>    -0.160124262325 au =    -0.406968622639 Debye
 !MCSCF expec         <2.1|DMY|2.1>    -0.010594340745 au =    -0.026926364550 Debye
 !MCSCF trans         <3.1|DMY|1.1>     0.015231842141 au =     0.038712945349 Debye
 !MCSCF trans         <3.1|DMY|2.1>    -0.238986368848 au =    -0.607402975337 Debye
 !MCSCF expec         <3.1|DMY|3.1>     0.012283409335 au =     0.031219267497 Debye

 !MCSCF expec         <1.1|DMZ|1.1>     0.013083307438 au =     0.033252272518 Debye
 !MCSCF trans         <2.1|DMZ|1.1>    -0.678175056679 au =    -1.723636160554 Debye
 !MCSCF expec         <2.1|DMZ|2.1>     0.065348113770 au =     0.166087458996 Debye
 !MCSCF trans         <3.1|DMZ|1.1>    -0.027584519785 au =    -0.070108263794 Debye
 !MCSCF trans         <3.1|DMZ|2.1>    -0.996050482394 au =    -2.531541985042 Debye
 !MCSCF expec         <3.1|DMZ|3.1>     0.385728418827 au =     0.980359634724 Debye


 NATURAL ORBITALS (state averaged)
 =================================

  Orbital  Occupation    Energy     Coefficients
    1.1     2.00000   -11.26702     1 1s   -0.99625
    2.1     2.00000   -11.25055     2 1s    0.99628
    3.1     2.00000    -0.95123     1 1s    0.28873     1 1s    0.26215     2 1s    0.27642     2 1s    0.25900
    4.1     2.00000    -0.83753     1 1s   -0.26706     1 1s   -0.26636     2 1s    0.27206     2 1s    0.27982
    5.1     2.00000    -0.63615     1 2py   0.33966     2 2py   0.27621
    6.1     2.00000    -0.59180     1 2py  -0.25319     2 2py   0.31847
    7.1     2.00000    -0.40218     2 2px  -0.34795
    8.1     1.00000    -0.20707     1 2px   0.33556     1 2px   0.25582     1 2pz   0.28429
    9.1     1.00000    -0.06347     1 2pz   0.44503     1 2pz   0.48370     2 1s    0.27251     2 2pz  -0.33336     2 2pz  -0.38586
   10.1    -0.00000     0.24877     1 1s   -1.32113     1 2px   0.46329     1 2py  -0.32114     2 1s   -1.43128     2 2px  -0.38117
                                    2 2py   0.26946     2 2pz  -0.27538     3 1s    1.15525     4 1s    0.78944     5 1s    0.84525
                                    6 1s    1.12672
   11.1    -0.00000     0.26194     1 1s    1.53128     1 2px   0.51612     1 2py  -0.26104     1 2pz  -0.30711     2 1s   -1.30880
                                    2 2px   0.58692     2 2py  -0.27664     2 2pz  -0.50451     3 1s   -0.32148     4 1s   -0.79656
                                    5 1s    0.63883
   12.1    -0.00000     0.32386     1 1s   -0.83642     1 2py  -0.90227     2 1s    1.03661     2 2px   0.26290     2 2py  -0.68060
                                    3 1s    1.68884     4 1s   -0.28445     6 1s   -1.53939
   13.1    -0.00000     0.34450     1 1s    0.72531     1 2px  -1.14330     1 2py  -0.96453     2 1s   -0.34430     2 2px  -0.81715
                                    3 1s    0.55617     4 1s   -2.23351     5 1s    1.00936
   14.1    -0.00000     0.35155     1 1s   -0.49052     1 2py   0.96739     2 1s   -0.72894     2 2py  -0.25469     2 2px  -0.77799
                                    2 2py  -1.48918     3 1s   -0.72751     4 1s    1.15226     5 1s    2.33683     6 1s   -1.18552
   15.1    -0.00000     0.68734     1 2px  -0.38578     1 2py  -0.26776     1 2px   0.99458     1 2py   0.74710     2 2px  -0.34911
                                    2 2px   0.94624     2 2py   0.68198     4 1s    0.45631     4 1s    0.41710     5 1s   -0.43708
                                    5 1s   -0.39425
   16.1    -0.00000     0.75122     1 1s    0.31837     1 1s   -0.74418     1 2px  -0.46188     1 2py   0.31647     1 2px   0.80822
                                    1 2py  -0.46674     2 1s    0.33967     2 1s   -0.85794     2 2px   0.39807     2 2px  -0.66465
                                    2 2py   0.31226     3 1s    0.37885     6 1s    0.32290
   17.1    -0.00000     0.79886     1 2pz   0.79704     1 2py   0.33182     1 2pz  -0.79997     2 2pz   0.60224     2 2pz  -0.52816
   18.1    -0.00000     0.80416     1 1s   -0.34192     1 2px   0.39977     1 2py  -0.34341     1 2pz  -0.37783     1 2px  -0.63986
                                    1 2py   0.71075     1 2pz   0.44398     2 2px   0.53124     2 2py  -0.38120     2 2px  -0.87635
                                    2 2py   0.72199     3 1s   -0.29836     3 1s   -0.27707     6 1s    0.38674     6 1s    0.27331
   19.1    -0.00000     0.85020     1 1s   -0.39114     1 2pz   0.57367     1 2pz  -0.73871     2 2pz  -0.88958     2 2pz   1.03330
   20.1    -0.00000     0.93846     1 1s    0.28869     1 1s   -0.95335     1 2py  -0.59357     1 2px   0.71234     1 2py   1.85091
                                    2 1s    0.32384     2 1s   -1.00846     2 2py   0.61182     2 2px  -0.68904     2 2py  -1.90009
                                    3 1s   -0.55295     4 1s    0.37662     4 1s    1.12789     5 1s    0.39531     5 1s    1.13840
                                    6 1s   -0.53430
   21.1    -0.00000     0.99911     1 1s   -0.60539     1 1s    0.59176     1 2px  -0.58917     1 2px   0.59465     1 2py   0.78143
                                    1 2pz  -0.32467     2 1s   -0.57386     2 1s    0.46900     2 2px   0.60276     2 2px  -0.56802
                                    2 2py  -0.77034     2 2pz   0.27723     3 1s   -0.39649     3 1s   -0.34842     4 1s    0.43211
                                    5 1s    0.41667     6 1s   -0.35676     6 1s   -0.34423
   22.1    -0.00000     1.16405     1 2px  -0.32986     1 2py   0.37967     1 2px   0.96252     1 2py  -0.47580     2 1s   -0.56374
                                    2 2px  -0.34069     2 2py   0.31755     2 2px   0.91984     2 2py  -0.44596     3 1s   -0.79695
                                    3 1s    1.11982     4 1s    0.28390     6 1s    0.68285     6 1s   -0.89867
   23.1    -0.00000     1.18514     1 1s   -1.10071     1 1s    2.03905     1 2py  -0.27682     1 2pz  -0.27662     2 1s   -0.90088
                                    2 1s    1.49130     2 2px   0.53246     3 1s    0.54121     3 1s   -1.08421     4 1s   -0.47589
                                    5 1s   -0.62686     6 1s    0.67434     6 1s   -1.07227
   24.1    -0.00000     1.21755     1 1s   -1.06447     1 1s    2.61394     1 2py  -0.45419     1 2px   0.97782     1 2py   0.71738
                                    1 2pz  -0.56996     2 1s    1.31106     2 1s   -3.00875     2 2py  -0.49404     2 2px   0.93691
                                    2 2py   0.77038     2 2pz  -0.58166     3 1s   -0.96940     4 1s   -0.36717     4 1s    0.38260
                                    5 1s    0.33181     5 1s   -0.25350     6 1s    1.18234
   25.1    -0.00000     1.30422     1 1s   -1.12518     1 1s    2.04907     1 2px   0.35184     1 2py   0.54521     1 2px  -0.32675
                                    1 2py  -0.50214     3 1s   -0.26809     4 1s    0.89023     4 1s   -1.64073     5 1s    0.38375
                                    5 1s   -0.31321
   26.1    -0.00000     1.31563     1 1s   -0.65712     1 1s    1.56720     1 2py  -0.31752     2 1s    1.24488     2 1s   -2.46493
                                    2 2px   0.38319     2 2py   0.57614     2 2px  -0.27286     2 2py  -0.63364     4 1s   -0.76222
                                    5 1s   -0.83424     5 1s    1.76859     6 1s    0.25332
   27.1    -0.00000     1.79365     1 3d0  -0.31253     1 3d1+  0.52060     2 3d0   0.31283     2 3d1+ -0.49113
   28.1    -0.00000     1.88648     1 1s    0.30827     1 3d0   0.32397     1 3d1+  0.43649     1 3d2+ -0.33598     2 1s    0.29916
                                    2 3d0   0.30727     2 3d1+  0.42921     2 3d2+ -0.33863
   29.1    -0.00000     1.90615     1 3d2+ -0.28405     1 3d1-  0.60255     2 3d1- -0.57958
   30.1    -0.00000     2.09320     1 1s    0.41738     1 2px  -0.26288     1 2py  -0.51436     1 3d0  -0.28007     1 3d2+ -0.33853
                                    1 3d1-  0.51783     2 1s    0.37406     2 2px   0.27297     2 2py   0.51565     2 3d0  -0.25783
                                    2 3d2+ -0.34731     2 3d1-  0.54758     4 1s   -0.40548     5 1s   -0.40543
   31.1    -0.00000     2.25268     1 3d0  -0.37083     1 3d2- -0.29145     1 3d1+  0.50318     2 3d0  -0.39915     2 3d2- -0.27571
                                    2 3d1+  0.53537
   32.1    -0.00000     2.39768     1 1s   -0.38915     1 2py  -0.62705     1 3d0   0.42333     1 3d2+  0.51807     1 3d1-  0.53057
                                    2 2py   0.54674     2 3d0   0.25277     2 3d2+  0.42461     2 3d1-  0.42309     3 1s    0.72756
                                    6 1s    0.52991
   33.1    -0.00000     2.45014     1 1s   -0.38341     1 1s    1.28355     1 2px   0.49137     1 2pz  -0.29781     1 3d0  -0.51788
                                    2 1s    0.39695     2 1s   -1.36066     2 2px   0.49157     2 2py   0.29272     2 2pz  -0.33639
                                    2 3d0   0.63506     2 3d1+  0.25277     2 3d2+  0.34411     2 3d1-  0.35683     3 1s   -0.47487
                                    6 1s    0.67192
   34.1    -0.00000     2.53832     1 1s   -0.29617     1 2py   0.37876     1 3d0   0.37225     1 3d2- -0.74819     2 2py   0.33113
                                    2 3d0  -0.28593     2 3d2-  0.61855     4 1s    0.80778     5 1s   -0.65901
   35.1    -0.00000     2.64776     1 1s    0.33994     1 2py  -0.39628     1 3d0  -0.31968     1 3d2-  0.65258     2 1s    0.30002
                                    2 2px   0.31319     2 2py   0.46625     2 3d0  -0.36307     2 3d2-  0.79683     4 1s   -0.68993
                                    5 1s   -0.82973
   36.1    -0.00000     2.73841     1 1s   -0.32862     1 1s    1.05294     1 2px   0.70111     1 2pz  -0.27894     1 3d1+ -0.49984
                                    1 3d2+  0.66067     2 1s    0.33113     2 1s   -1.07262     2 2px   0.68788     2 2pz  -0.27006
                                    2 3d1+  0.48125     2 3d2+ -0.68220


 Natural orbital dump (state averaged) at molpro section  2140.2    (Orbital set 2)



 **********************************************************************************************************************************
 DATASETS  * FILE   NREC   LENGTH (MB)   RECORD NAMES
              1      20       31.82       500      610      700      900      950      970     1000      129      960     1100   
                                          VAR    BASINP    GEOM    SYMINP    ZMAT    AOBASIS   BASIS     P2S    ABASIS      S 
                                         1400     1410     1200     1210     1080     1600     1650     1300     1700     1380   
                                           T        V       H0       H01     AOSYM     SMH    MOLCAS    ERIS     OPER     JKOP   

              2       5        5.42       700     1000      520     2100     2140   
                                         GEOM     BASIS   MCVARS     RHF     MCSCF   

 PROGRAMS   *        TOTAL     MULTI    HF-SCF       INT
 CPU TIMES  *         1.20      0.85      0.09      0.17
 REAL TIME  *         1.49 SEC
 DISK USED  *        39.01 MB
 **********************************************************************************************************************************
 Molecular orbitals read from record     2140.2  Type=MCSCF/NATURAL (state averaged)
 Occupation numbers read from record     2140.2  Type=MCSCF/NATURAL (state averaged)
 Orbital energies read from record       2140.2  Type=MCSCF/NATURAL (state averaged)
 Redundancy group numbers read from rec  2140.2  Type=MCSCF/NATURAL (state averaged)

 MULTI/6-31G* energy=    -77.542035432427

           MULTI          HF-SCF
    -77.54203543    -77.84854878
 **********************************************************************************************************************************
 Molpro calculation terminated
