
 Primary working directories    : /scratch.local/johan406.molpro_temp/molpro.sEceksllDn
 Secondary working directories  : /scratch.local/johan406.molpro_temp/molpro.sEceksllDn
 Wavefunction directory         : /home/goodpast/johan406/wfu/
 Main file repository           : /scratch.local/johan406.molpro_temp/molpro.sEceksllDn/

 id        : roweumn

 Nodes     nprocs
 acn06        1

 Using customized tuning parameters: mindgm=1; mindgv=20; mindgc=4; mindgr=1; noblas=0; minvec=7
 default implementation of scratch files=df  


 Variables initialized (934), CPU time= 0.00 sec
                                                                                 !leave this line blank
 
 gprint, orbitals=30
 memory, 125., m
 symmetry, nosym
 nelect=16
 basis=6-31g*
 
 geometry={
 C -0.828 0.042 0.313
 C 0.837 -0.092 -0.373
 H -0.842 1.117 -0.063
 H -1.465 -0.611 0.267
 H 1.474 0.562 -0.327
 H 0.851 -1.167 0.002
 }
 
 hf
 {multi,
 closed 7
 occ 9
 wf,spin=0;STATE,3
 }
 
 Commands  initialized (763), CPU time= 0.01 sec, 617 directives.
 Default parameters read. Elapsed time= 0.06 sec

 Checking input...
 Passed
1


                                         ***  PROGRAM SYSTEM MOLPRO  ***
                                       Copyright, TTI GmbH Stuttgart, 2015
                                    Version 2019.2 linked Oct 25 2019 22:50:27


 **********************************************************************************************************************************
 LABEL *                                                                                 
  64 bit serial version                                                                  DATE: 15-Mar-23          TIME: 16:41:45  
 **********************************************************************************************************************************

 SHA1:             8dbd9ae1082e4ce945b0f27595c9eb2d4aa09004
 **********************************************************************************************************************************


 Variable memory set to  125000000 words,  buffer space 

 SETTING NELECT         =        16.00000000                                  
 SETTING BASIS          =    6-31G*
 ZSYMEL=NOSYM


Geometry recognized as XYZ



 Recomputing integrals since basis changed


 Using spherical harmonics

 Library entry C      S 6-31G                selected for orbital group  1
 Library entry C      P 6-31G                selected for orbital group  1
 Library entry C      D 6-31G*               selected for orbital group  1
 Library entry H      S 6-31G                selected for orbital group  2


 PROGRAM * SEWARD (Integral evaluation for generally contracted gaussian basis sets)     Author: Roland Lindh, 1990

 Geometry written to block  1 of record 700


 Point group  C1  



 ATOMIC COORDINATES

 NR  ATOM    CHARGE       X              Y              Z

   1  C       6.00   -1.564693231    0.079368497    0.591484277
   2  C       6.00    1.581700766   -0.173854803   -0.704867844
   3  H       1.00   -1.591149397    2.110824081   -0.119052746
   4  H       1.00   -2.768448772   -1.154622662    0.504556875
   5  H       1.00    2.785456308    1.062026082   -0.617940443
   6  H       1.00    1.608156932   -2.205310387    0.003779452

 Bond lengths in Bohr (Angstrom)

 1-2  3.412395940  1-3  2.152295189  1-4  1.726070091  2-5  1.727421587  2-6  2.151672073
     ( 1.805762166)     ( 1.138945565)     ( 0.913396956)     ( 0.914112138)     ( 1.138615826)

 Bond angles

  1-2-5  124.77268664   1-2-6   87.49426756   2-1-3   87.47586406   2-1-4  124.80950994

  3-1-4  130.50971220   5-2-6  130.56676775

 NUCLEAR CHARGE:                   16
 NUMBER OF PRIMITIVE AOS:          72
 NUMBER OF SYMMETRY AOS:           70
 NUMBER OF CONTRACTIONS:           36   (   36A   )
 NUMBER OF CORE ORBITALS:           2   (    2A   )
 NUMBER OF VALENCE ORBITALS:       12   (   12A   )


 NUCLEAR REPULSION ENERGY   30.06683177

 Eigenvalues of metric

         1 0.193E-01 0.193E-01 0.348E-01 0.600E-01 0.828E-01 0.195E+00 0.220E+00 0.284E+00


 Contracted 2-electron integrals neglected if value below      1.0D-11
 AO integral compression algorithm  1   Integral accuracy      1.0D-11

     1.311 MB (compressed) written to integral file ( 66.6%)


 NUMBER OF SORTED TWO-ELECTRON INTEGRALS:     222111.     BUFFER LENGTH:  32768
 NUMBER OF SEGMENTS:   1  SEGMENT LENGTH:     222111      RECORD LENGTH: 524288

 Memory used in sort:       0.78 MW

 SORT1 READ      284735. AND WROTE      212368. INTEGRALS IN      1 RECORDS. CPU TIME:     0.00 SEC, REAL TIME:     0.00 SEC
 SORT2 READ      212368. AND WROTE      222111. INTEGRALS IN      5 RECORDS. CPU TIME:     0.02 SEC, REAL TIME:     0.02 SEC

 FILE SIZES:   FILE 1:    31.4 MBYTE,  FILE 4:     4.2 MBYTE,   TOTAL:     35.6 MBYTE

 OPERATOR DM      FOR CENTER  0  COORDINATES:    0.000000    0.000000    0.000000


 **********************************************************************************************************************************
 DATASETS  * FILE   NREC   LENGTH (MB)   RECORD NAMES
              1      19       31.10       500      610      700      900      950      970     1000      129      960     1100   
                                          VAR    BASINP    GEOM    SYMINP    ZMAT    AOBASIS   BASIS     P2S    ABASIS      S 
                                         1400     1410     1200     1210     1080     1600     1650     1300     1700   
                                           T        V       H0       H01     AOSYM     SMH    MOLCAS    ERIS     OPER   

 PROGRAMS   *        TOTAL       INT
 CPU TIMES  *         0.26      0.16
 REAL TIME  *         0.46 SEC
 DISK USED  *        35.97 MB
 **********************************************************************************************************************************


 PROGRAM * RHF-SCF (CLOSED SHELL)       Authors: W. Meyer, H.-J. Werner


 NUMBER OF ELECTRONS:       8+    8-    SPACE SYMMETRY=1    SPIN SYMMETRY: Singlet 
 CONVERGENCE THRESHOLDS:    1.00E-05 (Density)    1.00E-07 (Energy)
 MAX. NUMBER OF ITERATIONS:       60
 INTERPOLATION TYPE:            DIIS
 INTERPOLATION STEPS:              2 (START)      1 (STEP)
 LEVEL SHIFTS:                  0.00 (CLOSED)  0.00 (OPEN) 



 Orbital guess generated from atomic densities. Full valence occupancy:    8

 Molecular orbital dump at record        2100.2

 Initial occupancy:   8

 ITERATION    DDIFF          GRAD             ENERGY        2-EL.EN.            DIPOLE MOMENTS         DIIS   ORB.
    1      0.000D+00      0.000D+00       -77.74905245    110.659107    0.00244    0.00023   -0.00176    0    start
    2      0.000D+00      0.691D-02       -77.76979517    110.190091   -0.00125   -0.00029    0.00075    1    diag
    3      0.802D-02      0.223D-02       -77.77331509    110.416166    0.00338   -0.00001   -0.00251    2    diag
    4      0.371D-02      0.898D-03       -77.77431169    110.338191   -0.00256   -0.00042    0.00163    3    diag
    5      0.181D-02      0.603D-03       -77.77525794    110.360485    0.00898    0.00043   -0.00651    4    diag
    6      0.245D-02      0.334D-03       -77.77552862    110.365928   -0.01042   -0.00101    0.00718    5    diag
    7      0.136D-02      0.216D-03       -77.77560190    110.367190    0.00117   -0.00012   -0.00103    6    diag
    8      0.864D-03      0.467D-04       -77.77560531    110.368234    0.00028   -0.00018   -0.00040    7    diag
    9      0.142D-03      0.157D-04       -77.77560577    110.368709    0.00033   -0.00018   -0.00044    8    diag
   10      0.576D-04      0.370D-05       -77.77560578    110.368671    0.00032   -0.00017   -0.00043    9    orth
   11      0.114D-04      0.747D-06       -77.77560579    110.368654    0.00032   -0.00017   -0.00043    9    diag
   12      0.220D-05      0.136D-06       -77.77560579    110.368654    0.00032   -0.00017   -0.00043    0    orth

 Final occupancy:   8

 !RHF STATE  1.1 Energy               -77.775605785501
 Nuclear energy                        30.06683177
 One-electron energy                 -163.02676442
 Two-electron energy                   55.18432687
 Virial quotient                       -0.99874321
 !RHF STATE  1.1 Dipole moment          0.00032465    -0.00017454    -0.00043436
 Dipole moment /Debye                   0.00082513    -0.00044361    -0.00110397

 ELECTRON ORBITALS
 =================

  Orbital  Occupation    Energy     Coefficients
    1.1     2.00000   -11.26799     1 1s   -0.60295     2 1s   -0.79305
    2.1     2.00000   -11.26769     1 1s   -0.79312     2 1s    0.60304
    3.1     2.00000    -0.96714     1 1s    0.28202     1 1s    0.25024     2 1s    0.28167     2 1s    0.25004
    4.1     2.00000    -0.86147     1 1s   -0.26553     2 1s    0.26592
    5.1     2.00000    -0.63155     1 2py   0.30323     2 2py   0.30550
    6.1     2.00000    -0.62174     1 2py   0.25223
    7.1     2.00000    -0.40043     1 2px   0.30750     2 2px  -0.30743
    8.1     2.00000    -0.31105     1 2pz   0.30685     1 2pz   0.32499     2 2pz   0.30683     2 2pz   0.32501
    9.1     0.00000     0.06927     1 2pz  -0.35501     1 2pz  -0.49136     2 2pz   0.35506     2 2pz   0.49145
   10.1     0.00000     0.24109     1 1s   -1.28052     1 2px   0.30671     1 2py  -0.35036     1 2pz   0.26855     2 1s   -1.28431
                                    2 2px  -0.30552     2 2py   0.34885     2 2pz  -0.26897     3 1s    1.11413     4 1s    0.70006
                                    5 1s    0.70256     6 1s    1.11409
   11.1     0.00000     0.26426     1 1s    1.23661     1 2px   0.59739     1 2py  -0.38462     1 2pz  -0.36869     2 1s   -1.23177
                                    2 2px   0.59870     2 2py  -0.38573     2 2pz  -0.36794     4 1s   -0.68167     5 1s    0.67909
   12.1     0.00000     0.32471     1 1s   -1.25187     1 2py  -0.63562     1 2pz   0.26367     2 1s    1.25435     2 2py  -0.63344
                                    2 2pz   0.26311     3 1s    1.53480     4 1s    0.32817     5 1s   -0.33214     6 1s   -1.53371
   13.1     0.00000     0.35183     1 1s   -1.11620     1 2px   0.65313     1 2py   1.22704     2 1s   -1.13313     2 2px  -0.69470
                                    2 2py  -1.25796     3 1s   -0.77724     4 1s    2.18194     5 1s    2.25650     6 1s   -0.80404
   14.1     0.00000     0.35491     1 1s    0.60223     1 2px  -1.13157     1 2py  -0.77428     1 2pz   0.28777     2 1s   -0.55499
                                    2 2px  -1.10452     2 2py  -0.72696     2 2pz   0.28711     3 1s    0.59389     4 1s   -2.05744
                                    5 1s    1.96864     6 1s   -0.56503
   15.1     0.00000     0.66594     1 1s   -0.27453     1 2px  -0.40296     1 2px   1.22095     1 2py   0.73671     2 1s    0.27070
                                    2 2px  -0.40310     2 2px   1.21910     2 2py   0.73496     3 1s   -0.31345     4 1s    0.43245
                                    4 1s    0.70068     5 1s   -0.43235     5 1s   -0.69705     6 1s    0.31406
   16.1     0.00000     0.74597     1 1s   -0.31733     1 1s    0.77818     1 2px   0.39881     1 2py  -0.35936     1 2px  -0.71502
                                    1 2py   0.37122     2 1s   -0.31721     2 1s    0.77684     2 2px  -0.39936     2 2py   0.35990
                                    2 2px   0.71345     2 2py  -0.37360     3 1s   -0.36522     4 1s   -0.31811     5 1s   -0.31482
                                    6 1s   -0.36559
   17.1     0.00000     0.80496     1 2pz   0.77929     1 2px   0.27862     1 2pz  -0.72660     2 2pz   0.77970     2 2px   0.27823
                                    2 2pz  -0.72708
   18.1     0.00000     0.85152     1 1s    0.26052     1 1s   -0.48762     1 2pz   0.75695     1 2py   0.34427     1 2pz  -0.86796
                                    2 1s    0.25971     2 1s   -0.48625     2 2pz  -0.75652     2 2py  -0.34102     2 2pz   0.86716
                                    4 1s    0.28291     5 1s    0.28110
   19.1     0.00000     0.86109     1 1s    0.25320     1 1s   -0.41506     1 2px   0.48002     1 2py  -0.46379     1 2px  -0.51771
                                    1 2py   1.01568     2 1s   -0.25261     2 1s    0.40996     2 2px   0.48032     2 2py  -0.46085
                                    2 2px  -0.52140     2 2py   1.00851     3 1s   -0.30724     3 1s   -0.51051     4 1s    0.30440
                                    5 1s   -0.29930     6 1s    0.30705     6 1s    0.50992
   20.1     0.00000     0.92317     1 1s   -0.29345     1 1s    1.39296     1 2py   0.55333     1 2px  -0.94886     1 2py  -1.83181
                                    2 1s   -0.29564     2 1s    1.39418     2 2py  -0.55578     2 2px   0.94390     2 2py   1.83786
                                    3 1s    0.47013     4 1s   -0.39204     4 1s   -1.46396     5 1s   -0.39316     5 1s   -1.46268
                                    6 1s    0.47421
   21.1     0.00000     1.02615     1 1s    0.57260     1 1s   -0.30315     1 2px   0.61848     1 2px  -0.73760     1 2py  -0.72520
                                    1 2pz   0.26396     2 1s    0.57275     2 1s   -0.30456     2 2px  -0.61927     2 2px   0.73952
                                    2 2py   0.72667     2 2pz  -0.26419     3 1s    0.38987     3 1s    0.26717     4 1s   -0.53934
                                    5 1s   -0.54101     6 1s    0.39026     6 1s    0.26787
   22.1     0.00000     1.14514     1 1s    0.27371     1 2py  -0.37848     1 2px  -0.71456     1 2py   0.46525     2 1s   -0.25239
                                    2 2py  -0.37511     2 2px  -0.71021     2 2py   0.46519     3 1s    0.79084     3 1s   -1.17686
                                    4 1s   -0.32540     5 1s    0.31851     6 1s   -0.78299     6 1s    1.16369
   23.1     0.00000     1.15997     1 1s   -0.99058     1 1s    1.89933     1 2py  -0.25918     1 2px  -0.36143     2 1s   -0.99250
                                    2 1s    1.89923     2 2py   0.26240     2 2px   0.37177     3 1s    0.60717     3 1s   -1.08019
                                    4 1s   -0.65437     5 1s   -0.65957     6 1s    0.61694     6 1s   -1.09218
   24.1     0.00000     1.20537     1 1s   -1.27142     1 1s    3.03222     1 2px  -0.26840     1 2py  -0.38028     1 2px   1.30769
                                    1 2py   0.75998     1 2pz  -0.71585     2 1s    1.27163     2 1s   -3.03273     2 2px  -0.26809
                                    2 2py  -0.38140     2 2px   1.30796     2 2py   0.76221     2 2pz  -0.71550     3 1s   -0.85834
                                    4 1s    0.31270     5 1s   -0.31444     6 1s    0.86120
   25.1     0.00000     1.40514     1 1s    0.31209     1 1s   -0.87660     2 1s   -1.18458     2 1s    2.25135     2 2px  -0.49174
                                    2 2py  -0.60707     2 2px   0.50887     2 2py   0.68842     4 1s    0.52491     5 1s    0.94570
                                    5 1s   -1.95194
   26.1     0.00000     1.40615     1 1s   -1.14494     1 1s    2.08389     1 2px   0.46849     1 2py   0.60796     1 2px  -0.50413
                                    1 2py  -0.65431     4 1s    0.96834     4 1s   -1.88517
   27.1     0.00000     1.78371     1 3d0  -0.37744     1 3d2- -0.26208     1 3d1+  0.46099     2 3d0   0.37761     2 3d2-  0.26191
                                    2 3d1+ -0.46088
   28.1     0.00000     1.87147     1 1s    0.27131     1 3d1+  0.41907     1 3d2+ -0.39761     2 1s    0.27144     2 3d1+  0.41915
                                    2 3d2+ -0.39734
   29.1     0.00000     1.92472     1 3d2+  0.30994     1 3d1- -0.55723     2 3d2+ -0.30952     2 3d1-  0.55774
   30.1     0.00000     2.06741     1 1s    0.53565     1 2px  -0.25501     1 2py  -0.39312     1 3d0  -0.36216     1 3d2+ -0.34243
                                    1 3d1-  0.43564     2 1s    0.53492     2 2px   0.25454     2 2py   0.39337     2 3d0  -0.36108
                                    2 3d2+ -0.34194     2 3d1-  0.43636     4 1s   -0.42750     5 1s   -0.42685
   31.1     0.00000     2.24181     1 3d0   0.46612     1 3d2-  0.29874     1 3d1+ -0.44006     2 3d0   0.46592     2 3d2-  0.29877
                                    2 3d1+ -0.44025
   32.1     0.00000     2.39501     1 2py  -0.64456     1 3d2+  0.48091     1 3d1-  0.52789     2 2py   0.64000     2 3d2+  0.47552
                                    2 3d1-  0.52075     3 1s    0.59944     4 1s   -0.31732     5 1s   -0.31465     6 1s    0.58947
   33.1     0.00000     2.40567     1 1s   -0.33989     1 1s    1.07241     1 2px   0.57884     1 2py   0.35923     1 2pz  -0.32249
                                    1 3d0  -0.43939     1 3d2+ -0.32439     1 3d1- -0.40523     2 1s    0.34127     2 1s   -1.07192
                                    2 2px   0.58227     2 2py   0.37092     2 2pz  -0.32505     2 3d0   0.44073     2 3d2+  0.33326
                                    2 3d1-  0.41334     3 1s   -0.59857     6 1s    0.60915
   34.1     0.00000     2.62984     1 1s   -0.32543     1 2py   0.33674     1 3d0   0.43393     1 3d2- -0.69649     2 1s    0.32869
                                    2 2py   0.33837     2 3d0  -0.43741     2 3d2-  0.70266     4 1s    0.91526     5 1s   -0.92101
   35.1     0.00000     2.71843     1 1s    0.37555     1 1s   -1.21646     1 2px  -0.79490     1 2pz   0.32932     1 3d1+  0.51771
                                    1 3d2+ -0.63941     2 1s   -0.37505     2 1s    1.21864     2 2px  -0.79344     2 2pz   0.32932
                                    2 3d1+ -0.51725     2 3d2+  0.63980
   36.1     0.00000     2.77939     1 1s    0.41388     1 2px  -0.30565     1 2py  -0.31420     1 3d0  -0.40586     1 3d2-  0.76138
                                    2 1s    0.40766     2 2px   0.30573     2 2py   0.31137     2 3d0  -0.40173     2 3d2-  0.75553
                                    4 1s   -0.90887     5 1s   -0.89981


 HOMO      8.1    -0.311051 =      -8.4641eV
 LUMO      9.1     0.069269 =       1.8849eV
 LUMO-HOMO         0.380320 =      10.3490eV


 **********************************************************************************************************************************
 DATASETS  * FILE   NREC   LENGTH (MB)   RECORD NAMES
              1      19       31.10       500      610      700      900      950      970     1000      129      960     1100   
                                          VAR    BASINP    GEOM    SYMINP    ZMAT    AOBASIS   BASIS     P2S    ABASIS      S 
                                         1400     1410     1200     1210     1080     1600     1650     1300     1700   
                                           T        V       H0       H01     AOSYM     SMH    MOLCAS    ERIS     OPER   

              2       4        2.86       700     1000      520     2100   
                                         GEOM     BASIS   MCVARS     RHF  

 PROGRAMS   *        TOTAL    HF-SCF       INT
 CPU TIMES  *         0.36      0.09      0.16
 REAL TIME  *         0.59 SEC
 DISK USED  *        35.97 MB
 **********************************************************************************************************************************


 PROGRAM * MULTI (Direct Multiconfiguration SCF)       Authors: P.J. Knowles, H.-J. Werner (1984)


 Number of closed-shell orbitals:   7 (   7 )
 Number of active  orbitals:        2 (   2 )
 Number of external orbitals:      27 (  27 )

 State symmetry 1

 Number of electrons:     2    Spin symmetry=Singlet   Space symmetry=1
 Number of states:        3
 Number of CSFs:          3   (4 determinants, 4 intermediate states)

 Molecular orbitals read from record     2100.2  Type=RHF/CANONICAL (state 1.1)

 Wavefunction dump at record             2140.2

 Convergence thresholds  0.10E-01 (gradient)  0.10E-05 (energy)  0.10E-02 (step length)

 Weight factors for state symmetry  1:    0.33333   0.33333   0.33333

 Number of orbital rotations:      257   (    14 Core/Active    189 Core/Virtual   0 Active/Active     54 Active/Virtual)
 Total number of variables:        269

 Micro-Iterations solved by the two-step solver

 ITER. MIC  NCI  NEG     ENERGY(VAR)     ENERGY(PROJ)   ENERGY CHANGE     GRAD(0)  GRAD(ORB)   GRAD(CI)     STEP       TIME

   1   16    8    1     -77.60062691     -77.61673189   -0.01610498    0.08665134 0.00126224 0.00000000  0.31D+00      0.32
   2   10    5    0     -77.62864911     -77.63817933   -0.00953022    0.08524987 0.00077686 0.00000000  0.17D+00      0.46
   3   14    7    0     -77.63918045     -77.64070813   -0.00152768    0.02188195 0.00000670 0.00000000  0.12D+00      0.64
   4   15    6    0     -77.64088338     -77.64117496   -0.00029157    0.00955053 0.00001339 0.00000000  0.64D-01      0.83
   5   12    6    0     -77.64119221     -77.64120585   -0.00001365    0.00255982 0.00000296 0.00000000  0.13D-01      0.96
   6   11    6    0     -77.64120597     -77.64120598   -0.00000001    0.00007701 0.00000000 0.00000000  0.29D-03      1.08
   7    5    3    0     -77.64120598     -77.64120598   -0.00000000    0.00000003 0.00000000 0.00000000  0.19D-06      1.13

 ** WVFN ****  CONVERGENCE REACHED, FINAL GRADIENT:  0.49D-11



 Results for state 1.1
 =====================

 !MCSCF STATE  1.1 Energy             -77.767684249843
 Nuclear energy                        30.06683177
 Kinetic energy                        77.93511424
 One electron energy                 -163.14941861
 Two electron energy                   55.31490259
 Virial ratio                           1.99785167

 !MCSCF STATE  1.1 Dipole moment        0.00053662    -0.00032673     0.00005493
 Dipole moment /Debye                   0.00136385    -0.00083041     0.00013961

 Results for state 2.1
 =====================

 !MCSCF STATE  2.1 Energy             -77.662582135642
 Nuclear energy                        30.06683177
 Kinetic energy                        78.07509228
 One electron energy                 -162.82111018
 Two electron energy                   55.09169628
 Virial ratio                           1.99471649

 !MCSCF STATE  2.1 Dipole moment        0.00046826    -0.00028917    -0.00156583
 Dipole moment /Debye                   0.00119011    -0.00073494    -0.00397967

 Results for state 3.1
 =====================

 !MCSCF STATE  3.1 Energy             -77.493351542761
 Nuclear energy                        30.06683177
 Kinetic energy                        78.22303634
 One electron energy                 -162.47829275
 Two electron energy                   54.91810944
 Virial ratio                           1.99067174

 !MCSCF STATE  3.1 Dipole moment       -0.00039338    -0.00012191    -0.00263121
 Dipole moment /Debye                  -0.00099981    -0.00030985    -0.00668743

 State-averaged charge density matrix saved on record  2140.2 (density set 1)

 !MCSCF expec         <1.1|DMX|1.1>     0.000536615338 au =     0.001363850810 Debye
 !MCSCF trans         <2.1|DMX|1.1>    -0.004685672031 au =    -0.011909010321 Debye
 !MCSCF expec         <2.1|DMX|2.1>     0.000468255515 au =     0.001190108853 Debye
 !MCSCF trans         <3.1|DMX|1.1>    -0.000089792646 au =    -0.000228215193 Debye
 !MCSCF trans         <3.1|DMX|2.1>    -0.005125940659 au =    -0.013027988260 Debye
 !MCSCF expec         <3.1|DMX|3.1>    -0.000393380404 au =    -0.000999807768 Debye

 !MCSCF expec         <1.1|DMY|1.1>    -0.000326727966 au =    -0.000830405263 Debye
 !MCSCF trans         <2.1|DMY|1.1>     0.000766423331 au =     0.001947926210 Debye
 !MCSCF expec         <2.1|DMY|2.1>    -0.000289166453 au =    -0.000734939673 Debye
 !MCSCF trans         <3.1|DMY|1.1>     0.000012240975 au =     0.000031111417 Debye
 !MCSCF trans         <3.1|DMY|2.1>     0.000837689532 au =     0.002129054962 Debye
 !MCSCF expec         <3.1|DMY|3.1>    -0.000121913892 au =    -0.000309853910 Debye

 !MCSCF expec         <1.1|DMZ|1.1>     0.000054931860 au =     0.000139613717 Debye
 !MCSCF trans         <2.1|DMZ|1.1>     0.003256874918 au =     0.008277608153 Debye
 !MCSCF expec         <2.1|DMZ|2.1>    -0.001565825509 au =    -0.003979670797 Debye
 !MCSCF trans         <3.1|DMZ|1.1>     0.000217108214 au =     0.000551797895 Debye
 !MCSCF trans         <3.1|DMZ|2.1>     0.003610158792 au =     0.009175507382 Debye
 !MCSCF expec         <3.1|DMZ|3.1>    -0.002631210161 au =    -0.006687431122 Debye


 NATURAL ORBITALS (state averaged)
 =================================

  Orbital  Occupation    Energy     Coefficients
    1.1     2.00000   -11.26006     1 1s   -0.40562     2 1s   -0.90989
    2.1     2.00000   -11.25982     1 1s   -0.90992     2 1s    0.40570
    3.1     2.00000    -0.97145     1 1s    0.27970     2 1s    0.27944
    4.1     2.00000    -0.85701     1 1s   -0.26661     1 1s   -0.25263     2 1s    0.26693     2 1s    0.25311
    5.1     2.00000    -0.63892     1 2py   0.29369     2 2py   0.29683
    6.1     2.00000    -0.62773     1 2py   0.26994     2 2py  -0.26674
    7.1     2.00000    -0.34977     1 2pz   0.33905     1 2pz   0.32625     2 2pz   0.33896     2 2pz   0.32609
    8.1     1.00000    -0.09560     1 2pz  -0.42662     1 2pz  -0.41662     2 2pz   0.42711     2 2pz   0.41692
    9.1     1.00000    -0.22925     1 2px  -0.32365     2 2px   0.32457
   10.1    -0.00000     0.23056     1 1s   -1.24530     1 2px   0.28699     1 2py  -0.40675     2 1s   -1.24756     2 2px  -0.28664
                                    2 2py   0.40604     3 1s    1.14318     4 1s    0.60973     5 1s    0.61118     6 1s    1.14364
   11.1    -0.00000     0.26469     1 1s    1.46518     1 2px   0.55992     1 2pz  -0.37816     2 1s   -1.46293     2 2px   0.56049
                                    2 2pz  -0.37669     3 1s   -0.30599     4 1s   -0.72729     5 1s    0.72657     6 1s    0.30370
   12.1    -0.00000     0.31702     1 1s   -0.79496     1 2py  -0.86353     2 1s    0.79620     2 2py  -0.86397     3 1s    1.59838
                                    4 1s   -0.27463     5 1s    0.27428     6 1s   -1.59943
   13.1    -0.00000     0.35130     1 1s   -1.18200     1 2px   0.67015     1 2py   1.21296     2 1s   -1.20372     2 2px  -0.70587
                                    2 2py  -1.23164     3 1s   -0.73435     4 1s    2.22116     5 1s    2.28175     6 1s   -0.74303
   14.1    -0.00000     0.35605     1 1s    0.81808     1 2px  -1.17887     1 2py  -0.59210     2 1s   -0.77696     2 2px  -1.15629
                                    2 2py  -0.55429     4 1s   -2.04969     5 1s    1.97584
   15.1    -0.00000     0.66498     1 2px  -0.40133     1 2px   1.18393     1 2py   0.74681     2 2px  -0.40160     2 2px   1.18219
                                    2 2py   0.74538     3 1s   -0.34365     4 1s    0.43427     4 1s    0.66424     5 1s   -0.43422
                                    5 1s   -0.66064     6 1s    0.34444
   16.1    -0.00000     0.74248     1 1s   -0.30668     1 1s    0.74379     1 2px   0.38800     1 2py  -0.34084     1 2px  -0.69829
                                    1 2py   0.35973     2 1s   -0.30654     2 1s    0.74172     2 2px  -0.38874     2 2py   0.34161
                                    2 2px   0.69744     2 2py  -0.36234     3 1s   -0.39097     4 1s   -0.29820     5 1s   -0.29486
                                    6 1s   -0.39139
   17.1    -0.00000     0.79261     1 2pz   0.76671     1 2px   0.35654     1 2pz  -0.76385     2 2pz   0.76837     2 2px   0.35482
                                    2 2pz  -0.76656
   18.1    -0.00000     0.84203     1 1s   -0.33908     1 2pz   0.73145     1 2pz  -0.93509     2 1s   -0.33963     2 2pz  -0.72934
                                    2 2pz   0.93269
   19.1    -0.00000     0.86149     1 1s    0.26862     1 1s   -0.43329     1 2px   0.47924     1 2py  -0.44978     1 2px  -0.45882
                                    1 2py   0.98183     2 1s   -0.26799     2 1s    0.42886     2 2px   0.47916     2 2py  -0.44713
                                    2 2px  -0.46143     2 2py   0.97566     3 1s   -0.34260     3 1s   -0.44274     4 1s    0.33483
                                    5 1s   -0.33062     6 1s    0.34220     6 1s    0.44236
   20.1    -0.00000     0.92335     1 1s   -0.31264     1 1s    1.39021     1 2py   0.56643     1 2px  -0.90064     1 2py  -1.82630
                                    2 1s   -0.31442     2 1s    1.39069     2 2py  -0.56837     2 2px   0.89639     2 2py   1.83117
                                    3 1s    0.47928     4 1s   -0.39169     4 1s   -1.44548     5 1s   -0.39263     5 1s   -1.44391
                                    6 1s    0.48269
   21.1    -0.00000     1.01645     1 1s    0.57395     1 1s   -0.27784     1 2px   0.62536     1 2px  -0.77896     1 2py  -0.78797
                                    2 1s    0.57431     2 1s   -0.28009     2 2px  -0.62607     2 2px   0.78087     2 2py   0.78956
                                    3 1s    0.37340     3 1s    0.30891     4 1s   -0.58211     5 1s   -0.58360     6 1s    0.37403
                                    6 1s    0.30971
   22.1    -0.00000     1.12567     1 1s    0.26186     1 2py  -0.40794     1 2px  -0.73799     1 2py   0.50331     2 2py  -0.40552
                                    2 2px  -0.73434     2 2py   0.50377     3 1s    0.77905     3 1s   -1.19453     4 1s   -0.30960
                                    5 1s    0.30428     6 1s   -0.77337     6 1s    1.18541
   23.1    -0.00000     1.14521     1 1s   -0.98963     1 1s    1.92638     1 2py  -0.26657     1 2px  -0.39883     2 1s   -0.99144
                                    2 1s    1.92701     2 2py   0.26910     2 2px   0.40584     3 1s    0.60685     3 1s   -1.06692
                                    4 1s   -0.67781     5 1s   -0.68105     6 1s    0.61371     6 1s   -1.07566
   24.1    -0.00000     1.19829     1 1s   -1.26020     1 1s    3.00628     1 2px  -0.26797     1 2py  -0.38035     1 2px   1.31091
                                    1 2py   0.76218     1 2pz  -0.70265     2 1s    1.25953     2 1s   -3.00547     2 2px  -0.26752
                                    2 2py  -0.38122     2 2px   1.31107     2 2py   0.76400     2 2pz  -0.70232     3 1s   -0.84869
                                    4 1s    0.32809     5 1s   -0.32999     6 1s    0.85063
   25.1    -0.00000     1.40499     1 1s   -0.45721     1 1s    0.58402     1 2py   0.28918     2 1s   -0.99804     2 1s    1.71472
                                    2 2px  -0.39194     2 2py  -0.53157     2 2px   0.44513     2 2py   0.53971     4 1s    0.52032
                                    4 1s   -0.72927     5 1s    0.88229     5 1s   -1.61326
   26.1    -0.00000     1.40681     1 1s   -1.11502     1 1s    2.21850     1 2px   0.46819     1 2py   0.52551     1 2px  -0.47047
                                    1 2py  -0.64268     2 1s    0.67495     2 1s   -1.52137     2 2px   0.30053     2 2py   0.27809
                                    2 2px  -0.26646     2 2py  -0.41192     4 1s    0.81188     4 1s   -1.82160     5 1s   -0.38865
                                    5 1s    1.11216
   27.1    -0.00000     1.77465     1 3d0  -0.37661     1 3d2- -0.26431     1 3d1+  0.45868     2 3d0   0.37676     2 3d2-  0.26421
                                    2 3d1+ -0.45868
   28.1    -0.00000     1.86326     1 1s    0.26268     1 2px   0.25560     1 3d1+  0.41590     1 3d2+ -0.40711     2 1s    0.26288
                                    2 2px  -0.25545     2 3d1+  0.41603     2 3d2+ -0.40683
   29.1    -0.00000     1.91931     1 3d2+  0.31208     1 3d1- -0.55477     2 3d2+ -0.31184     2 3d1-  0.55539
   30.1    -0.00000     2.06163     1 1s    0.53950     1 2px  -0.25298     1 2py  -0.39255     1 3d0  -0.36327     1 3d2+ -0.34029
                                    1 3d1-  0.43143     2 1s    0.53901     2 2px   0.25238     2 2py   0.39275     2 3d0  -0.36231
                                    2 3d2+ -0.33974     2 3d1-  0.43194     4 1s   -0.43199     5 1s   -0.43129
   31.1    -0.00000     2.23272     1 3d0   0.46281     1 3d2-  0.30610     1 3d1+ -0.43962     2 3d0   0.46255     2 3d2-  0.30624
                                    2 3d1+ -0.43962
   32.1    -0.00000     2.38414     1 2py  -0.65210     1 3d2+  0.47199     1 3d1-  0.53291     2 2py   0.65189     2 3d2+  0.47060
                                    2 3d1-  0.53077     3 1s    0.58976     4 1s   -0.32558     5 1s   -0.32508     6 1s    0.58719
   33.1    -0.00000     2.39909     1 1s   -0.34148     1 1s    1.05328     1 2px   0.56747     1 2py   0.36841     1 2pz  -0.31753
                                    1 3d0  -0.42860     1 3d2+ -0.33975     1 3d1- -0.41440     2 1s    0.34185     2 1s   -1.05297
                                    2 2px   0.56872     2 2py   0.37238     2 2pz  -0.31807     2 3d0   0.42917     2 3d2+  0.34269
                                    2 3d1-  0.41620     3 1s   -0.59818     6 1s    0.60147
   34.1    -0.00000     2.62318     1 1s   -0.31360     1 2py   0.32848     1 3d0   0.43867     1 3d2- -0.69346     2 1s    0.31710
                                    2 2py   0.33023     2 3d0  -0.44254     2 3d2-  0.69998     4 1s    0.92029     5 1s   -0.92664
   35.1    -0.00000     2.70259     1 1s    0.38961     1 1s   -1.26023     1 2px  -0.80969     1 2pz   0.33872     1 3d1+  0.52405
                                    1 3d2+ -0.63262     2 1s   -0.38906     2 1s    1.26252     2 2px  -0.80814     2 2pz   0.33877
                                    2 3d1+ -0.52363     2 3d2+  0.63287
   36.1    -0.00000     2.77152     1 1s    0.41484     1 2px  -0.30451     1 2py  -0.31376     1 3d0  -0.41311     1 3d2-  0.75646
                                    2 1s    0.40806     2 2px   0.30470     2 2py   0.31076     2 3d0  -0.40858     2 3d2-  0.75017
                                    4 1s   -0.91350     5 1s   -0.90377


 Natural orbital dump (state averaged) at molpro section  2140.2    (Orbital set 2)



 **********************************************************************************************************************************
 DATASETS  * FILE   NREC   LENGTH (MB)   RECORD NAMES
              1      20       31.83       500      610      700      900      950      970     1000      129      960     1100   
                                          VAR    BASINP    GEOM    SYMINP    ZMAT    AOBASIS   BASIS     P2S    ABASIS      S 
                                         1400     1410     1200     1210     1080     1600     1650     1300     1700     1380   
                                           T        V       H0       H01     AOSYM     SMH    MOLCAS    ERIS     OPER     JKOP   

              2       5        5.42       700     1000      520     2100     2140   
                                         GEOM     BASIS   MCVARS     RHF     MCSCF   

 PROGRAMS   *        TOTAL     MULTI    HF-SCF       INT
 CPU TIMES  *         1.54      1.17      0.09      0.16
 REAL TIME  *         1.87 SEC
 DISK USED  *        39.01 MB
 **********************************************************************************************************************************
 Molecular orbitals read from record     2140.2  Type=MCSCF/NATURAL (state averaged)
 Occupation numbers read from record     2140.2  Type=MCSCF/NATURAL (state averaged)
 Orbital energies read from record       2140.2  Type=MCSCF/NATURAL (state averaged)
 Redundancy group numbers read from rec  2140.2  Type=MCSCF/NATURAL (state averaged)

 MULTI/6-31G* energy=    -77.493351542761

           MULTI          HF-SCF
    -77.49335154    -77.77560579
 **********************************************************************************************************************************
 Molpro calculation terminated
