
 Primary working directories    : /scratch.local/johan406.molpro_temp/molpro.AwnMZ3sNFz
 Secondary working directories  : /scratch.local/johan406.molpro_temp/molpro.AwnMZ3sNFz
 Wavefunction directory         : /home/goodpast/johan406/wfu/
 Main file repository           : /scratch.local/johan406.molpro_temp/molpro.AwnMZ3sNFz/

 id        : roweumn

 Nodes     nprocs
 acn06        1

 Using customized tuning parameters: mindgm=1; mindgv=20; mindgc=4; mindgr=1; noblas=0; minvec=7
 default implementation of scratch files=df  


 Variables initialized (934), CPU time= 0.00 sec
                                                                                 !leave this line blank
 
 gprint, orbitals=30
 memory, 125., m
 symmetry, nosym
 nelect=16
 basis=6-31g*
 
 geometry={
 C -0.824 0.029 0.312
 C 0.833 -0.079 -0.372
 H -0.801 1.121 -0.091
 H -1.459 -0.558 0.275
 H 1.468 0.509 -0.334
 H 0.809 -1.170 0.030
 }
 
 hf
 {multi,
 closed 7
 occ 9
 wf,spin=0;STATE,3
 }
 
 Commands  initialized (763), CPU time= 0.01 sec, 617 directives.
 Default parameters read. Elapsed time= 0.06 sec

 Checking input...
 Passed
1


                                         ***  PROGRAM SYSTEM MOLPRO  ***
                                       Copyright, TTI GmbH Stuttgart, 2015
                                    Version 2019.2 linked Oct 25 2019 22:50:27


 **********************************************************************************************************************************
 LABEL *                                                                                 
  64 bit serial version                                                                  DATE: 15-Mar-23          TIME: 16:42:33  
 **********************************************************************************************************************************

 SHA1:             8dbd9ae1082e4ce945b0f27595c9eb2d4aa09004
 **********************************************************************************************************************************


 Variable memory set to  125000000 words,  buffer space 

 SETTING NELECT         =        16.00000000                                  
 SETTING BASIS          =    6-31G*
 ZSYMEL=NOSYM


Geometry recognized as XYZ



 Recomputing integrals since basis changed


 Using spherical harmonics

 Library entry C      S 6-31G                selected for orbital group  1
 Library entry C      P 6-31G                selected for orbital group  1
 Library entry C      D 6-31G*               selected for orbital group  1
 Library entry H      S 6-31G                selected for orbital group  2


 PROGRAM * SEWARD (Integral evaluation for generally contracted gaussian basis sets)     Author: Roland Lindh, 1990

 Geometry written to block  1 of record 700


 Point group  C1  



 ATOMIC COORDINATES

 NR  ATOM    CHARGE       X              Y              Z

   1  C       6.00   -1.557134327    0.054802058    0.589594551
   2  C       6.00    1.574141862   -0.149288364   -0.702978118
   3  H       1.00   -1.513670626    2.118382986   -0.171965077
   4  H       1.00   -2.757110416   -1.054467178    0.519674684
   5  H       1.00    2.774117951    0.961870597   -0.631168526
   6  H       1.00    1.528788435   -2.210979566    0.056691784

 Bond lengths in Bohr (Angstrom)

 1-2  3.393712948  1-3  2.200051910  1-4  1.635637380  2-5  1.637001365  2-6  2.197663738
     ( 1.795875552)     ( 1.164217334)     ( 0.865542027)     ( 0.866263817)     ( 1.162953567)

 Bond angles

  1-2-5  128.22999145   1-2-6   84.59005451   2-1-3   84.62569967   2-1-4  128.30483327

  3-1-4  129.48049878   5-2-6  129.54948598

 NUCLEAR CHARGE:                   16
 NUMBER OF PRIMITIVE AOS:          72
 NUMBER OF SYMMETRY AOS:           70
 NUMBER OF CONTRACTIONS:           36   (   36A   )
 NUMBER OF CORE ORBITALS:           2   (    2A   )
 NUMBER OF VALENCE ORBITALS:       12   (   12A   )


 NUCLEAR REPULSION ENERGY   30.49510916

 Eigenvalues of metric

         1 0.157E-01 0.195E-01 0.288E-01 0.655E-01 0.833E-01 0.169E+00 0.188E+00 0.283E+00


 Contracted 2-electron integrals neglected if value below      1.0D-11
 AO integral compression algorithm  1   Integral accuracy      1.0D-11

     1.311 MB (compressed) written to integral file ( 66.8%)


 NUMBER OF SORTED TWO-ELECTRON INTEGRALS:     222111.     BUFFER LENGTH:  32768
 NUMBER OF SEGMENTS:   1  SEGMENT LENGTH:     222111      RECORD LENGTH: 524288

 Memory used in sort:       0.78 MW

 SORT1 READ      284735. AND WROTE      212383. INTEGRALS IN      1 RECORDS. CPU TIME:     0.00 SEC, REAL TIME:     0.01 SEC
 SORT2 READ      212383. AND WROTE      222111. INTEGRALS IN      5 RECORDS. CPU TIME:     0.02 SEC, REAL TIME:     0.02 SEC

 FILE SIZES:   FILE 1:    31.4 MBYTE,  FILE 4:     4.2 MBYTE,   TOTAL:     35.6 MBYTE

 OPERATOR DM      FOR CENTER  0  COORDINATES:    0.000000    0.000000    0.000000


 **********************************************************************************************************************************
 DATASETS  * FILE   NREC   LENGTH (MB)   RECORD NAMES
              1      19       31.10       500      610      700      900      950      970     1000      129      960     1100   
                                          VAR    BASINP    GEOM    SYMINP    ZMAT    AOBASIS   BASIS     P2S    ABASIS      S 
                                         1400     1410     1200     1210     1080     1600     1650     1300     1700   
                                           T        V       H0       H01     AOSYM     SMH    MOLCAS    ERIS     OPER   

 PROGRAMS   *        TOTAL       INT
 CPU TIMES  *         0.26      0.16
 REAL TIME  *         0.38 SEC
 DISK USED  *        35.97 MB
 **********************************************************************************************************************************


 PROGRAM * RHF-SCF (CLOSED SHELL)       Authors: W. Meyer, H.-J. Werner


 NUMBER OF ELECTRONS:       8+    8-    SPACE SYMMETRY=1    SPIN SYMMETRY: Singlet 
 CONVERGENCE THRESHOLDS:    1.00E-05 (Density)    1.00E-07 (Energy)
 MAX. NUMBER OF ITERATIONS:       60
 INTERPOLATION TYPE:            DIIS
 INTERPOLATION STEPS:              2 (START)      1 (STEP)
 LEVEL SHIFTS:                  0.00 (CLOSED)  0.00 (OPEN) 



 Orbital guess generated from atomic densities. Full valence occupancy:    8

 Molecular orbital dump at record        2100.2

 Initial occupancy:   8

 ITERATION    DDIFF          GRAD             ENERGY        2-EL.EN.            DIPOLE MOMENTS         DIIS   ORB.
    1      0.000D+00      0.000D+00       -77.68866837    111.322258    0.00027    0.00069   -0.00045    0    start
    2      0.000D+00      0.715D-02       -77.71094468    110.786220   -0.00053   -0.00019    0.00042    1    diag
    3      0.846D-02      0.234D-02       -77.71473086    111.022358    0.00072   -0.00015   -0.00041    2    diag
    4      0.381D-02      0.943D-03       -77.71583868    110.940870   -0.00089   -0.00041    0.00075    3    diag
    5      0.198D-02      0.618D-03       -77.71682713    110.965594    0.00217   -0.00003   -0.00145    4    diag
    6      0.248D-02      0.332D-03       -77.71720175    110.970561   -0.00609   -0.00107    0.00446    5    diag
    7      0.198D-02      0.137D-03       -77.71723092    110.972591    0.00338    0.00018   -0.00237    6    diag
    8      0.448D-03      0.735D-04       -77.71723667    110.974097   -0.00063   -0.00034    0.00052    7    diag
    9      0.181D-03      0.214D-04       -77.71723753    110.974699   -0.00027   -0.00028    0.00025    8    diag
   10      0.847D-04      0.464D-05       -77.71723756    110.974630   -0.00028   -0.00029    0.00026    9    orth
   11      0.153D-04      0.993D-06       -77.71723756    110.974606   -0.00028   -0.00029    0.00026    9    diag
   12      0.322D-05      0.170D-06       -77.71723756    110.974607   -0.00028   -0.00029    0.00026    0    orth

 Final occupancy:   8

 !RHF STATE  1.1 Energy               -77.717237563801
 Nuclear energy                        30.49510916
 One-electron energy                 -163.69965014
 Two-electron energy                   55.48730342
 Virial quotient                       -0.99560730
 !RHF STATE  1.1 Dipole moment         -0.00028006    -0.00028669     0.00026373
 Dipole moment /Debye                  -0.00071179    -0.00072864     0.00067028

 ELECTRON ORBITALS
 =================

  Orbital  Occupation    Energy     Coefficients
    1.1     2.00000   -11.26790     1 1s    0.81582     2 1s    0.57174
    2.1     2.00000   -11.26759     1 1s    0.57182     2 1s   -0.81587
    3.1     2.00000    -0.97861     1 1s    0.28294     2 1s    0.28247
    4.1     2.00000    -0.88106     1 1s   -0.26272     2 1s    0.26328
    5.1     2.00000    -0.63704     1 2px   0.26149     2 2px  -0.26252
    6.1     2.00000    -0.62445     1 2py   0.30236     2 2py   0.29742
    7.1     2.00000    -0.39070     1 2px  -0.29114     2 2px   0.29080
    8.1     2.00000    -0.31518     1 2pz   0.30690     1 2pz   0.32065     2 2pz   0.30714     2 2pz   0.32088
    9.1     0.00000     0.06920     1 2pz   0.35657     1 2pz   0.49205     2 2pz  -0.35645     2 2pz  -0.49188
   10.1     0.00000     0.23606     1 1s   -1.22371     1 2px   0.26454     1 2py  -0.39613     1 2pz   0.26276     2 1s   -1.22571
                                    2 2px  -0.26197     2 2py   0.39337     2 2pz  -0.26329     3 1s    1.11041     4 1s    0.62737
                                    5 1s    0.62875     6 1s    1.10732
   11.1     0.00000     0.26181     1 1s    1.21263     1 2px   0.57006     1 2py  -0.40836     1 2pz  -0.34750     2 1s   -1.20604
                                    2 2px   0.57203     2 2py  -0.40955     2 2pz  -0.34697     4 1s   -0.68396     5 1s    0.68012
   12.1     0.00000     0.32295     1 1s    1.24641     1 2py   0.65452     1 2pz  -0.30804     2 1s   -1.26075     2 2py   0.64966
                                    2 2pz  -0.30890     3 1s   -1.52124     4 1s   -0.25878     5 1s    0.27439     6 1s    1.52373
   13.1     0.00000     0.35217     1 1s   -1.44300     1 2px   0.76506     1 2py   1.17737     2 1s   -1.43777     2 2px  -0.77010
                                    2 2py  -1.18686     3 1s   -0.64173     4 1s    2.44298     5 1s    2.45216     6 1s   -0.65567
   14.1     0.00000     0.36229     1 1s    0.80924     1 2px  -1.22339     1 2py  -0.71744     1 2pz   0.29482     2 1s   -0.79628
                                    2 2px  -1.21827     2 2py  -0.71098     2 2pz   0.29373     3 1s    0.47809     4 1s   -2.24923
                                    5 1s    2.23130     6 1s   -0.47618
   15.1     0.00000     0.65028     1 1s   -0.41954     1 2px  -0.37903     1 2px   1.38341     1 2py   0.77226     2 1s    0.41356
                                    2 2px  -0.37897     2 2px   1.38101     2 2py   0.77108     3 1s   -0.33266     4 1s    0.42313
                                    4 1s    0.93390     5 1s   -0.42294     5 1s   -0.92924     6 1s    0.33384
   16.1     0.00000     0.75192     1 1s    0.27574     1 1s   -0.77188     1 2px  -0.39275     1 2py   0.40336     1 2px   0.72860
                                    1 2py  -0.39443     2 1s    0.27607     2 1s   -0.77284     2 2px   0.39371     2 2py  -0.40384
                                    2 2px  -0.72532     2 2py   0.39725     3 1s    0.36221     4 1s    0.40734     5 1s    0.40303
                                    6 1s    0.36296
   17.1     0.00000     0.80323     1 2pz   0.77787     1 2px   0.30382     1 2pz  -0.73023     2 2pz   0.77739     2 2px   0.30491
                                    2 2pz  -0.72940
   18.1     0.00000     0.84994     1 1s    0.26365     1 1s   -0.57483     1 2pz   0.75743     1 2py   0.35291     1 2pz  -0.86432
                                    2 1s    0.26436     2 1s   -0.57464     2 2pz  -0.75811     2 2py  -0.35554     2 2pz   0.86492
                                    4 1s    0.36025     5 1s    0.35990
   19.1     0.00000     0.87665     1 1s    0.29557     1 1s   -0.53974     1 2px   0.48430     1 2py  -0.48224     1 2px  -0.51183
                                    1 2py   1.02704     2 1s   -0.29387     2 1s    0.53356     2 2px   0.48347     2 2py  -0.48029
                                    2 2px  -0.51216     2 2py   1.02353     3 1s   -0.27823     3 1s   -0.53282     4 1s    0.34518
                                    5 1s   -0.34229     6 1s    0.27747     6 1s    0.53505
   20.1     0.00000     0.92078     1 1s   -0.29316     1 1s    1.72024     1 2py   0.52594     1 2px  -1.13065     1 2py  -1.82505
                                    1 2pz  -0.27637     2 1s   -0.29354     2 1s    1.71783     2 2py  -0.52644     2 2px   1.12858
                                    2 2py   1.82703     2 2pz   0.27771     3 1s    0.44241     4 1s   -0.39159     4 1s   -1.74788
                                    5 1s   -0.39221     5 1s   -1.74483     6 1s    0.44231
   21.1     0.00000     1.03406     1 1s    0.63172     1 1s   -0.33363     1 2px   0.59769     1 2px  -0.73633     1 2py  -0.66008
                                    1 2pz   0.26375     2 1s    0.63335     2 1s   -0.34046     2 2px  -0.59890     2 2px   0.74032
                                    2 2py   0.66305     2 2pz  -0.26484     3 1s    0.39410     4 1s   -0.50457     5 1s   -0.50623
                                    6 1s    0.39504
   22.1     0.00000     1.12996     1 1s   -0.34861     1 1s    0.60344     1 2py  -0.40476     1 2px  -0.60110     1 2py   0.49977
                                    2 1s    0.29149     2 1s   -0.47986     2 2py  -0.38976     2 2px  -0.57145     2 2py   0.50848
                                    3 1s    0.79813     3 1s   -1.26541     4 1s   -0.34546     5 1s    0.29534     6 1s   -0.75970
                                    6 1s    1.20059
   23.1     0.00000     1.14225     1 1s   -0.93923     1 1s    1.97400     1 2py  -0.25969     1 2px  -0.40915     2 1s   -0.94939
                                    2 1s    1.98312     2 2py   0.28064     2 2px   0.45632     3 1s    0.59736     3 1s   -1.04833
                                    4 1s   -0.74109     5 1s   -0.76401     6 1s    0.64755     6 1s   -1.11760
   24.1     0.00000     1.19774     1 1s    1.25219     1 1s   -2.98162     1 2px   0.27226     1 2py   0.34438     1 2px  -1.42808
                                    1 2py  -0.75784     1 2pz   0.74656     2 1s   -1.25952     2 1s    3.00130     2 2px   0.27063
                                    2 2py   0.34550     2 2px  -1.42292     2 2py  -0.75457     2 2pz   0.74739     3 1s    0.26194
                                    3 1s    0.71643     4 1s   -0.35758     5 1s    0.34857     6 1s   -0.25512     6 1s   -0.72708
   25.1     0.00000     1.47110     1 1s   -0.27045     2 1s   -1.19501     2 1s    2.24750     2 2px  -0.54377     2 2py  -0.59255
                                    2 2px   0.65849     2 2py   0.70701     2 3d2-  0.28002     5 1s    0.97467     5 1s   -2.07540
   26.1     0.00000     1.47209     1 1s   -1.20085     1 1s    2.28338     1 2px   0.55121     1 2py   0.59146     1 2px  -0.66582
                                    1 2py  -0.71476     1 3d2-  0.28394     2 1s   -0.46895     4 1s    0.96858     4 1s   -2.09573
                                    5 1s    0.29607
   27.1     0.00000     1.77509     1 3d0   0.38885     1 3d2-  0.27943     1 3d1+ -0.44499     2 3d0  -0.38862     2 3d2- -0.27972
                                    2 3d1+  0.44499
   28.1     0.00000     1.86295     1 2px  -0.26670     1 2px   0.27720     1 3d1+ -0.40197     1 3d2+  0.42481     2 2px   0.26664
                                    2 2px  -0.27570     2 3d1+ -0.40098     2 3d2+  0.42548
   29.1     0.00000     1.93608     1 3d2+ -0.31728     1 3d1-  0.55165     2 3d2+  0.31579     2 3d1- -0.55076
   30.1     0.00000     2.05167     1 1s    0.59064     1 2py  -0.33823     1 3d0  -0.38828     1 3d1+ -0.27839     1 3d2+ -0.31755
                                    1 3d1-  0.40311     2 1s    0.59158     2 2py   0.33775     2 3d0  -0.38753     2 3d1+ -0.27826
                                    2 3d2+ -0.31729     2 3d1-  0.40436     4 1s   -0.43765     5 1s   -0.43674
   31.1     0.00000     2.23280     1 3d0   0.47360     1 3d2-  0.29631     1 3d1+ -0.40445     1 3d1-  0.26226     2 3d0   0.47232
                                    2 3d2-  0.29625     2 3d1+ -0.40478     2 3d1-  0.26145
   32.1     0.00000     2.37086     1 1s    0.30658     1 1s   -0.95058     1 2px  -0.57028     1 2py  -0.38352     1 2pz   0.31620
                                    1 3d0   0.43224     1 3d2+  0.36260     1 3d1-  0.44243     2 1s   -0.29862     2 1s    0.95736
                                    2 2px  -0.55504     2 2py  -0.33698     2 2pz   0.30215     2 3d0  -0.43385     2 3d2+ -0.32669
                                    2 3d1- -0.40126     3 1s    0.60579     6 1s   -0.56273
   33.1     0.00000     2.38614     1 2py  -0.57514     1 3d1+  0.27167     1 3d2+  0.44646     1 3d1-  0.49618     2 2py   0.60521
                                    2 3d1+  0.29056     2 3d2+  0.47407     2 3d1-  0.53012     3 1s    0.53405     4 1s   -0.31451
                                    5 1s   -0.33258     6 1s    0.58220
   34.1     0.00000     2.67311     1 1s   -0.41759     1 1s    0.64608     1 2px   0.28070     1 2px   0.76975     1 2py   0.31792
                                    1 2pz  -0.26614     1 3d2- -0.65999     1 3d1+ -0.36048     1 3d2+  0.33812     2 1s    0.41742
                                    2 1s   -0.64573     2 2px   0.28032     2 2px   0.77073     2 2py   0.31895     2 2pz  -0.26552
                                    2 3d2-  0.66202     2 3d1+  0.36156     2 3d2+ -0.33934     4 1s    0.83643     5 1s   -0.83840
   35.1     0.00000     2.73620     1 1s   -1.09922     1 2px  -0.50532     1 3d0   0.43283     1 3d2- -0.33534     1 3d1+  0.39762
                                    1 3d2+ -0.53019     2 1s    1.10493     2 2px  -0.50130     2 3d0  -0.43702     2 3d2-  0.34319
                                    2 3d1+ -0.39585     2 3d2+  0.53061     4 1s    0.61536     5 1s   -0.62429
   36.1     0.00000     2.88612     1 1s    0.46283     1 2px  -0.33720     1 2py  -0.31885     1 3d0  -0.41643     1 3d2-  0.78525
                                    2 1s    0.45654     2 2px   0.33705     2 2py   0.31588     2 3d0  -0.41162     2 3d2-  0.77910
                                    4 1s   -1.03304     5 1s   -1.02207


 HOMO      8.1    -0.315181 =      -8.5765eV
 LUMO      9.1     0.069201 =       1.8831eV
 LUMO-HOMO         0.384382 =      10.4596eV


 **********************************************************************************************************************************
 DATASETS  * FILE   NREC   LENGTH (MB)   RECORD NAMES
              1      19       31.10       500      610      700      900      950      970     1000      129      960     1100   
                                          VAR    BASINP    GEOM    SYMINP    ZMAT    AOBASIS   BASIS     P2S    ABASIS      S 
                                         1400     1410     1200     1210     1080     1600     1650     1300     1700   
                                           T        V       H0       H01     AOSYM     SMH    MOLCAS    ERIS     OPER   

              2       4        2.86       700     1000      520     2100   
                                         GEOM     BASIS   MCVARS     RHF  

 PROGRAMS   *        TOTAL    HF-SCF       INT
 CPU TIMES  *         0.36      0.10      0.16
 REAL TIME  *         0.56 SEC
 DISK USED  *        35.97 MB
 **********************************************************************************************************************************


 PROGRAM * MULTI (Direct Multiconfiguration SCF)       Authors: P.J. Knowles, H.-J. Werner (1984)


 Number of closed-shell orbitals:   7 (   7 )
 Number of active  orbitals:        2 (   2 )
 Number of external orbitals:      27 (  27 )

 State symmetry 1

 Number of electrons:     2    Spin symmetry=Singlet   Space symmetry=1
 Number of states:        3
 Number of CSFs:          3   (4 determinants, 4 intermediate states)

 Molecular orbitals read from record     2100.2  Type=RHF/CANONICAL (state 1.1)

 Wavefunction dump at record             2140.2

 Convergence thresholds  0.10E-01 (gradient)  0.10E-05 (energy)  0.10E-02 (step length)

 Weight factors for state symmetry  1:    0.33333   0.33333   0.33333

 Number of orbital rotations:      257   (    14 Core/Active    189 Core/Virtual   0 Active/Active     54 Active/Virtual)
 Total number of variables:        269

 Micro-Iterations solved by the two-step solver

 ITER. MIC  NCI  NEG     ENERGY(VAR)     ENERGY(PROJ)   ENERGY CHANGE     GRAD(0)  GRAD(ORB)   GRAD(CI)     STEP       TIME

   1   16    8    1     -77.53943647     -77.55787895   -0.01844249    0.08745919 0.00092348 0.00000000  0.33D+00      0.33
   2    8    5    0     -77.57539651     -77.58760136   -0.01220485    0.09433890 0.00093488 0.00000000  0.19D+00      0.47
   3   14    7    0     -77.58888131     -77.59051804   -0.00163673    0.02654742 0.00001471 0.00000000  0.11D+00      0.63
   4   12    6    0     -77.59064726     -77.59075510   -0.00010784    0.00731488 0.00001212 0.00000000  0.30D-01      0.76
   5   11    6    0     -77.59075685     -77.59075706   -0.00000021    0.00042592 0.00000001 0.00000000  0.12D-02      0.89
   6    6    4    0     -77.59075706     -77.59075706   -0.00000000    0.00000058 0.00000000 0.00000000  0.25D-05      0.98

 ** WVFN ****  CONVERGENCE REACHED, FINAL GRADIENT:  0.86D-11



 Results for state 1.1
 =====================

 !MCSCF STATE  1.1 Energy             -77.709438380015
 Nuclear energy                        30.49510916
 Kinetic energy                        78.10400029
 One electron energy                 -163.78845986
 Two electron energy                   55.58391232
 Virial ratio                           1.99494825

 !MCSCF STATE  1.1 Dipole moment       -0.00017877    -0.00053768     0.00064910
 Dipole moment /Debye                  -0.00045435    -0.00136656     0.00164974

 Results for state 2.1
 =====================

 !MCSCF STATE  2.1 Energy             -77.611617385595
 Nuclear energy                        30.49510916
 Kinetic energy                        78.24059418
 One electron energy                 -163.51628669
 Two electron energy                   55.40956015
 Virial ratio                           1.99196099

 !MCSCF STATE  2.1 Dipole moment       -0.00027483    -0.00001084    -0.00027677
 Dipole moment /Debye                  -0.00069851    -0.00002756    -0.00070343

 Results for state 3.1
 =====================

 !MCSCF STATE  3.1 Energy             -77.451215415561
 Nuclear energy                        30.49510916
 Kinetic energy                        78.38452053
 One electron energy                 -163.23072483
 Two electron energy                   55.28440026
 Virial ratio                           1.98809325

 !MCSCF STATE  3.1 Dipole moment       -0.00082391     0.00053931    -0.00091112
 Dipole moment /Debye                  -0.00209402     0.00137069    -0.00231568

 State-averaged charge density matrix saved on record  2140.2 (density set 1)

 !MCSCF expec         <1.1|DMX|1.1>    -0.000178766963 au =    -0.000454350538 Debye
 !MCSCF trans         <2.1|DMX|1.1>     0.002832373539 au =     0.007198703939 Debye
 !MCSCF expec         <2.1|DMX|2.1>    -0.000274832543 au =    -0.000698508895 Debye
 !MCSCF trans         <3.1|DMX|1.1>    -0.000043958742 au =    -0.000111724660 Debye
 !MCSCF trans         <3.1|DMX|2.1>     0.003117949456 au =     0.007924517978 Debye
 !MCSCF expec         <3.1|DMX|3.1>    -0.000823906304 au =    -0.002094023785 Debye

 !MCSCF expec         <1.1|DMY|1.1>    -0.000537679355 au =    -0.001366555095 Debye
 !MCSCF trans         <2.1|DMY|1.1>    -0.000152724274 au =    -0.000388160960 Debye
 !MCSCF expec         <2.1|DMY|2.1>    -0.000010842441 au =    -0.000027556930 Debye
 !MCSCF trans         <3.1|DMY|1.1>    -0.000049367642 au =    -0.000125471813 Debye
 !MCSCF trans         <3.1|DMY|2.1>    -0.000154147495 au =    -0.000391778190 Debye
 !MCSCF expec         <3.1|DMY|3.1>     0.000539307280 au =     0.001370692596 Debye

 !MCSCF expec         <1.1|DMZ|1.1>     0.000649100481 au =     0.001649740799 Debye
 !MCSCF trans         <2.1|DMZ|1.1>    -0.001809513025 au =    -0.004599022113 Debye
 !MCSCF expec         <2.1|DMZ|2.1>    -0.000276768708 au =    -0.000703429813 Debye
 !MCSCF trans         <3.1|DMZ|1.1>     0.000125998543 au =     0.000320235378 Debye
 !MCSCF trans         <3.1|DMZ|2.1>    -0.002018406800 au =    -0.005129942355 Debye
 !MCSCF expec         <3.1|DMZ|3.1>    -0.000911117504 au =    -0.002315678026 Debye


 NATURAL ORBITALS (state averaged)
 =================================

  Orbital  Occupation    Energy     Coefficients
    1.1     2.00000   -11.25920     1 1s    0.73376     2 1s    0.67377
    2.1     2.00000   -11.25901     1 1s    0.67381     2 1s   -0.73380
    3.1     2.00000    -0.98129     1 1s    0.28032     2 1s    0.28008
    4.1     2.00000    -0.87510     1 1s   -0.26344     2 1s    0.26378
    5.1     2.00000    -0.64261     2 2py  -0.25774
    6.1     2.00000    -0.63056     1 2py   0.29223     2 2py   0.28554
    7.1     2.00000    -0.35250     1 2pz  -0.33856     1 2pz  -0.32224     2 2pz  -0.33872     2 2pz  -0.32234
    8.1     1.00000    -0.09513     1 2pz   0.42651     1 2pz   0.41652     2 2pz  -0.42656     2 2pz  -0.41651
    9.1     1.00000    -0.22084     1 2px  -0.31080     2 2px   0.31114
   10.1    -0.00000     0.22458     1 1s   -1.17973     1 2py  -0.44626     2 1s   -1.17930     2 2py   0.44446     3 1s    1.13014
                                    4 1s    0.53642     5 1s    0.53671     6 1s    1.12757
   11.1    -0.00000     0.26416     1 1s    1.45528     1 2px   0.55083     1 2py  -0.26591     1 2pz  -0.36725     2 1s   -1.45401
                                    2 2px   0.55164     2 2py  -0.26637     2 2pz  -0.36691     4 1s   -0.72641     5 1s    0.72596
   12.1    -0.00000     0.31380     1 1s    0.78969     1 2py   0.84827     1 2pz  -0.26512     2 1s   -0.80168     2 2py   0.84634
                                    2 2pz  -0.26596     3 1s   -1.56764     4 1s    0.26361     5 1s   -0.25311     6 1s    1.57213
   13.1    -0.00000     0.35326     1 1s   -1.50081     1 2px   0.77384     1 2py   1.15847     2 1s   -1.50453     2 2px  -0.78509
                                    2 2py  -1.16867     3 1s   -0.59572     4 1s    2.46568     5 1s    2.48665     6 1s   -0.60576
   14.1    -0.00000     0.36444     1 1s    0.97128     1 2px  -1.25569     1 2py  -0.58927     2 1s   -0.95209     2 2px  -1.24701
                                    2 2py  -0.57754     4 1s   -2.25239     5 1s    2.22352
   15.1    -0.00000     0.64985     1 1s   -0.39388     1 2px  -0.37889     1 2px   1.34312     1 2py   0.77643     2 1s    0.38807
                                    2 2px  -0.37889     2 2px   1.34089     2 2py   0.77545     3 1s   -0.35956     4 1s    0.42437
                                    4 1s    0.88979     5 1s   -0.42423     5 1s   -0.88538     6 1s    0.36084
   16.1    -0.00000     0.74827     1 1s    0.26765     1 1s   -0.74845     1 2px  -0.38226     1 2py   0.38069     1 2px   0.71877
                                    1 2py  -0.36931     2 1s    0.26804     2 1s   -0.74935     2 2px   0.38326     2 2py  -0.38132
                                    2 2px  -0.71546     2 2py   0.37239     3 1s    0.39207     3 1s   -0.25619     4 1s    0.40146
                                    5 1s    0.39694     6 1s    0.39276     6 1s   -0.25458
   17.1    -0.00000     0.79196     1 2pz   0.76516     1 2px   0.38473     1 2pz  -0.76868     2 2pz   0.76555     2 2px   0.38522
                                    2 2pz  -0.76912
   18.1    -0.00000     0.84153     1 1s   -0.39644     1 2pz   0.73171     1 2pz  -0.93307     2 1s   -0.39659     2 2pz  -0.73141
                                    2 2pz   0.93282
   19.1    -0.00000     0.87868     1 1s    0.31112     1 1s   -0.55855     1 2px   0.48237     1 2py  -0.46778     1 2px  -0.44517
                                    1 2py   0.99370     2 1s   -0.31029     2 1s    0.55600     2 2px   0.48148     2 2py  -0.46686
                                    2 2px  -0.44346     2 2py   0.99370     3 1s   -0.31728     3 1s   -0.46118     4 1s    0.38106
                                    5 1s   -0.38156     6 1s    0.31601     6 1s    0.46431
   20.1    -0.00000     0.92084     1 1s   -0.30419     1 1s    1.69711     1 2py   0.54534     1 2px  -1.07685     1 2py  -1.82554
                                    2 1s   -0.30399     2 1s    1.69358     2 2py  -0.54476     2 2px   1.07609     2 2py   1.82539
                                    3 1s    0.46021     4 1s   -0.38924     4 1s   -1.72123     5 1s   -0.38964     5 1s   -1.71767
                                    6 1s    0.45868
   21.1    -0.00000     1.02490     1 1s    0.62394     1 1s   -0.28077     1 2px   0.60682     1 2px  -0.78621     1 2py  -0.71686
                                    2 1s    0.62565     2 1s   -0.28801     2 2px  -0.60797     2 2px   0.79018     2 2py   0.72000
                                    3 1s    0.38193     3 1s    0.27508     4 1s   -0.56302     5 1s   -0.56457     6 1s    0.38306
                                    6 1s    0.27797
   22.1    -0.00000     1.10873     1 1s   -0.30491     1 1s    0.51136     1 2py  -0.42579     1 2px  -0.66046     1 2py   0.52193
                                    2 1s    0.26734     2 1s   -0.42681     2 2py  -0.41662     2 2px  -0.63762     2 2py   0.53172
                                    3 1s    0.78464     3 1s   -1.25826     4 1s   -0.33946     5 1s    0.30256     6 1s   -0.75999
                                    6 1s    1.21760
   23.1    -0.00000     1.12701     1 1s   -0.95303     1 1s    2.03720     1 2py  -0.26707     1 2px  -0.46009     2 1s   -0.95686
                                    2 1s    2.03623     2 2py   0.28094     2 2px   0.49485     3 1s    0.59596     3 1s   -1.04281
                                    4 1s   -0.79057     5 1s   -0.80587     6 1s    0.62893     6 1s   -1.08699
   24.1    -0.00000     1.19138     1 1s    1.24993     1 1s   -2.97141     1 2px   0.27018     1 2py   0.35072     1 2px  -1.42259
                                    1 2py  -0.76819     1 2pz   0.73571     2 1s   -1.25584     2 1s    2.98859     2 2px   0.26848
                                    2 2py   0.35145     2 2px  -1.41758     2 2py  -0.76455     2 2pz   0.73618     3 1s    0.73257
                                    4 1s   -0.36485     5 1s    0.35650     6 1s   -0.74145
   25.1    -0.00000     1.47187     1 1s   -0.50379     1 1s    0.70935     1 2py   0.26736     2 1s   -1.05712     2 1s    1.87602
                                    2 2px  -0.45067     2 2py  -0.51878     2 2px   0.56421     2 2py   0.58945     4 1s    0.49888
                                    4 1s   -0.76560     5 1s    0.88951     5 1s   -1.76970
   26.1    -0.00000     1.47362     1 1s   -1.10493     1 1s    2.21535     1 2px   0.52216     1 2py   0.51276     1 2px  -0.62286
                                    1 2py  -0.66731     1 3d2-  0.27993     2 1s    0.59570     2 1s   -1.36996     2 2px   0.31673
                                    2 2py   0.25719     2 2px  -0.35737     2 2py  -0.39586     4 1s    0.82538     4 1s   -1.95674
                                    5 1s   -0.37312     5 1s    1.12854
   27.1    -0.00000     1.76728     1 3d0   0.38834     1 3d2-  0.28014     1 3d1+ -0.44305     2 3d0  -0.38810     2 3d2- -0.28050
                                    2 3d1+  0.44321
   28.1    -0.00000     1.85653     1 2px  -0.27516     1 2px   0.28204     1 3d1+ -0.39808     1 3d2+  0.43329     2 2px   0.27506
                                    2 2px  -0.28052     2 3d1+ -0.39701     2 3d2+  0.43404     4 1s    0.25031
   29.1    -0.00000     1.93225     1 3d2+ -0.31915     1 3d1-  0.54951     2 3d2+  0.31775     2 3d1- -0.54882
   30.1    -0.00000     2.04750     1 1s    0.59458     1 2py  -0.33900     1 3d0  -0.38892     1 3d1+ -0.28383     1 3d2+ -0.31453
                                    1 3d1-  0.39975     2 1s    0.59571     2 2py   0.33852     2 3d0  -0.38820     2 3d1+ -0.28362
                                    2 3d2+ -0.31414     2 3d1-  0.40070     4 1s   -0.44214     5 1s   -0.44122
   31.1    -0.00000     2.22575     1 3d0   0.47152     1 3d2-  0.30335     1 3d1+ -0.40351     1 3d1-  0.25908     2 3d0   0.47025
                                    2 3d2-  0.30333     2 3d1+ -0.40368     2 3d1-  0.25830
   32.1    -0.00000     2.36442     1 1s    0.30801     1 1s   -0.93108     1 2px  -0.55661     1 2py  -0.39206     1 2pz   0.31131
                                    1 3d0   0.42548     1 3d2+  0.38008     1 3d1-  0.45239     2 1s   -0.29742     2 1s    0.93992
                                    2 2px  -0.53606     2 2py  -0.33105     2 2pz   0.29334     2 3d0  -0.42628     2 3d2+ -0.33410
                                    2 3d1- -0.39863     3 1s    0.60568     6 1s   -0.55034
   33.1    -0.00000     2.37564     1 2py  -0.57895     1 3d1+  0.27041     1 3d2+  0.43574     1 3d1-  0.49785     2 2py   0.61749
                                    2 3d1+  0.29303     2 3d2+  0.47271     2 3d1-  0.54194     3 1s    0.52103     4 1s   -0.32187
                                    5 1s   -0.34449     6 1s    0.58210
   34.1    -0.00000     2.66327     1 1s   -0.43686     1 1s    0.73222     1 2px   0.27071     1 2px   0.80632     1 2py   0.31064
                                    1 2pz  -0.28529     1 3d2- -0.63721     1 3d1+ -0.38671     1 3d2+  0.36576     2 1s    0.43667
                                    2 1s   -0.73204     2 2px   0.27032     2 2px   0.80717     2 2py   0.31158     2 2pz  -0.28472
                                    2 3d2-  0.63896     2 3d1+  0.38779     2 3d2+ -0.36690     4 1s    0.80164     5 1s   -0.80341
   35.1    -0.00000     2.72788     1 1s   -1.08473     1 2px  -0.47659     1 3d0   0.45174     1 3d2- -0.36948     1 3d1+  0.38082
                                    1 3d2+ -0.50197     2 1s    1.09058     2 2px  -0.47247     2 3d0  -0.45618     2 3d2-  0.37763
                                    2 3d1+ -0.37894     2 3d2+  0.50226     4 1s    0.66684     5 1s   -0.67620
   36.1    -0.00000     2.87987     1 1s    0.46199     1 2px  -0.33541     1 2py  -0.31764     1 3d0  -0.42229     1 3d2-  0.78075
                                    2 1s    0.45549     2 2px   0.33527     2 2py   0.31459     2 3d0  -0.41724     2 3d2-  0.77433
                                    4 1s   -1.03776     5 1s   -1.02630


 Natural orbital dump (state averaged) at molpro section  2140.2    (Orbital set 2)



 **********************************************************************************************************************************
 DATASETS  * FILE   NREC   LENGTH (MB)   RECORD NAMES
              1      20       31.83       500      610      700      900      950      970     1000      129      960     1100   
                                          VAR    BASINP    GEOM    SYMINP    ZMAT    AOBASIS   BASIS     P2S    ABASIS      S 
                                         1400     1410     1200     1210     1080     1600     1650     1300     1700     1380   
                                           T        V       H0       H01     AOSYM     SMH    MOLCAS    ERIS     OPER     JKOP   

              2       5        5.42       700     1000      520     2100     2140   
                                         GEOM     BASIS   MCVARS     RHF     MCSCF   

 PROGRAMS   *        TOTAL     MULTI    HF-SCF       INT
 CPU TIMES  *         1.39      1.02      0.10      0.16
 REAL TIME  *         1.71 SEC
 DISK USED  *        39.01 MB
 **********************************************************************************************************************************
 Molecular orbitals read from record     2140.2  Type=MCSCF/NATURAL (state averaged)
 Occupation numbers read from record     2140.2  Type=MCSCF/NATURAL (state averaged)
 Orbital energies read from record       2140.2  Type=MCSCF/NATURAL (state averaged)
 Redundancy group numbers read from rec  2140.2  Type=MCSCF/NATURAL (state averaged)

 MULTI/6-31G* energy=    -77.451215415561

           MULTI          HF-SCF
    -77.45121542    -77.71723756
 **********************************************************************************************************************************
 Molpro calculation terminated
