
 Primary working directories    : /scratch.local/johan406.molpro_temp/molpro.Gz5iKL0geb
 Secondary working directories  : /scratch.local/johan406.molpro_temp/molpro.Gz5iKL0geb
 Wavefunction directory         : /home/goodpast/johan406/wfu/
 Main file repository           : /scratch.local/johan406.molpro_temp/molpro.Gz5iKL0geb/

 id        : roweumn

 Nodes     nprocs
 acn06        1

 Using customized tuning parameters: mindgm=1; mindgv=20; mindgc=4; mindgr=1; noblas=0; minvec=7
 default implementation of scratch files=df  


 Variables initialized (934), CPU time= 0.00 sec
                                                                                 !leave this line blank
 
 gprint, orbitals=30
 memory, 125., m
 symmetry, nosym
 nelect=16
 basis=6-31g*
 
 geometry={
 C -0.822 0.027 0.312
 C 0.831 -0.077 -0.372
 H -0.796 1.122 -0.096
 H -1.460 -0.549 0.275
 H 1.469 0.500 -0.335
 H 0.804 -1.171 0.035
 }
 
 hf
 {multi,
 closed 7
 occ 9
 wf,spin=0;STATE,3
 }
 
 Commands  initialized (763), CPU time= 0.01 sec, 617 directives.
 Default parameters read. Elapsed time= 0.06 sec

 Checking input...
 Passed
1


                                         ***  PROGRAM SYSTEM MOLPRO  ***
                                       Copyright, TTI GmbH Stuttgart, 2015
                                    Version 2019.2 linked Oct 25 2019 22:50:27


 **********************************************************************************************************************************
 LABEL *                                                                                 
  64 bit serial version                                                                  DATE: 15-Mar-23          TIME: 16:42:43  
 **********************************************************************************************************************************

 SHA1:             8dbd9ae1082e4ce945b0f27595c9eb2d4aa09004
 **********************************************************************************************************************************


 Variable memory set to  125000000 words,  buffer space 

 SETTING NELECT         =        16.00000000                                  
 SETTING BASIS          =    6-31G*
 ZSYMEL=NOSYM


Geometry recognized as XYZ



 Recomputing integrals since basis changed


 Using spherical harmonics

 Library entry C      S 6-31G                selected for orbital group  1
 Library entry C      P 6-31G                selected for orbital group  1
 Library entry C      D 6-31G*               selected for orbital group  1
 Library entry H      S 6-31G                selected for orbital group  2


 PROGRAM * SEWARD (Integral evaluation for generally contracted gaussian basis sets)     Author: Roland Lindh, 1990

 Geometry written to block  1 of record 700


 Point group  C1  



 ATOMIC COORDINATES

 NR  ATOM    CHARGE       X              Y              Z

   1  C       6.00   -1.553354874    0.051022605    0.589594551
   2  C       6.00    1.570362410   -0.145508912   -0.702978118
   3  H       1.00   -1.504221995    2.120272712   -0.181413708
   4  H       1.00   -2.759000142   -1.037459642    0.519674684
   5  H       1.00    2.776007677    0.944863062   -0.633058252
   6  H       1.00    1.519339804   -2.212869292    0.066140414

 Bond lengths in Bohr (Angstrom)

 1-2  3.386292724  1-3  2.208769743  1-4  1.625811460  2-5  1.627077239  2-6  2.206382915
     ( 1.791948939)     ( 1.168830612)     ( 0.860342374)     ( 0.861012195)     ( 1.167567557)

 Bond angles

  1-2-5  128.92005097   1-2-6   84.26025551   2-1-3   84.29597809   2-1-4  128.96105034

  3-1-4  128.95389018   5-2-6  129.05543322

 NUCLEAR CHARGE:                   16
 NUMBER OF PRIMITIVE AOS:          72
 NUMBER OF SYMMETRY AOS:           70
 NUMBER OF CONTRACTIONS:           36   (   36A   )
 NUMBER OF CORE ORBITALS:           2   (    2A   )
 NUMBER OF VALENCE ORBITALS:       12   (   12A   )


 NUCLEAR REPULSION ENERGY   30.55614874

 Eigenvalues of metric

         1 0.153E-01 0.195E-01 0.282E-01 0.665E-01 0.834E-01 0.166E+00 0.185E+00 0.283E+00


 Contracted 2-electron integrals neglected if value below      1.0D-11
 AO integral compression algorithm  1   Integral accuracy      1.0D-11

     1.311 MB (compressed) written to integral file ( 66.8%)


 NUMBER OF SORTED TWO-ELECTRON INTEGRALS:     222111.     BUFFER LENGTH:  32768
 NUMBER OF SEGMENTS:   1  SEGMENT LENGTH:     222111      RECORD LENGTH: 524288

 Memory used in sort:       0.78 MW

 SORT1 READ      284735. AND WROTE      212388. INTEGRALS IN      1 RECORDS. CPU TIME:     0.00 SEC, REAL TIME:     0.00 SEC
 SORT2 READ      212388. AND WROTE      222111. INTEGRALS IN      5 RECORDS. CPU TIME:     0.02 SEC, REAL TIME:     0.03 SEC

 FILE SIZES:   FILE 1:    31.4 MBYTE,  FILE 4:     4.2 MBYTE,   TOTAL:     35.6 MBYTE

 OPERATOR DM      FOR CENTER  0  COORDINATES:    0.000000    0.000000    0.000000


 **********************************************************************************************************************************
 DATASETS  * FILE   NREC   LENGTH (MB)   RECORD NAMES
              1      19       31.10       500      610      700      900      950      970     1000      129      960     1100   
                                          VAR    BASINP    GEOM    SYMINP    ZMAT    AOBASIS   BASIS     P2S    ABASIS      S 
                                         1400     1410     1200     1210     1080     1600     1650     1300     1700   
                                           T        V       H0       H01     AOSYM     SMH    MOLCAS    ERIS     OPER   

 PROGRAMS   *        TOTAL       INT
 CPU TIMES  *         0.28      0.17
 REAL TIME  *         0.42 SEC
 DISK USED  *        35.97 MB
 **********************************************************************************************************************************


 PROGRAM * RHF-SCF (CLOSED SHELL)       Authors: W. Meyer, H.-J. Werner


 NUMBER OF ELECTRONS:       8+    8-    SPACE SYMMETRY=1    SPIN SYMMETRY: Singlet 
 CONVERGENCE THRESHOLDS:    1.00E-05 (Density)    1.00E-07 (Energy)
 MAX. NUMBER OF ITERATIONS:       60
 INTERPOLATION TYPE:            DIIS
 INTERPOLATION STEPS:              2 (START)      1 (STEP)
 LEVEL SHIFTS:                  0.00 (CLOSED)  0.00 (OPEN) 



 Orbital guess generated from atomic densities. Full valence occupancy:    8

 Molecular orbital dump at record        2100.2

 Initial occupancy:   8

 ITERATION    DDIFF          GRAD             ENERGY        2-EL.EN.            DIPOLE MOMENTS         DIIS   ORB.
    1      0.000D+00      0.000D+00       -77.68080842    111.421103    0.00100    0.00061   -0.00110    0    start
    2      0.000D+00      0.718D-02       -77.70330773    110.874650   -0.00038   -0.00037    0.00011    1    diag
    3      0.852D-02      0.236D-02       -77.70714328    111.112400    0.00180   -0.00024   -0.00141    2    diag
    4      0.383D-02      0.951D-03       -77.70826874    111.029947   -0.00089   -0.00067    0.00052    3    diag
    5      0.201D-02      0.621D-03       -77.70925072    111.054606    0.00435    0.00001   -0.00325    4    diag
    6      0.246D-02      0.337D-03       -77.70961443    111.059449   -0.00809   -0.00169    0.00572    5    diag
    7      0.184D-02      0.177D-03       -77.70965876    111.061326    0.00333   -0.00009   -0.00257    6    diag
    8      0.563D-03      0.725D-04       -77.70966642    111.063226    0.00019   -0.00052   -0.00030    7    diag
    9      0.225D-03      0.218D-04       -77.70966736    111.063859    0.00040   -0.00048   -0.00045    8    diag
   10      0.895D-04      0.478D-05       -77.70966739    111.063784    0.00039   -0.00048   -0.00045    9    orth
   11      0.159D-04      0.104D-05       -77.70966739    111.063758    0.00039   -0.00048   -0.00044    9    diag
   12      0.339D-05      0.175D-06       -77.70966739    111.063759    0.00039   -0.00048   -0.00044    0    orth

 Final occupancy:   8

 !RHF STATE  1.1 Energy               -77.709667393477
 Nuclear energy                        30.55614874
 One-electron energy                 -163.79769543
 Two-electron energy                   55.53187929
 Virial quotient                       -0.99524485
 !RHF STATE  1.1 Dipole moment          0.00039175    -0.00048278    -0.00044438
 Dipole moment /Debye                   0.00099567    -0.00122703    -0.00112942

 ELECTRON ORBITALS
 =================

  Orbital  Occupation    Energy     Coefficients
    1.1     2.00000   -11.26814     1 1s    0.73120     2 1s    0.67660
    2.1     2.00000   -11.26784     1 1s   -0.67667     2 1s    0.73126
    3.1     2.00000    -0.98022     1 1s    0.28303     2 1s    0.28276
    4.1     2.00000    -0.88347     1 1s   -0.26228     2 1s    0.26268
    5.1     2.00000    -0.63880     1 2px   0.26609     2 2px  -0.26711
    6.1     2.00000    -0.62258     1 2py   0.30182     2 2py   0.29672
    7.1     2.00000    -0.38965     1 2px  -0.28753     2 2px   0.28731
    8.1     2.00000    -0.31627     1 2pz   0.30700     1 2pz   0.31974     2 2pz   0.30701     2 2pz   0.31979
    9.1     0.00000     0.06932     1 2pz  -0.35668     1 2pz  -0.49216     2 2pz   0.35672     2 2pz   0.49229
   10.1     0.00000     0.23511     1 1s   -1.21045     1 2px   0.25953     1 2py  -0.40385     1 2pz   0.26253     2 1s   -1.21324
                                    2 2px  -0.25725     2 2py   0.40121     2 2pz  -0.26289     3 1s    1.10749     4 1s    0.61461
                                    5 1s    0.61647     6 1s    1.10506
   11.1     0.00000     0.26176     1 1s    1.21881     1 2px   0.55843     1 2py  -0.41415     1 2pz  -0.34449     2 1s   -1.21232
                                    2 2px   0.56014     2 2py  -0.41584     2 2pz  -0.34338     4 1s   -0.69623     5 1s    0.69274
   12.1     0.00000     0.32250     1 1s    1.24875     1 2py   0.65110     1 2pz  -0.31237     2 1s   -1.26053     2 2py   0.64764
                                    2 2pz  -0.31287     3 1s   -1.51341     4 1s   -0.26591     5 1s    0.27780     6 1s    1.51619
   13.1     0.00000     0.35195     1 1s   -1.48404     1 2px   0.77695     1 2py   1.16098     2 1s   -1.48174     2 2px  -0.78598
                                    2 2py  -1.17137     3 1s   -0.61666     4 1s    2.46505     5 1s    2.48054     6 1s   -0.62993
   14.1     0.00000     0.36358     1 1s    0.81722     1 2px  -1.24712     1 2py  -0.70913     1 2pz   0.30101     2 1s   -0.80073
                                    2 2px  -1.24003     2 2py  -0.70024     2 2pz   0.30126     3 1s    0.47117     4 1s   -2.27403
                                    5 1s    2.25046     6 1s   -0.46824
   15.1     0.00000     0.64840     1 1s   -0.43384     1 2px  -0.37419     1 2px   1.41337     1 2py   0.77074     2 1s    0.42948
                                    2 2px  -0.37433     2 2px   1.41177     2 2py   0.76981     3 1s   -0.32708     4 1s    0.42213
                                    4 1s    0.96588     5 1s   -0.42218     5 1s   -0.96243     6 1s    0.32900
   16.1     0.00000     0.75332     1 1s   -0.26427     1 1s    0.75937     1 2px   0.39214     1 2py  -0.41288     1 2px  -0.72778
                                    1 2py   0.40876     2 1s   -0.26454     2 1s    0.75956     2 2px  -0.39286     2 2py   0.41386
                                    2 2px   0.72317     2 2py  -0.41299     3 1s   -0.36019     4 1s   -0.41286     5 1s   -0.40709
                                    6 1s   -0.36114
   17.1     0.00000     0.80293     1 2pz   0.77721     1 2px   0.30590     1 2pz  -0.73043     2 2pz   0.77744     2 2px   0.30664
                                    2 2pz  -0.73054
   18.1     0.00000     0.84956     1 1s    0.26415     1 1s   -0.58570     1 2pz   0.75824     1 2py   0.35043     1 2pz  -0.86448
                                    2 1s    0.26460     2 1s   -0.58610     2 2pz  -0.75814     2 2py  -0.35240     2 2pz   0.86443
                                    4 1s    0.36856     5 1s    0.36834
   19.1     0.00000     0.87874     1 1s    0.30182     1 1s   -0.55650     1 2px   0.48451     1 2py  -0.48580     1 2px  -0.51497
                                    1 2py   1.02405     2 1s   -0.29995     2 1s    0.54702     2 2px   0.48426     2 2py  -0.48245
                                    2 2px  -0.51818     2 2py   1.01611     3 1s   -0.27518     3 1s   -0.53136     4 1s    0.34368
                                    5 1s   -0.33707     6 1s    0.27424     6 1s    0.53291
   20.1     0.00000     0.92175     1 1s   -0.29133     1 1s    1.76852     1 2py   0.51938     1 2px  -1.16884     1 2py  -1.81353
                                    1 2pz  -0.28243     2 1s   -0.29341     2 1s    1.76929     2 2py  -0.52120     2 2px   1.16447
                                    2 2py   1.81835     2 2pz   0.28265     3 1s    0.43488     4 1s   -0.39188     4 1s   -1.78804
                                    5 1s   -0.39280     5 1s   -1.78604     6 1s    0.43733
   21.1     0.00000     1.03452     1 1s    0.64732     1 1s   -0.36045     1 2px   0.59195     1 2px  -0.72501     1 2py  -0.64040
                                    1 2pz   0.26536     2 1s    0.64901     2 1s   -0.36674     2 2px  -0.59298     2 2px   0.73053
                                    2 2py   0.64517     2 2pz  -0.26743     3 1s    0.39340     4 1s   -0.48277     5 1s   -0.48672
                                    6 1s    0.39438
   22.1     0.00000     1.12708     1 1s   -0.36585     1 1s    0.64801     1 2py  -0.41023     1 2px  -0.57770     1 2py   0.51253
                                    2 1s    0.30636     2 1s   -0.51892     2 2py  -0.39335     2 2px  -0.54708     2 2py   0.51935
                                    3 1s    0.79621     3 1s   -1.27912     4 1s   -0.33970     5 1s    0.28872     6 1s   -0.75510
                                    6 1s    1.20946
   23.1     0.00000     1.13885     1 1s   -0.92478     1 1s    1.97770     1 2py  -0.25952     1 2px  -0.42828     2 1s   -0.94149
                                    2 1s    2.00141     2 2py   0.28324     2 2px   0.47218     3 1s    0.59878     3 1s   -1.04388
                                    4 1s   -0.75740     5 1s   -0.78074     6 1s    0.65112     6 1s   -1.12078
   24.1     0.00000     1.19707     1 1s    1.24868     1 1s   -2.97823     1 2px   0.27300     1 2py   0.33874     1 2px  -1.44578
                                    1 2py  -0.75177     1 2pz   0.75225     2 1s   -1.25164     2 1s    2.98701     2 2px   0.27191
                                    2 2py   0.33976     2 2px  -1.44422     2 2py  -0.75172     2 2pz   0.75235     3 1s    0.27716
                                    3 1s    0.69126     4 1s   -0.36428     5 1s    0.36205     6 1s   -0.27198     6 1s   -0.69912
   25.1     0.00000     1.47805     2 1s   -1.17475     2 1s    2.17813     2 2px  -0.53248     2 2py  -0.57524     2 2px   0.65890
                                    2 2py   0.68132     2 3d2-  0.27359     5 1s    0.96655     5 1s   -2.03052
   26.1     0.00000     1.47909     1 1s   -1.19216     1 1s    2.31178     1 2px   0.56165     1 2py   0.57297     1 2px  -0.68687
                                    1 2py  -0.71295     1 3d2-  0.28856     2 1s    0.26925     2 1s   -0.77036     4 1s    0.94080
                                    4 1s   -2.10879     5 1s    0.59224
   27.1     0.00000     1.77265     1 3d0   0.38890     1 3d2-  0.28382     1 3d1+ -0.44179     2 3d0  -0.38926     2 3d2- -0.28362
                                    2 3d1+  0.44186
   28.1     0.00000     1.86340     1 2px  -0.27084     1 2px   0.28527     1 3d1+ -0.39854     1 3d2+  0.42832     2 2px   0.27078
                                    2 2px  -0.28428     2 3d1+ -0.39773     2 3d2+  0.42875     4 1s    0.25176     5 1s    0.25024
   29.1     0.00000     1.93826     1 3d2+ -0.31759     1 3d1-  0.55041     2 3d2+  0.31690     2 3d1- -0.55031
   30.1     0.00000     2.04876     1 1s    0.59707     1 2py  -0.32682     1 3d0  -0.39190     1 3d1+ -0.28716     1 3d2+ -0.31300
                                    1 3d1-  0.39822     2 1s    0.59679     2 2py   0.32686     2 3d0  -0.39062     2 3d1+ -0.28720
                                    2 3d2+ -0.31253     2 3d1-  0.39890     4 1s   -0.43500     5 1s   -0.43438
   31.1     0.00000     2.23232     1 3d0   0.47486     1 3d2-  0.29636     1 3d1+ -0.39752     1 3d1-  0.26968     2 3d0   0.47391
                                    2 3d2-  0.29616     2 3d1+ -0.39782     2 3d1-  0.26890
   32.1     0.00000     2.36505     1 1s    0.29755     1 1s   -0.93752     1 2px  -0.55905     1 2py  -0.36888     1 2pz   0.31096
                                    1 3d0   0.43504     1 3d2+  0.35824     1 3d1-  0.43631     2 1s   -0.29212     2 1s    0.94195
                                    2 2px  -0.54930     2 2py  -0.33814     2 2pz   0.30144     2 3d0  -0.43659     2 3d2+ -0.33436
                                    2 3d1- -0.40806     3 1s    0.59399     6 1s   -0.56533
   33.1     0.00000     2.38547     1 2py  -0.56731     1 3d1+  0.27912     1 3d2+  0.44709     1 3d1-  0.49942     2 2py   0.58920
                                    2 3d1+  0.29223     2 3d2+  0.46606     2 3d1-  0.52294     3 1s    0.53465     4 1s   -0.31131
                                    5 1s   -0.32523     6 1s    0.56799
   34.1     0.00000     2.66935     1 1s   -0.44031     1 1s    0.73553     1 2px   0.28046     1 2px   0.82451     1 2py   0.31322
                                    1 2pz  -0.29060     1 3d2- -0.63954     1 3d1+ -0.39178     1 3d2+  0.35592     2 1s    0.44011
                                    2 1s   -0.73495     2 2px   0.28034     2 2px   0.82536     2 2py   0.31362     2 2pz  -0.29022
                                    2 3d2-  0.64238     2 3d1+  0.39159     2 3d2+ -0.35753     4 1s    0.80470     5 1s   -0.80692
   35.1     0.00000     2.74767     1 1s    1.04734     1 2px   0.45737     1 3d0  -0.44147     1 3d2-  0.37591     1 3d1+ -0.37396
                                    1 3d2+  0.51827     2 1s   -1.05189     2 2px   0.45420     2 3d0   0.44508     2 3d2- -0.38285
                                    2 3d1+  0.37318     2 3d2+ -0.51818     4 1s   -0.67839     5 1s    0.68605
   36.1     0.00000     2.90140     1 1s    0.46905     1 2px  -0.34309     1 2py  -0.31771     1 3d0  -0.41689     1 3d2-  0.78686
                                    2 1s    0.46455     2 2px   0.34193     2 2py   0.31503     2 3d0  -0.41283     2 3d2-  0.78078
                                    4 1s   -1.04805     5 1s   -1.03734


 HOMO      8.1    -0.316267 =      -8.6061eV
 LUMO      9.1     0.069317 =       1.8862eV
 LUMO-HOMO         0.385583 =      10.4923eV


 **********************************************************************************************************************************
 DATASETS  * FILE   NREC   LENGTH (MB)   RECORD NAMES
              1      19       31.10       500      610      700      900      950      970     1000      129      960     1100   
                                          VAR    BASINP    GEOM    SYMINP    ZMAT    AOBASIS   BASIS     P2S    ABASIS      S 
                                         1400     1410     1200     1210     1080     1600     1650     1300     1700   
                                           T        V       H0       H01     AOSYM     SMH    MOLCAS    ERIS     OPER   

              2       4        2.86       700     1000      520     2100   
                                         GEOM     BASIS   MCVARS     RHF  

 PROGRAMS   *        TOTAL    HF-SCF       INT
 CPU TIMES  *         0.40      0.11      0.17
 REAL TIME  *         0.56 SEC
 DISK USED  *        35.97 MB
 **********************************************************************************************************************************


 PROGRAM * MULTI (Direct Multiconfiguration SCF)       Authors: P.J. Knowles, H.-J. Werner (1984)


 Number of closed-shell orbitals:   7 (   7 )
 Number of active  orbitals:        2 (   2 )
 Number of external orbitals:      27 (  27 )

 State symmetry 1

 Number of electrons:     2    Spin symmetry=Singlet   Space symmetry=1
 Number of states:        3
 Number of CSFs:          3   (4 determinants, 4 intermediate states)

 Molecular orbitals read from record     2100.2  Type=RHF/CANONICAL (state 1.1)

 Wavefunction dump at record             2140.2

 Convergence thresholds  0.10E-01 (gradient)  0.10E-05 (energy)  0.10E-02 (step length)

 Weight factors for state symmetry  1:    0.33333   0.33333   0.33333

 Number of orbital rotations:      257   (    14 Core/Active    189 Core/Virtual   0 Active/Active     54 Active/Virtual)
 Total number of variables:        269

 Micro-Iterations solved by the two-step solver

 ITER. MIC  NCI  NEG     ENERGY(VAR)     ENERGY(PROJ)   ENERGY CHANGE     GRAD(0)  GRAD(ORB)   GRAD(CI)     STEP       TIME

   1   16    8    1     -77.53100158     -77.54969031   -0.01868873    0.08769877 0.00087265 0.00000000  0.33D+00      0.39
   2   10    6    0     -77.56799845     -77.58053976   -0.01254131    0.09571890 0.00001024 0.00000000  0.20D+00      0.57
   3   14    7    0     -77.58184078     -77.58344593   -0.00160515    0.02691412 0.00001611 0.00000000  0.11D+00      0.75
   4   12    6    0     -77.58356466     -77.58365334   -0.00008868    0.00683579 0.00000830 0.00000000  0.26D-01      0.86
   5   11    6    0     -77.58365455     -77.58365466   -0.00000011    0.00031598 0.00000000 0.00000000  0.82D-03      0.96
   6    5    3    0     -77.58365466     -77.58365466   -0.00000000    0.00000029 0.00000001 0.00000000  0.12D-05      1.01

 ** WVFN ****  CONVERGENCE REACHED, FINAL GRADIENT:  0.19D-11



 Results for state 1.1
 =====================

 !MCSCF STATE  1.1 Energy             -77.701893332190
 Nuclear energy                        30.55614874
 Kinetic energy                        78.12143961
 One electron energy                 -163.88002750
 Two electron energy                   55.62198542
 Virial ratio                           1.99462956

 !MCSCF STATE  1.1 Dipole moment        0.00069779    -0.00079809    -0.00005356
 Dipole moment /Debye                   0.00177349    -0.00202842    -0.00013612

 Results for state 2.1
 =====================

 !MCSCF STATE  2.1 Energy             -77.604499659951
 Nuclear energy                        30.55614874
 Kinetic energy                        78.25728105
 One electron energy                 -163.61787328
 Two electron energy                   55.45722488
 Virial ratio                           1.99165852

 !MCSCF STATE  2.1 Dipole moment        0.00016547    -0.00018331    -0.00121505
 Dipole moment /Debye                   0.00042055    -0.00046589    -0.00308816

 Results for state 3.1
 =====================

 !MCSCF STATE  3.1 Energy             -77.444570991336
 Nuclear energy                        30.55614874
 Kinetic energy                        78.40033886
 One electron energy                 -163.34231575
 Two electron energy                   55.34159602
 Virial ratio                           1.98780914

 !MCSCF STATE  3.1 Dipole moment       -0.00089266     0.00048783    -0.00201763
 Dipole moment /Debye                  -0.00226877     0.00123985    -0.00512798

 State-averaged charge density matrix saved on record  2140.2 (density set 1)

 !MCSCF expec         <1.1|DMX|1.1>     0.000697790985 au =     0.001773491611 Debye
 !MCSCF trans         <2.1|DMX|1.1>    -0.003317963136 au =    -0.008432868747 Debye
 !MCSCF expec         <2.1|DMX|2.1>     0.000165467331 au =     0.000420548459 Debye
 !MCSCF trans         <3.1|DMX|1.1>    -0.000009065297 au =    -0.000023040177 Debye
 !MCSCF trans         <3.1|DMX|2.1>    -0.003642975440 au =    -0.009258913519 Debye
 !MCSCF expec         <3.1|DMX|3.1>    -0.000892659823 au =    -0.002268766352 Debye

 !MCSCF expec         <1.1|DMY|1.1>    -0.000798094370 au =    -0.002028420688 Debye
 !MCSCF trans         <2.1|DMY|1.1>     0.000362960348 au =     0.000922492761 Debye
 !MCSCF expec         <2.1|DMY|2.1>    -0.000183307842 au =    -0.000465891546 Debye
 !MCSCF trans         <3.1|DMY|1.1>    -0.000054435942 au =    -0.000138353303 Debye
 !MCSCF trans         <3.1|DMY|2.1>     0.000383715440 au =     0.000975243488 Debye
 !MCSCF expec         <3.1|DMY|3.1>     0.000487827126 au =     0.001239851667 Debye

 !MCSCF expec         <1.1|DMZ|1.1>    -0.000053555892 au =    -0.000136116585 Debye
 !MCSCF trans         <2.1|DMZ|1.1>     0.002244686095 au =     0.005705049286 Debye
 !MCSCF expec         <2.1|DMZ|2.1>    -0.001215054593 au =    -0.003088158453 Debye
 !MCSCF trans         <3.1|DMZ|1.1>     0.000157672974 au =     0.000400738478 Debye
 !MCSCF trans         <3.1|DMZ|2.1>     0.002505025390 au =     0.006366722430 Debye
 !MCSCF expec         <3.1|DMZ|3.1>    -0.002017633663 au =    -0.005127977364 Debye


 NATURAL ORBITALS (state averaged)
 =================================

  Orbital  Occupation    Energy     Coefficients
    1.1     2.00000   -11.25929     1 1s    0.64377     2 1s    0.76022
    2.1     2.00000   -11.25909     1 1s   -0.76025     2 1s    0.64381
    3.1     2.00000    -0.98265     1 1s    0.28038     2 1s    0.28021
    4.1     2.00000    -0.87723     1 1s   -0.26286     2 1s    0.26317
    5.1     2.00000    -0.64418     2 2py  -0.25433
    6.1     2.00000    -0.62842     1 2py   0.29116     2 2py   0.28475
    7.1     2.00000    -0.35327     1 2pz  -0.33849     1 2pz  -0.32142     2 2pz  -0.33839     2 2pz  -0.32129
    8.1     1.00000    -0.09484     1 2pz  -0.42631     1 2pz  -0.41662     2 2pz   0.42663     2 2pz   0.41686
    9.1     1.00000    -0.22014     1 2px  -0.30790     2 2px   0.30849
   10.1    -0.00000     0.22348     1 1s   -1.16597     1 2py  -0.45274     2 1s   -1.16595     2 2py   0.45109     3 1s    1.12580
                                    4 1s    0.52453     5 1s    0.52497     6 1s    1.12373
   11.1    -0.00000     0.26430     1 1s    1.46356     1 2px   0.54086     1 2py  -0.27062     1 2pz  -0.36613     2 1s   -1.46210
                                    2 2px   0.54161     2 2py  -0.27126     2 2pz  -0.36507     4 1s   -0.73880     5 1s    0.73817
   12.1    -0.00000     0.31320     1 1s    0.79077     1 2py   0.84285     1 2pz  -0.26866     2 1s   -0.80045     2 2py   0.84224
                                    2 2pz  -0.26960     3 1s   -1.56021     4 1s    0.25380     6 1s    1.56510
   13.1    -0.00000     0.35330     1 1s   -1.54209     1 2px   0.78697     1 2py   1.14318     2 1s   -1.54626     2 2px  -0.79913
                                    2 2py  -1.15258     3 1s   -0.57173     4 1s    2.49012     5 1s    2.51152     6 1s   -0.58028
   14.1    -0.00000     0.36586     1 1s    0.97407     1 2px  -1.27679     1 2py  -0.58388     2 1s   -0.95479     2 2px  -1.26803
                                    2 2py  -0.57269     4 1s   -2.27613     5 1s    2.24756
   15.1    -0.00000     0.64812     1 1s   -0.40873     1 2px  -0.37422     1 2px   1.37299     1 2py   0.77405     2 1s    0.40424
                                    2 2px  -0.37442     2 2px   1.37142     2 2py   0.77326     3 1s   -0.35333     4 1s    0.42329
                                    4 1s    0.92120     5 1s   -0.42336     5 1s   -0.91773     6 1s    0.35534
   16.1    -0.00000     0.74968     1 1s   -0.25675     1 1s    0.73903     1 2px   0.38177     1 2py  -0.38944     1 2px  -0.71950
                                    1 2py   0.38087     2 1s   -0.25711     2 1s    0.73894     2 2px  -0.38255     2 2py   0.39054
                                    2 2px   0.71518     2 2py  -0.38517     3 1s   -0.39093     3 1s    0.26147     4 1s   -0.41030
                                    5 1s   -0.40447     6 1s   -0.39181     6 1s    0.25963
   17.1    -0.00000     0.79191     1 2pz   0.76460     1 2px   0.38855     1 2pz  -0.76915     2 2pz   0.76560     2 2px   0.38831
                                    2 2pz  -0.77069
   18.1    -0.00000     0.84137     1 1s   -0.40427     1 2pz   0.73233     1 2pz  -0.93353     2 1s   -0.40535     2 2pz  -0.73120
                                    2 2pz   0.93247
   19.1    -0.00000     0.88098     1 1s    0.31771     1 1s   -0.57582     1 2px   0.48231     1 2py  -0.47108     1 2px  -0.44613
                                    1 2py   0.99084     2 1s   -0.31654     2 1s    0.56948     2 2px   0.48200     2 2py  -0.46862
                                    2 2px  -0.44755     2 2py   0.98590     3 1s   -0.31524     3 1s   -0.45847     4 1s    0.38119
                                    5 1s   -0.37755     6 1s    0.31384     6 1s    0.46073
   20.1    -0.00000     0.92175     1 1s   -0.30075     1 1s    1.74012     1 2py   0.53991     1 2px  -1.11299     1 2py  -1.81407
                                    2 1s   -0.30228     2 1s    1.73988     2 2py  -0.54075     2 2px   1.10991     2 2py   1.81691
                                    3 1s    0.45466     4 1s   -0.38910     4 1s   -1.75847     5 1s   -0.38983     5 1s   -1.75606
                                    6 1s    0.45562
   21.1    -0.00000     1.02542     1 1s    0.63716     1 1s   -0.29999     1 2px   0.60178     1 2px  -0.77810     1 2py  -0.69753
                                    2 1s    0.63875     2 1s   -0.30639     2 2px  -0.60265     2 2px   0.78327     2 2py   0.70253
                                    3 1s    0.38255     3 1s    0.26997     4 1s   -0.54586     5 1s   -0.54962     6 1s    0.38362
                                    6 1s    0.27412
   22.1    -0.00000     1.10550     1 1s   -0.31730     1 1s    0.54399     1 2py  -0.43059     1 2px  -0.64382     1 2py   0.53279
                                    2 1s    0.27787     2 1s   -0.45581     2 2py  -0.41985     2 2px  -0.62079     2 2py   0.54043
                                    3 1s    0.78317     3 1s   -1.26966     4 1s   -0.33572     5 1s    0.29891     6 1s   -0.75672
                                    6 1s    1.22529
   23.1    -0.00000     1.12351     1 1s   -0.94203     1 1s    2.04952     1 2py  -0.26666     1 2px  -0.48072     2 1s   -0.95070
                                    2 1s    2.05928     2 2py   0.28264     2 2px   0.51333     3 1s    0.59575     3 1s   -1.03875
                                    4 1s   -0.81140     5 1s   -0.82716     6 1s    0.63027     6 1s   -1.08848
   24.1    -0.00000     1.19080     1 1s    1.24788     1 1s   -2.97079     1 2px   0.27099     1 2py   0.34599     1 2px  -1.43968
                                    1 2py  -0.76352     1 2pz   0.74186     2 1s   -1.25004     2 1s    2.97822     2 2px   0.26987
                                    2 2py   0.34677     2 2px  -1.43811     2 2py  -0.76316     2 2pz   0.74189     3 1s    0.26217
                                    3 1s    0.71135     4 1s   -0.37068     5 1s    0.36870     6 1s   -0.25764     6 1s   -0.71809
   25.1    -0.00000     1.47896     1 1s   -0.56747     1 1s    0.84186     1 2py   0.28867     1 2px  -0.28352     1 2py  -0.27847
                                    2 1s   -1.03636     2 1s    1.83265     2 2px  -0.44177     2 2py  -0.49903     2 2px   0.56251
                                    2 2py   0.57017     4 1s    0.53784     4 1s   -0.87280     5 1s    0.86872     5 1s   -1.73079
   26.1    -0.00000     1.48090     1 1s   -1.07881     1 1s    2.18251     1 2px   0.52043     1 2py   0.49189     1 2px  -0.63153
                                    1 2py  -0.65096     1 3d2-  0.27945     2 1s    0.64046     2 1s   -1.44947     2 2px   0.34276
                                    2 2py   0.27758     2 2px  -0.39902     2 2py  -0.41922     4 1s    0.79818     4 1s   -1.93198
                                    5 1s   -0.41460     5 1s    1.21935
   27.1    -0.00000     1.76505     1 3d0   0.38843     1 3d2-  0.28429     1 3d1+ -0.43995     2 3d0  -0.38877     2 3d2- -0.28415
                                    2 3d1+  0.44011
   28.1    -0.00000     1.85736     1 2px  -0.27940     1 2px   0.29039     1 3d1+ -0.39441     1 3d2+  0.43673     2 2px   0.27928
                                    2 2px  -0.28935     2 3d1+ -0.39358     2 3d2+  0.43717     4 1s    0.26632     5 1s    0.26464
   29.1    -0.00000     1.93471     1 3d2+ -0.31939     1 3d1-  0.54839     2 3d2+  0.31878     2 3d1- -0.54839
   30.1    -0.00000     2.04491     1 1s    0.60086     1 2py  -0.32774     1 3d0  -0.39242     1 3d1+ -0.29259     1 3d2+ -0.30975
                                    1 3d1-  0.39489     2 1s    0.60072     2 2py   0.32773     2 3d0  -0.39121     2 3d1+ -0.29257
                                    2 3d2+ -0.30922     2 3d1-  0.39539     4 1s   -0.43929     5 1s   -0.43861
   31.1    -0.00000     2.22561     1 3d0   0.47293     1 3d2-  0.30340     1 3d1+ -0.39633     1 3d1-  0.26689     2 3d0   0.47198
                                    2 3d2-  0.30327     2 3d1+ -0.39650     2 3d1-  0.26611
   32.1    -0.00000     2.35865     1 1s    0.29821     1 1s   -0.91884     1 2px  -0.54363     1 2py  -0.37310     1 2pz   0.30492
                                    1 3d0   0.42875     1 3d2+  0.37291     1 3d1-  0.44266     2 1s   -0.29159     2 1s    0.92425
                                    2 2px  -0.53147     2 2py  -0.33605     2 2pz   0.29370     2 3d0  -0.42988     2 3d2+ -0.34478
                                    2 3d1- -0.40885     3 1s    0.59019     6 1s   -0.55640
   33.1    -0.00000     2.37500     1 2py  -0.57352     1 3d1+  0.27953     1 3d2+  0.43919     1 3d1-  0.50395     2 2py   0.59897
                                    2 3d1+  0.29390     2 3d2+  0.46253     2 3d1-  0.53196     3 1s    0.52543     4 1s   -0.32016
                                    5 1s   -0.33585     6 1s    0.56421
   34.1    -0.00000     2.65967     1 1s   -0.45638     1 1s    0.80449     1 2px   0.27122     1 2px   0.85281     1 2py   0.30852
                                    1 2pz  -0.30591     1 3d2- -0.62083     1 3d1+ -0.41138     1 3d2+  0.37459     2 1s    0.45617
                                    2 1s   -0.80402     2 2px   0.27112     2 2px   0.85359     2 2py   0.30890     2 2pz  -0.30558
                                    2 3d2-  0.62346     2 3d1+  0.41129     2 3d2+ -0.37608     4 1s    0.77710     5 1s   -0.77923
   35.1    -0.00000     2.74001     1 1s    1.03744     1 2px   0.43766     1 3d0  -0.45611     1 3d2-  0.39953     1 3d1+ -0.36132
                                    1 3d2+  0.49526     2 1s   -1.04212     2 2px   0.43440     2 3d0   0.45995     2 3d2- -0.40677
                                    2 3d1+  0.36050     2 3d2+ -0.49509     4 1s   -0.71644     5 1s    0.72454
   36.1    -0.00000     2.89545     1 1s    0.46797     1 2px  -0.34115     1 2py  -0.31635     1 3d0  -0.42259     1 3d2-  0.78239
                                    2 1s    0.46325     2 2px   0.34005     2 2py   0.31361     2 3d0  -0.41833     2 3d2-  0.77609
                                    4 1s   -1.05271     5 1s   -1.04159


 Natural orbital dump (state averaged) at molpro section  2140.2    (Orbital set 2)



 **********************************************************************************************************************************
 DATASETS  * FILE   NREC   LENGTH (MB)   RECORD NAMES
              1      20       31.83       500      610      700      900      950      970     1000      129      960     1100   
                                          VAR    BASINP    GEOM    SYMINP    ZMAT    AOBASIS   BASIS     P2S    ABASIS      S 
                                         1400     1410     1200     1210     1080     1600     1650     1300     1700     1380   
                                           T        V       H0       H01     AOSYM     SMH    MOLCAS    ERIS     OPER     JKOP   

              2       5        5.42       700     1000      520     2100     2140   
                                         GEOM     BASIS   MCVARS     RHF     MCSCF   

 PROGRAMS   *        TOTAL     MULTI    HF-SCF       INT
 CPU TIMES  *         1.44      1.04      0.11      0.17
 REAL TIME  *         1.66 SEC
 DISK USED  *        39.01 MB
 **********************************************************************************************************************************
 Molecular orbitals read from record     2140.2  Type=MCSCF/NATURAL (state averaged)
 Occupation numbers read from record     2140.2  Type=MCSCF/NATURAL (state averaged)
 Orbital energies read from record       2140.2  Type=MCSCF/NATURAL (state averaged)
 Redundancy group numbers read from rec  2140.2  Type=MCSCF/NATURAL (state averaged)

 MULTI/6-31G* energy=    -77.444570991336

           MULTI          HF-SCF
    -77.44457099    -77.70966739
 **********************************************************************************************************************************
 Molpro calculation terminated
