
 Primary working directories    : /scratch.local/johan406.molpro_temp/molpro.u48WR5ud8i
 Secondary working directories  : /scratch.local/johan406.molpro_temp/molpro.u48WR5ud8i
 Wavefunction directory         : /home/goodpast/johan406/wfu/
 Main file repository           : /scratch.local/johan406.molpro_temp/molpro.u48WR5ud8i/

 id        : roweumn

 Nodes     nprocs
 acn06        1

 Using customized tuning parameters: mindgm=1; mindgv=20; mindgc=4; mindgr=1; noblas=0; minvec=7
 default implementation of scratch files=df  


 Variables initialized (934), CPU time= 0.01 sec
                                                                                 !leave this line blank
 
 gprint, orbitals=30
 memory, 125., m
 symmetry, nosym
 nelect=16
 basis=6-31g*
 
 geometry={
 C -0.820 0.025 0.311
 C 0.829 -0.075 -0.372
 H -0.792 1.123 -0.101
 H -1.462 -0.541 0.276
 H 1.471 0.492 -0.335
 H 0.800 -1.173 0.040
 }
 
 hf
 {multi,
 closed 7
 occ 9
 wf,spin=0;STATE,3
 }
 
 Commands  initialized (763), CPU time= 0.01 sec, 617 directives.
 Default parameters read. Elapsed time= 0.06 sec

 Checking input...
 Passed
1


                                         ***  PROGRAM SYSTEM MOLPRO  ***
                                       Copyright, TTI GmbH Stuttgart, 2015
                                    Version 2019.2 linked Oct 25 2019 22:50:27


 **********************************************************************************************************************************
 LABEL *                                                                                 
  64 bit serial version                                                                  DATE: 15-Mar-23          TIME: 16:42:52  
 **********************************************************************************************************************************

 SHA1:             8dbd9ae1082e4ce945b0f27595c9eb2d4aa09004
 **********************************************************************************************************************************


 Variable memory set to  125000000 words,  buffer space 

 SETTING NELECT         =        16.00000000                                  
 SETTING BASIS          =    6-31G*
 ZSYMEL=NOSYM


Geometry recognized as XYZ



 Recomputing integrals since basis changed


 Using spherical harmonics

 Library entry C      S 6-31G                selected for orbital group  1
 Library entry C      P 6-31G                selected for orbital group  1
 Library entry C      D 6-31G*               selected for orbital group  1
 Library entry H      S 6-31G                selected for orbital group  2


 PROGRAM * SEWARD (Integral evaluation for generally contracted gaussian basis sets)     Author: Roland Lindh, 1990

 Geometry written to block  1 of record 700


 Point group  C1  



 ATOMIC COORDINATES

 NR  ATOM    CHARGE       X              Y              Z

   1  C       6.00   -1.549575422    0.047243153    0.587704825
   2  C       6.00    1.566582957   -0.141729459   -0.702978118
   3  H       1.00   -1.496663091    2.122162438   -0.190862339
   4  H       1.00   -2.762779594   -1.022341833    0.521564410
   5  H       1.00    2.779787129    0.929745253   -0.633058252
   6  H       1.00    1.511780900   -2.216648744    0.075589045

 Bond lengths in Bohr (Angstrom)

 1-2  3.378167573  1-3  2.216812257  1-4  1.618718926  2-5  1.620126912  2-6  2.216858167
     ( 1.787649294)     ( 1.173086527)     ( 0.856589166)     ( 0.857334241)     ( 1.173110822)

 Bond angles

  1-2-5  129.58848932   1-2-6   83.99425183   2-1-3   84.03942752   2-1-4  129.70097096

  3-1-4  128.46271879   5-2-6  128.48887099

 NUCLEAR CHARGE:                   16
 NUMBER OF PRIMITIVE AOS:          72
 NUMBER OF SYMMETRY AOS:           70
 NUMBER OF CONTRACTIONS:           36   (   36A   )
 NUMBER OF CORE ORBITALS:           2   (    2A   )
 NUMBER OF VALENCE ORBITALS:       12   (   12A   )


 NUCLEAR REPULSION ENERGY   30.60213569

 Eigenvalues of metric

         1 0.150E-01 0.195E-01 0.276E-01 0.675E-01 0.835E-01 0.164E+00 0.183E+00 0.282E+00


 Contracted 2-electron integrals neglected if value below      1.0D-11
 AO integral compression algorithm  1   Integral accuracy      1.0D-11

     1.311 MB (compressed) written to integral file ( 66.9%)


 NUMBER OF SORTED TWO-ELECTRON INTEGRALS:     222111.     BUFFER LENGTH:  32768
 NUMBER OF SEGMENTS:   1  SEGMENT LENGTH:     222111      RECORD LENGTH: 524288

 Memory used in sort:       0.78 MW

 SORT1 READ      284735. AND WROTE      212392. INTEGRALS IN      1 RECORDS. CPU TIME:     0.00 SEC, REAL TIME:     0.00 SEC
 SORT2 READ      212392. AND WROTE      222111. INTEGRALS IN      5 RECORDS. CPU TIME:     0.02 SEC, REAL TIME:     0.02 SEC

 FILE SIZES:   FILE 1:    31.4 MBYTE,  FILE 4:     4.2 MBYTE,   TOTAL:     35.6 MBYTE

 OPERATOR DM      FOR CENTER  0  COORDINATES:    0.000000    0.000000    0.000000


 **********************************************************************************************************************************
 DATASETS  * FILE   NREC   LENGTH (MB)   RECORD NAMES
              1      19       31.10       500      610      700      900      950      970     1000      129      960     1100   
                                          VAR    BASINP    GEOM    SYMINP    ZMAT    AOBASIS   BASIS     P2S    ABASIS      S 
                                         1400     1410     1200     1210     1080     1600     1650     1300     1700   
                                           T        V       H0       H01     AOSYM     SMH    MOLCAS    ERIS     OPER   

 PROGRAMS   *        TOTAL       INT
 CPU TIMES  *         0.28      0.18
 REAL TIME  *         0.46 SEC
 DISK USED  *        35.97 MB
 **********************************************************************************************************************************


 PROGRAM * RHF-SCF (CLOSED SHELL)       Authors: W. Meyer, H.-J. Werner


 NUMBER OF ELECTRONS:       8+    8-    SPACE SYMMETRY=1    SPIN SYMMETRY: Singlet 
 CONVERGENCE THRESHOLDS:    1.00E-05 (Density)    1.00E-07 (Energy)
 MAX. NUMBER OF ITERATIONS:       60
 INTERPOLATION TYPE:            DIIS
 INTERPOLATION STEPS:              2 (START)      1 (STEP)
 LEVEL SHIFTS:                  0.00 (CLOSED)  0.00 (OPEN) 



 Orbital guess generated from atomic densities. Full valence occupancy:    8

 Molecular orbital dump at record        2100.2

 Initial occupancy:   8

 ITERATION    DDIFF          GRAD             ENERGY        2-EL.EN.            DIPOLE MOMENTS         DIIS   ORB.
    1      0.000D+00      0.000D+00       -77.67486327    111.496619    0.00072    0.00041   -0.00013    0    start
    2      0.000D+00      0.720D-02       -77.69752748    110.941565   -0.00188    0.00005    0.00181    1    diag
    3      0.855D-02      0.237D-02       -77.70140042    111.180617    0.00097    0.00050   -0.00022    2    diag
    4      0.384D-02      0.957D-03       -77.70253617    111.097111   -0.00305    0.00002    0.00263    3    diag
    5      0.203D-02      0.621D-03       -77.70350285    111.121469    0.00422    0.00113   -0.00265    4    diag
    6      0.243D-02      0.343D-03       -77.70384822    111.126255   -0.01137   -0.00111    0.00865    5    diag
    7      0.168D-02      0.206D-03       -77.70391225    111.128069    0.00089    0.00073   -0.00029    6    diag
    8      0.709D-03      0.711D-04       -77.70392104    111.130172   -0.00152    0.00037    0.00147    7    diag
    9      0.249D-03      0.222D-04       -77.70392203    111.130827   -0.00137    0.00039    0.00136    8    diag
   10      0.927D-04      0.488D-05       -77.70392207    111.130745   -0.00137    0.00039    0.00136    9    orth
   11      0.163D-04      0.107D-05       -77.70392207    111.130717   -0.00137    0.00039    0.00136    9    diag
   12      0.355D-05      0.180D-06       -77.70392207    111.130718   -0.00137    0.00039    0.00136    0    orth

 Final occupancy:   8

 !RHF STATE  1.1 Energy               -77.703922069399
 Nuclear energy                        30.60213569
 One-electron energy                 -163.87141692
 Two-electron energy                   55.56535916
 Virial quotient                       -0.99501556
 !RHF STATE  1.1 Dipole moment         -0.00137085     0.00039007     0.00135859
 Dipole moment /Debye                  -0.00348414     0.00099139     0.00345295

 ELECTRON ORBITALS
 =================

  Orbital  Occupation    Energy     Coefficients
    1.1     2.00000   -11.26855     1 1s   -0.80466     2 1s   -0.58733
    2.1     2.00000   -11.26823     1 1s   -0.58740     2 1s    0.80472
    3.1     2.00000    -0.98147     1 1s    0.28358     2 1s    0.28260
    4.1     2.00000    -0.88530     1 1s   -0.26148     2 1s    0.26245
    5.1     2.00000    -0.64021     1 2px  -0.27112     2 2px   0.27099
    6.1     2.00000    -0.62054     1 2py   0.29816     2 2py   0.29919
    7.1     2.00000    -0.38876     1 2px   0.28396     2 2px  -0.28361
    8.1     2.00000    -0.31728     1 2pz   0.30686     1 2pz   0.31875     2 2pz   0.30733     2 2pz   0.31912
    9.1     0.00000     0.06956     1 2pz   0.35705     1 2pz   0.49299     2 2pz  -0.35672     2 2pz  -0.49241
   10.1     0.00000     0.23407     1 1s   -1.19697     1 2px   0.25474     1 2py  -0.41053     1 2pz   0.26153     2 1s   -1.19780
                                    2 2px  -0.25350     2 2py   0.40986     2 2pz  -0.26250     3 1s    1.10303     4 1s    0.60234
                                    5 1s    0.60265     6 1s    1.10240
   11.1     0.00000     0.26170     1 1s    1.22546     1 2px   0.54477     1 2py  -0.42123     1 2pz  -0.33937     2 1s   -1.22241
                                    2 2px   0.54604     2 2py  -0.42124     2 2pz  -0.34010     4 1s   -0.71098     5 1s    0.70914
   12.1     0.00000     0.32185     1 1s   -1.25324     1 2py  -0.64668     1 2pz   0.31472     2 1s    1.25674     2 2py  -0.64373
                                    2 2pz   0.31521     3 1s    1.50577     4 1s    0.27788     5 1s   -0.28351     6 1s   -1.50456
   13.1     0.00000     0.35167     1 1s   -1.52020     1 2px   0.79470     1 2py   1.14831     2 1s   -1.51682     2 2px  -0.79225
                                    2 2py  -1.15032     3 1s   -0.59694     4 1s    2.49285     5 1s    2.48966     6 1s   -0.60047
   14.1     0.00000     0.36473     1 1s   -0.80530     1 2px   1.26832     1 2py   0.69481     1 2pz  -0.31127     2 1s    0.80058
                                    2 2px   1.26726     2 2py   0.69434     2 2pz  -0.30884     3 1s   -0.46489     4 1s    2.27929
                                    5 1s   -2.27421     6 1s    0.46520
   15.1     0.00000     0.64695     1 1s   -0.44394     1 2px  -0.36999     1 2px   1.44386     1 2py   0.76689     2 1s    0.43704
                                    2 2px  -0.36986     2 2px   1.44098     2 2py   0.76551     3 1s   -0.32111     4 1s    0.42172
                                    4 1s    0.99358     5 1s   -0.42141     5 1s   -0.98789     6 1s    0.32148
   16.1     0.00000     0.75472     1 1s    0.25263     1 1s   -0.74429     1 2px  -0.39164     1 2py   0.42318     1 2px   0.72391
                                    1 2py  -0.42724     2 1s    0.25292     2 1s   -0.74390     2 2px   0.39191     2 2py  -0.42257
                                    2 2px  -0.72224     2 2py   0.42598     3 1s    0.35866     4 1s    0.41250     5 1s    0.41068
                                    6 1s    0.35837
   17.1     0.00000     0.80265     1 2pz   0.77771     1 2px   0.30614     1 2pz  -0.73158     2 2pz   0.77642     2 2px   0.30660
                                    2 2pz  -0.72987
   18.1     0.00000     0.84919     1 1s    0.26405     1 1s   -0.59383     1 2pz   0.75795     1 2py   0.34557     1 2pz  -0.86441
                                    2 1s    0.26425     2 1s   -0.59163     2 2pz  -0.75944     2 2py  -0.34622     2 2pz   0.86546
                                    4 1s    0.37365     5 1s    0.37199
   19.1     0.00000     0.88065     1 1s    0.30743     1 1s   -0.56668     1 2px   0.48458     1 2py  -0.48655     1 2px  -0.52227
                                    1 2py   1.01288     2 1s   -0.30680     2 1s    0.56544     2 2px   0.48485     2 2py  -0.48712
                                    2 2px  -0.52203     2 2py   1.01370     3 1s   -0.27211     3 1s   -0.52813     4 1s    0.33485
                                    5 1s   -0.33479     6 1s    0.27202     6 1s    0.52881
   20.1     0.00000     0.92335     1 1s   -0.29522     1 1s    1.81584     1 2py   0.51493     1 2px  -1.19766     1 2py  -1.80152
                                    1 2pz  -0.28590     2 1s   -0.29318     2 1s    1.80921     2 2py  -0.51472     2 2px   1.19664
                                    2 2py   1.80104     2 2pz   0.28819     3 1s    0.43136     4 1s   -0.39311     4 1s   -1.82112
                                    5 1s   -0.39328     5 1s   -1.81599     6 1s    0.42992
   21.1     0.00000     1.03486     1 1s    0.66462     1 1s   -0.38490     1 2px   0.58690     1 2px  -0.72263     1 2py  -0.63670
                                    1 2pz   0.26882     2 1s    0.66442     2 1s   -0.38626     2 2px  -0.58742     2 2px   0.72224
                                    2 2py   0.63660     2 2pz  -0.26791     3 1s    0.38934     3 1s    0.25123     4 1s   -0.47479
                                    5 1s   -0.47338     6 1s    0.39019     6 1s    0.25050
   22.1     0.00000     1.12400     1 1s    0.35103     1 1s   -0.62379     1 2py   0.40562     1 2px   0.53927     1 2py  -0.52704
                                    2 1s   -0.35466     2 1s    0.62793     2 2py   0.40751     2 2px   0.53771     2 2py  -0.53037
                                    3 1s   -0.77098     3 1s    1.25337     4 1s    0.30823     5 1s   -0.30668     6 1s    0.77350
                                    6 1s   -1.25877
   23.1     0.00000     1.13537     1 1s   -0.92495     1 1s    2.01142     1 2py  -0.27340     1 2px  -0.46954     2 1s   -0.91565
                                    2 1s    1.98927     2 2py   0.26910     2 2px   0.47541     3 1s    0.62956     3 1s   -1.08508
                                    4 1s   -0.78863     5 1s   -0.78880     6 1s    0.62854     6 1s   -1.07554
   24.1     0.00000     1.19671     1 1s    1.23934     1 1s   -2.96078     1 2px   0.27473     1 2py   0.33379     1 2px  -1.46949
                                    1 2py  -0.75071     1 2pz   0.75605     2 1s   -1.24689     2 1s    2.98206     2 2px   0.27323
                                    2 2py   0.33407     2 2px  -1.46188     2 2py  -0.74319     2 2pz   0.75697     3 1s    0.29272
                                    3 1s    0.66450     4 1s   -0.38275     5 1s    0.36903     6 1s   -0.28851     6 1s   -0.67019
   25.1     0.00000     1.48259     1 1s   -0.37868     1 1s    0.47199     2 1s   -1.12577     2 1s    2.04921     2 2px  -0.50479
                                    2 2py  -0.54314     2 2px   0.63724     2 2py   0.63580     2 3d2-  0.25711     4 1s    0.39468
                                    4 1s   -0.53652     5 1s    0.93507     5 1s   -1.92691
   26.1     0.00000     1.48390     1 1s   -1.15095     1 1s    2.27773     1 2px   0.55687     1 2py   0.53944     1 2px  -0.68598
                                    1 2py  -0.68954     1 3d2-  0.28586     2 1s    0.44585     2 1s   -1.09432     2 2px   0.26330
                                    2 2px  -0.30534     2 2py  -0.31427     4 1s    0.88778     4 1s   -2.06233     5 1s   -0.26492
                                    5 1s    0.90656
   27.1     0.00000     1.77003     1 3d0  -0.38912     1 3d2- -0.28690     1 3d1+  0.43952     2 3d0   0.38828     2 3d2-  0.28760
                                    2 3d1+ -0.43931
   28.1     0.00000     1.86446     1 2px  -0.27498     1 2px   0.29414     1 3d1+ -0.39464     1 3d2+  0.43125     2 2px   0.27488
                                    2 2px  -0.29189     2 3d1+ -0.39338     2 3d2+  0.43247     4 1s    0.26770     5 1s    0.26408
   29.1     0.00000     1.94060     1 3d2+ -0.31839     1 3d1-  0.55113     2 3d2+  0.31613     2 3d1- -0.54864
   30.1     0.00000     2.04584     1 1s    0.59933     1 2py  -0.31653     1 3d0  -0.39451     1 3d1+ -0.29593     1 3d2+ -0.30643
                                    1 3d1-  0.39286     2 1s    0.60177     2 2py   0.31554     2 3d0  -0.39511     2 3d1+ -0.29606
                                    2 3d2+ -0.30710     2 3d1-  0.39453     4 1s   -0.43097     5 1s   -0.42984
   31.1     0.00000     2.23204     1 3d0   0.47539     1 3d2-  0.29557     1 3d1+ -0.39116     1 3d1-  0.27645     2 3d0   0.47529
                                    2 3d2-  0.29599     2 3d1+ -0.39090     2 3d1-  0.27731
   32.1     0.00000     2.35929     1 1s    0.28723     1 1s   -0.92477     1 2px  -0.54548     1 2py  -0.34843     1 2pz   0.30321
                                    1 3d0   0.43864     1 3d2+  0.34897     1 3d1-  0.42336     2 1s   -0.28720     2 1s    0.92641
                                    2 2px  -0.54423     2 2py  -0.34473     2 2pz   0.30202     2 3d0  -0.43871     2 3d2+ -0.34661
                                    2 3d1- -0.42061     3 1s    0.57596     6 1s   -0.57309
   33.1     0.00000     2.38433     1 2py  -0.56640     1 3d1+  0.29017     1 3d2+  0.45216     1 3d1-  0.50705     2 2py   0.56696
                                    2 3d1+  0.29137     2 3d2+  0.45406     2 3d1-  0.50919     3 1s    0.54248     4 1s   -0.31250
                                    5 1s   -0.31180     6 1s    0.54514
   34.1     0.00000     2.66310     1 1s    0.45417     1 1s   -0.78232     1 2px  -0.28363     1 2px  -0.86130     1 2py  -0.31339
                                    1 2pz   0.30589     1 3d2-  0.63333     1 3d1+  0.40522     1 3d2+ -0.35539     2 1s   -0.45386
                                    2 1s    0.78283     2 2px  -0.28261     2 2px  -0.86184     2 2py  -0.31468     2 2pz   0.30523
                                    2 3d2- -0.63288     2 3d1+ -0.40753     2 3d2+  0.35586     4 1s   -0.79388     5 1s    0.79391
   35.1     0.00000     2.75907     1 1s   -1.01801     1 2px  -0.43967     1 3d0   0.44217     1 3d2- -0.38926     1 3d1+  0.36565
                                    1 3d2+ -0.51925     2 1s    1.02504     2 2px  -0.43471     2 3d0  -0.44708     2 3d2-  0.39820
                                    2 3d1+ -0.36268     2 3d2+  0.52009     4 1s    0.70569     5 1s   -0.71601
   36.1     0.00000     2.91410     1 1s    0.47687     1 2px  -0.34632     1 2py  -0.31520     1 3d0  -0.41802     1 3d2-  0.78737
                                    2 1s    0.46863     2 2px   0.34767     2 2py   0.31255     2 3d0  -0.41256     2 3d2-  0.78178
                                    4 1s   -1.05902     5 1s   -1.04796


 HOMO      8.1    -0.317283 =      -8.6337eV
 LUMO      9.1     0.069563 =       1.8929eV
 LUMO-HOMO         0.386846 =      10.5266eV


 **********************************************************************************************************************************
 DATASETS  * FILE   NREC   LENGTH (MB)   RECORD NAMES
              1      19       31.10       500      610      700      900      950      970     1000      129      960     1100   
                                          VAR    BASINP    GEOM    SYMINP    ZMAT    AOBASIS   BASIS     P2S    ABASIS      S 
                                         1400     1410     1200     1210     1080     1600     1650     1300     1700   
                                           T        V       H0       H01     AOSYM     SMH    MOLCAS    ERIS     OPER   

              2       4        2.86       700     1000      520     2100   
                                         GEOM     BASIS   MCVARS     RHF  

 PROGRAMS   *        TOTAL    HF-SCF       INT
 CPU TIMES  *         0.38      0.10      0.18
 REAL TIME  *         0.60 SEC
 DISK USED  *        35.97 MB
 **********************************************************************************************************************************


 PROGRAM * MULTI (Direct Multiconfiguration SCF)       Authors: P.J. Knowles, H.-J. Werner (1984)


 Number of closed-shell orbitals:   7 (   7 )
 Number of active  orbitals:        2 (   2 )
 Number of external orbitals:      27 (  27 )

 State symmetry 1

 Number of electrons:     2    Spin symmetry=Singlet   Space symmetry=1
 Number of states:        3
 Number of CSFs:          3   (4 determinants, 4 intermediate states)

 Molecular orbitals read from record     2100.2  Type=RHF/CANONICAL (state 1.1)

 Wavefunction dump at record             2140.2

 Convergence thresholds  0.10E-01 (gradient)  0.10E-05 (energy)  0.10E-02 (step length)

 Weight factors for state symmetry  1:    0.33333   0.33333   0.33333

 Number of orbital rotations:      257   (    14 Core/Active    189 Core/Virtual   0 Active/Active     54 Active/Virtual)
 Total number of variables:        269

 Micro-Iterations solved by the two-step solver

 ITER. MIC  NCI  NEG     ENERGY(VAR)     ENERGY(PROJ)   ENERGY CHANGE     GRAD(0)  GRAD(ORB)   GRAD(CI)     STEP       TIME

   1   16    8    1     -77.52432606     -77.54307021   -0.01874415    0.08789816 0.00088643 0.00000000  0.33D+00      0.39
   2   10    6    0     -77.56207459     -77.57493966   -0.01286507    0.09707300 0.00001118 0.00000000  0.20D+00      0.54
   3   14    7    0     -77.57626041     -77.57783878   -0.00157837    0.02725553 0.00001886 0.00000000  0.11D+00      0.71
   4   12    6    0     -77.57794939     -77.57802438   -0.00007499    0.00644177 0.00000546 0.00000000  0.24D-01      0.85
   5   11    6    0     -77.57802527     -77.57802534   -0.00000006    0.00024675 0.00000000 0.00000000  0.61D-03      0.97
   6    5    3    0     -77.57802534     -77.57802534   -0.00000000    0.00000016 0.00000000 0.00000000  0.64D-06      1.03

 ** WVFN ****  CONVERGENCE REACHED, FINAL GRADIENT:  0.60D-12



 Results for state 1.1
 =====================

 !MCSCF STATE  1.1 Energy             -77.696181378844
 Nuclear energy                        30.60213569
 Kinetic energy                        78.13037569
 One electron energy                 -163.94728542
 Two electron energy                   55.64896835
 Virial ratio                           1.99444270

 !MCSCF STATE  1.1 Dipole moment       -0.00167478     0.00047765     0.00153483
 Dipole moment /Debye                  -0.00425658     0.00121398     0.00390089

 Results for state 2.1
 =====================

 !MCSCF STATE  2.1 Energy             -77.598876681132
 Nuclear energy                        30.60213569
 Kinetic energy                        78.26573364
 One electron energy                 -163.69535081
 Two electron energy                   55.49433844
 Virial ratio                           1.99147958

 !MCSCF STATE  2.1 Dipole moment       -0.00057205     0.00019868     0.00141830
 Dipole moment /Debye                  -0.00145392     0.00050495     0.00360473

 Results for state 3.1
 =====================

 !MCSCF STATE  3.1 Energy             -77.439017945173
 Nuclear energy                        30.60213569
 Kinetic energy                        78.40812475
 One electron energy                 -163.43005263
 Two electron energy                   55.38889899
 Virial ratio                           1.98764022

 !MCSCF STATE  3.1 Dipole moment        0.00042190    -0.00010626     0.00129990
 Dipole moment /Debye                   0.00107230    -0.00027007     0.00330381

 State-averaged charge density matrix saved on record  2140.2 (density set 1)

 !MCSCF expec         <1.1|DMX|1.1>    -0.001674777595 au =    -0.004256581239 Debye
 !MCSCF trans         <2.1|DMX|1.1>     0.000679436242 au =     0.001726841564 Debye
 !MCSCF expec         <2.1|DMX|2.1>    -0.000572054043 au =    -0.001453921115 Debye
 !MCSCF trans         <3.1|DMX|1.1>    -0.000122404014 au =    -0.000311099595 Debye
 !MCSCF trans         <3.1|DMX|2.1>     0.000777897610 au =     0.001977089007 Debye
 !MCSCF expec         <3.1|DMX|3.1>     0.000421903618 au =     0.001072301796 Debye

 !MCSCF expec         <1.1|DMY|1.1>     0.000477646982 au =     0.001213978016 Debye
 !MCSCF trans         <2.1|DMY|1.1>     0.000169300334 au =     0.000430290343 Debye
 !MCSCF expec         <2.1|DMY|2.1>     0.000198676886 au =     0.000504953199 Debye
 !MCSCF trans         <3.1|DMY|1.1>     0.000024665983 au =     0.000062690569 Debye
 !MCSCF trans         <3.1|DMY|2.1>     0.000179300717 au =     0.000455707118 Debye
 !MCSCF expec         <3.1|DMY|3.1>    -0.000106260550 au =    -0.000270069689 Debye

 !MCSCF expec         <1.1|DMZ|1.1>     0.001534828673 au =     0.003900889858 Debye
 !MCSCF trans         <2.1|DMZ|1.1>     0.000013491545 au =     0.000034289840 Debye
 !MCSCF expec         <2.1|DMZ|2.1>     0.001418303698 au =     0.003604732312 Debye
 !MCSCF trans         <3.1|DMZ|1.1>     0.000011359583 au =     0.000028871289 Debye
 !MCSCF trans         <3.1|DMZ|2.1>     0.000011813567 au =     0.000030025127 Debye
 !MCSCF expec         <3.1|DMZ|3.1>     0.001299902605 au =     0.003303806463 Debye


 NATURAL ORBITALS (state averaged)
 =================================

  Orbital  Occupation    Energy     Coefficients
    1.1     2.00000   -11.25945     1 1s   -0.65839     2 1s   -0.74759
    2.1     2.00000   -11.25925     1 1s   -0.74763     2 1s    0.65843
    3.1     2.00000    -0.98362     1 1s    0.28066     2 1s    0.28010
    4.1     2.00000    -0.87874     1 1s   -0.26215     2 1s    0.26270
    5.1     2.00000    -0.64532     1 2py  -0.24726
    6.1     2.00000    -0.62608     1 2py   0.28684     2 2py   0.28730
    7.1     2.00000    -0.35397     1 2pz   0.33806     1 2pz   0.32035     2 2pz   0.33854     2 2pz   0.32072
    8.1     1.00000    -0.09438     1 2pz   0.42660     1 2pz   0.41735     2 2pz  -0.42619     2 2pz  -0.41696
    9.1     1.00000    -0.21964     1 2px  -0.30546     2 2px   0.30529
   10.1    -0.00000     0.22233     1 1s   -1.15027     1 2py  -0.45852     2 1s   -1.15209     2 2py   0.45824     3 1s    1.11958
                                    4 1s    0.51233     5 1s    0.51314     6 1s    1.11999
   11.1    -0.00000     0.26440     1 1s    1.47419     1 2px   0.52822     1 2py  -0.27531     1 2pz  -0.36288     2 1s   -1.47185
                                    2 2px   0.52917     2 2py  -0.27614     2 2pz  -0.36348     4 1s   -0.75423     5 1s    0.75369
   12.1    -0.00000     0.31245     1 1s   -0.79334     1 2py  -0.83835     1 2pz   0.27176     2 1s    0.79599     2 2py  -0.83611
                                    2 2pz   0.27153     3 1s    1.55458     6 1s   -1.55349
   13.1    -0.00000     0.35330     1 1s   -1.57765     1 2px   0.80282     1 2py   1.12921     2 1s   -1.57990     2 2px  -0.80679
                                    2 2py  -1.13335     3 1s   -0.55050     4 1s    2.51461     5 1s    2.52280     6 1s   -0.55376
   14.1    -0.00000     0.36714     1 1s   -0.96237     1 2px   1.29781     1 2py   0.57481     1 2pz  -0.25861     2 1s    0.94991
                                    2 2px   1.29275     2 2py   0.56897     2 2pz  -0.25625     4 1s    2.28724     5 1s   -2.26997
   15.1    -0.00000     0.64684     1 1s   -0.41872     1 2px  -0.37018     1 2px   1.40319     1 2py   0.76933     2 1s    0.41271
                                    2 2px  -0.37016     2 2px   1.40085     2 2py   0.76818     3 1s   -0.34670     4 1s    0.42274
                                    4 1s    0.94798     5 1s   -0.42256     5 1s   -0.94309     6 1s    0.34721
   16.1    -0.00000     0.75113     1 1s   -0.72683     1 2px  -0.38142     1 2py   0.39887     1 2px   0.71789     1 2py  -0.39613
                                    2 1s   -0.72654     2 2px   0.38171     2 2py  -0.39852     2 2px  -0.71552     2 2py   0.39565
                                    3 1s    0.39027     3 1s   -0.26489     4 1s    0.41367     5 1s    0.41118     6 1s    0.39004
                                    6 1s   -0.26549
   17.1    -0.00000     0.79191     1 2pz   0.76511     1 2px   0.38979     1 2pz  -0.77089     2 2pz   0.76470     2 2px   0.39036
                                    2 2pz  -0.77004
   18.1    -0.00000     0.84122     1 1s   -0.41137     1 2pz   0.73164     1 2pz  -0.93319     2 1s   -0.40931     2 2pz  -0.73233
                                    2 2pz   0.93373
   19.1    -0.00000     0.88311     1 1s    0.32369     1 1s   -0.58666     1 2px   0.48217     1 2py  -0.47165     1 2px  -0.45107
                                    1 2py   0.98001     2 1s   -0.32362     2 1s    0.58772     2 2px   0.48222     2 2py  -0.47266
                                    2 2px  -0.44937     2 2py   0.98261     3 1s   -0.31325     3 1s   -0.45380     4 1s    0.37427
                                    5 1s   -0.37622     6 1s    0.31284     6 1s    0.45494
   20.1    -0.00000     0.92325     1 1s   -0.30284     1 1s    1.78069     1 2py   0.53643     1 2px  -1.13882     1 2py  -1.80062
                                    2 1s   -0.30039     2 1s    1.77322     2 2py  -0.53560     2 2px   1.13836     2 2py   1.79897
                                    3 1s    0.45248     4 1s   -0.38972     4 1s   -1.78716     5 1s   -0.38973     5 1s   -1.78163
                                    6 1s    0.45058
   21.1    -0.00000     1.02590     1 1s    0.65197     1 1s   -0.31642     1 2px   0.59702     1 2px  -0.77825     1 2py  -0.69509
                                    2 1s    0.65216     2 1s   -0.31887     2 2px  -0.59773     2 2px   0.77869     2 2py   0.69507
                                    3 1s    0.37922     3 1s    0.27589     4 1s   -0.54253     5 1s   -0.54130     6 1s    0.38059
                                    6 1s    0.27482
   22.1    -0.00000     1.10209     1 1s    0.30579     1 1s   -0.52486     1 2py   0.42800     1 2px   0.61551     1 2py  -0.54576
                                    2 1s   -0.31321     2 1s    0.53682     2 2py   0.43100     2 2px   0.61554     2 2py  -0.54904
                                    3 1s   -0.76493     3 1s    1.25258     4 1s    0.31219     5 1s   -0.31343     6 1s    0.76946
                                    6 1s   -1.26202
   23.1    -0.00000     1.11997     1 1s   -0.94016     1 1s    2.08200     1 2py  -0.27650     1 2px  -0.52125     2 1s   -0.93129
                                    2 1s    2.06158     2 2py   0.27091     2 2px   0.52273     3 1s    0.61705     3 1s   -1.06693
                                    4 1s   -0.84480     5 1s   -0.84316     6 1s    0.61285     6 1s   -1.05355
   24.1    -0.00000     1.19052     1 1s    1.24067     1 1s   -2.95744     1 2px   0.27293     1 2py   0.34209     1 2px  -1.46281
                                    1 2py  -0.76393     1 2pz   0.74660     2 1s   -1.24693     2 1s    2.97647     2 2px   0.27130
                                    2 2py   0.34198     2 2px  -1.45534     2 2py  -0.75604     2 2pz   0.74701     3 1s    0.27497
                                    3 1s    0.68901     4 1s   -0.38794     5 1s    0.37481     6 1s   -0.27136     6 1s   -0.69327
   25.1    -0.00000     1.48367     1 1s   -0.60843     1 1s    0.92773     1 2py   0.29863     1 2px  -0.30697     1 2py  -0.29774
                                    2 1s   -1.02640     2 1s    1.81146     2 2px  -0.43770     2 2py  -0.48384     2 2px   0.56576
                                    2 2py   0.55643     4 1s    0.55968     4 1s   -0.93751     5 1s    0.85531     5 1s   -1.70976
   26.1    -0.00000     1.48604     1 1s   -1.06223     1 1s    2.16063     1 2px   0.52065     1 2py   0.47566     1 2px  -0.63992
                                    1 2py  -0.63614     1 3d2-  0.27987     2 1s    0.66569     2 1s   -1.49451     2 2px   0.35976
                                    2 2py   0.28640     2 2px  -0.42720     2 2py  -0.42896     4 1s    0.78043     4 1s   -1.91546
                                    5 1s   -0.43762     5 1s    1.27216
   27.1    -0.00000     1.76269     1 3d0  -0.38864     1 3d2- -0.28717     1 3d1+  0.43767     2 3d0   0.38783     2 3d2-  0.28795
                                    2 3d1+ -0.43769
   28.1    -0.00000     1.85882     1 2px  -0.28354     1 2px   0.29940     1 3d1+ -0.39037     1 3d2+  0.43946     2 2px   0.28342
                                    2 2px  -0.29719     2 3d1+ -0.38891     2 3d2+  0.44090     4 1s    0.28280     5 1s    0.27913
   29.1    -0.00000     1.93735     1 3d2+ -0.32012     1 3d1-  0.54905     2 3d2+  0.31792     2 3d1- -0.54689
   30.1    -0.00000     2.04236     1 1s    0.60280     1 2py  -0.31748     1 3d0  -0.39499     1 3d1+ -0.30137     1 3d2+ -0.30309
                                    1 3d1-  0.38978     2 1s    0.60550     2 2py   0.31655     2 3d0  -0.39552     2 3d1+ -0.30137
                                    2 3d2+ -0.30351     2 3d1-  0.39093     4 1s   -0.43489     5 1s   -0.43384
   31.1    -0.00000     2.22569     1 3d0   0.47356     1 3d2-  0.30264     1 3d1+ -0.38965     1 3d1-  0.27412     2 3d0   0.47349
                                    2 3d2-  0.30306     2 3d1+ -0.38927     2 3d1-  0.27510
   32.1    -0.00000     2.35295     1 1s    0.28710     1 1s   -0.90679     1 2px  -0.52820     1 2py  -0.34848     1 2pz   0.29600
                                    1 3d0   0.43276     1 3d2+  0.36092     1 3d1-  0.42613     2 1s   -0.28725     2 1s    0.90809
                                    2 2px  -0.52746     2 2py  -0.34624     2 2pz   0.29526     2 3d0  -0.43257     2 3d2+ -0.35972
                                    2 3d1- -0.42463     3 1s    0.56865     6 1s   -0.56713
   33.1    -0.00000     2.37394     1 2py  -0.57455     1 3d1+  0.29198     1 3d2+  0.44705     1 3d1-  0.51424     2 2py   0.57425
                                    2 3d1+  0.29255     2 3d2+  0.44812     2 3d1-  0.51528     3 1s    0.53660     4 1s   -0.32241
                                    5 1s   -0.32117     6 1s    0.53779
   34.1    -0.00000     2.65388     1 1s    0.46866     1 1s   -0.84033     1 2px  -0.27556     1 2px  -0.88486     1 2py  -0.31068
                                    1 2pz   0.31887     1 3d2-  0.61820     1 3d1+  0.42094     1 3d2+ -0.36858     2 1s   -0.46835
                                    2 1s    0.84085     2 2px  -0.27455     2 2px  -0.88539     2 2py  -0.31195     2 2pz   0.31822
                                    2 3d2- -0.61770     2 3d1+ -0.42317     2 3d2+  0.36902     4 1s   -0.77254     5 1s    0.77258
   35.1    -0.00000     2.75181     1 1s   -1.01311     1 2px  -0.42692     1 3d0   0.45460     1 3d2- -0.40648     1 3d1+  0.35656
                                    1 3d2+ -0.50041     2 1s    1.02025     2 2px  -0.42186     2 3d0  -0.45969     2 3d2-  0.41554
                                    2 3d1+ -0.35343     2 3d2+  0.50123     4 1s    0.73558     5 1s   -0.74618
   36.1    -0.00000     2.90846     1 1s    0.47552     1 2px  -0.25402     1 2px  -0.34430     1 2py  -0.31370     1 3d0  -0.42362
                                    1 3d2-  0.78296     2 1s    0.46715     2 2px   0.25056     2 2px   0.34561     2 2py   0.31100
                                    2 3d0  -0.41795     2 3d2-  0.77710     4 1s   -1.06370     5 1s   -1.05214


 Natural orbital dump (state averaged) at molpro section  2140.2    (Orbital set 2)



 **********************************************************************************************************************************
 DATASETS  * FILE   NREC   LENGTH (MB)   RECORD NAMES
              1      20       31.83       500      610      700      900      950      970     1000      129      960     1100   
                                          VAR    BASINP    GEOM    SYMINP    ZMAT    AOBASIS   BASIS     P2S    ABASIS      S 
                                         1400     1410     1200     1210     1080     1600     1650     1300     1700     1380   
                                           T        V       H0       H01     AOSYM     SMH    MOLCAS    ERIS     OPER     JKOP   

              2       5        5.42       700     1000      520     2100     2140   
                                         GEOM     BASIS   MCVARS     RHF     MCSCF   

 PROGRAMS   *        TOTAL     MULTI    HF-SCF       INT
 CPU TIMES  *         1.46      1.08      0.10      0.18
 REAL TIME  *         1.81 SEC
 DISK USED  *        39.01 MB
 **********************************************************************************************************************************
 Molecular orbitals read from record     2140.2  Type=MCSCF/NATURAL (state averaged)
 Occupation numbers read from record     2140.2  Type=MCSCF/NATURAL (state averaged)
 Orbital energies read from record       2140.2  Type=MCSCF/NATURAL (state averaged)
 Redundancy group numbers read from rec  2140.2  Type=MCSCF/NATURAL (state averaged)

 MULTI/6-31G* energy=    -77.439017945173

           MULTI          HF-SCF
    -77.43901795    -77.70392207
 **********************************************************************************************************************************
 Molpro calculation terminated
