
 Primary working directories    : /scratch.local/johan406.molpro_temp/molpro.IqzpBs3GNF
 Secondary working directories  : /scratch.local/johan406.molpro_temp/molpro.IqzpBs3GNF
 Wavefunction directory         : /home/goodpast/johan406/wfu/
 Main file repository           : /scratch.local/johan406.molpro_temp/molpro.IqzpBs3GNF/

 id        : roweumn

 Nodes     nprocs
 acn06        1

 Using customized tuning parameters: mindgm=1; mindgv=20; mindgc=4; mindgr=1; noblas=0; minvec=7
 default implementation of scratch files=df  


 Variables initialized (934), CPU time= 0.00 sec
                                                                                 !leave this line blank
 
 gprint, orbitals=30
 memory, 125., m
 symmetry, nosym
 nelect=16
 basis=6-31g*
 
 geometry={
 C -0.817 0.022 0.311
 C 0.826 -0.072 -0.371
 H -0.787 1.126 -0.107
 H -1.467 -0.532 0.275
 H 1.476 0.483 -0.335
 H 0.796 -1.176 0.047
 }
 
 hf
 {multi,
 closed 7
 occ 9
 wf,spin=0;STATE,3
 }
 
 Commands  initialized (763), CPU time= 0.01 sec, 617 directives.
 Default parameters read. Elapsed time= 0.06 sec

 Checking input...
 Passed
1


                                         ***  PROGRAM SYSTEM MOLPRO  ***
                                       Copyright, TTI GmbH Stuttgart, 2015
                                    Version 2019.2 linked Oct 25 2019 22:50:27


 **********************************************************************************************************************************
 LABEL *                                                                                 
  64 bit serial version                                                                  DATE: 15-Mar-23          TIME: 16:43:06  
 **********************************************************************************************************************************

 SHA1:             8dbd9ae1082e4ce945b0f27595c9eb2d4aa09004
 **********************************************************************************************************************************


 Variable memory set to  125000000 words,  buffer space 

 SETTING NELECT         =        16.00000000                                  
 SETTING BASIS          =    6-31G*
 ZSYMEL=NOSYM


Geometry recognized as XYZ



 Recomputing integrals since basis changed


 Using spherical harmonics

 Library entry C      S 6-31G                selected for orbital group  1
 Library entry C      P 6-31G                selected for orbital group  1
 Library entry C      D 6-31G*               selected for orbital group  1
 Library entry H      S 6-31G                selected for orbital group  2


 PROGRAM * SEWARD (Integral evaluation for generally contracted gaussian basis sets)     Author: Roland Lindh, 1990

 Geometry written to block  1 of record 700


 Point group  C1  



 ATOMIC COORDINATES

 NR  ATOM    CHARGE       X              Y              Z

   1  C       6.00   -1.543906244    0.041573975    0.587704825
   2  C       6.00    1.560913779   -0.136060281   -0.701088392
   3  H       1.00   -1.487214460    2.127831616   -0.202200695
   4  H       1.00   -2.772228225   -1.005334298    0.519674684
   5  H       1.00    2.789235760    0.912737718   -0.633058252
   6  H       1.00    1.504221995   -2.222317922    0.088817128

 Bond lengths in Bohr (Angstrom)

 1-2  3.366370339  1-3  2.231509721  1-4  1.615369902  2-5  1.616595259  2-6  2.231509721
     ( 1.781406467)     ( 1.180864090)     ( 0.854816939)     ( 0.855465370)     ( 1.180864090)

 Bond angles

  1-2-5  130.57488158   1-2-6   83.70676780   2-1-3   83.70676780   2-1-4  130.61676984

  3-1-4  127.61244272   5-2-6  127.65804218

 NUCLEAR CHARGE:                   16
 NUMBER OF PRIMITIVE AOS:          72
 NUMBER OF SYMMETRY AOS:           70
 NUMBER OF CONTRACTIONS:           36   (   36A   )
 NUMBER OF CORE ORBITALS:           2   (    2A   )
 NUMBER OF VALENCE ORBITALS:       12   (   12A   )


 NUCLEAR REPULSION ENERGY   30.62921144

 Eigenvalues of metric

         1 0.148E-01 0.195E-01 0.272E-01 0.690E-01 0.837E-01 0.163E+00 0.182E+00 0.282E+00


 Contracted 2-electron integrals neglected if value below      1.0D-11
 AO integral compression algorithm  1   Integral accuracy      1.0D-11

     1.311 MB (compressed) written to integral file ( 66.9%)


 NUMBER OF SORTED TWO-ELECTRON INTEGRALS:     222111.     BUFFER LENGTH:  32768
 NUMBER OF SEGMENTS:   1  SEGMENT LENGTH:     222111      RECORD LENGTH: 524288

 Memory used in sort:       0.78 MW

 SORT1 READ      284735. AND WROTE      212405. INTEGRALS IN      1 RECORDS. CPU TIME:     0.01 SEC, REAL TIME:     0.01 SEC
 SORT2 READ      212405. AND WROTE      222111. INTEGRALS IN      5 RECORDS. CPU TIME:     0.02 SEC, REAL TIME:     0.03 SEC

 FILE SIZES:   FILE 1:    31.4 MBYTE,  FILE 4:     4.2 MBYTE,   TOTAL:     35.6 MBYTE

 OPERATOR DM      FOR CENTER  0  COORDINATES:    0.000000    0.000000    0.000000


 **********************************************************************************************************************************
 DATASETS  * FILE   NREC   LENGTH (MB)   RECORD NAMES
              1      19       31.10       500      610      700      900      950      970     1000      129      960     1100   
                                          VAR    BASINP    GEOM    SYMINP    ZMAT    AOBASIS   BASIS     P2S    ABASIS      S 
                                         1400     1410     1200     1210     1080     1600     1650     1300     1700   
                                           T        V       H0       H01     AOSYM     SMH    MOLCAS    ERIS     OPER   

 PROGRAMS   *        TOTAL       INT
 CPU TIMES  *         0.31      0.20
 REAL TIME  *         0.46 SEC
 DISK USED  *        35.97 MB
 **********************************************************************************************************************************


 PROGRAM * RHF-SCF (CLOSED SHELL)       Authors: W. Meyer, H.-J. Werner


 NUMBER OF ELECTRONS:       8+    8-    SPACE SYMMETRY=1    SPIN SYMMETRY: Singlet 
 CONVERGENCE THRESHOLDS:    1.00E-05 (Density)    1.00E-07 (Energy)
 MAX. NUMBER OF ITERATIONS:       60
 INTERPOLATION TYPE:            DIIS
 INTERPOLATION STEPS:              2 (START)      1 (STEP)
 LEVEL SHIFTS:                  0.00 (CLOSED)  0.00 (OPEN) 



 Orbital guess generated from atomic densities. Full valence occupancy:    8

 Molecular orbital dump at record        2100.2

 Initial occupancy:   8

 ITERATION    DDIFF          GRAD             ENERGY        2-EL.EN.            DIPOLE MOMENTS         DIIS   ORB.
    1      0.000D+00      0.000D+00       -77.67063700    111.542701    0.00232    0.00040   -0.00132    0    start
    2      0.000D+00      0.720D-02       -77.69342392    110.981552   -0.00147   -0.00021    0.00122    1    diag
    3      0.858D-02      0.238D-02       -77.69734749    111.221391    0.00305    0.00048   -0.00207    2    diag
    4      0.387D-02      0.965D-03       -77.69849553    111.136337   -0.00287   -0.00038    0.00218    3    diag
    5      0.206D-02      0.623D-03       -77.69943817    111.160024    0.00797    0.00135   -0.00576    4    diag
    6      0.238D-02      0.355D-03       -77.69975576    111.165016   -0.01048   -0.00158    0.00777    5    diag
    7      0.146D-02      0.231D-03       -77.69985066    111.166688    0.00164    0.00039   -0.00115    6    diag
    8      0.915D-03      0.702D-04       -77.69986055    111.168946   -0.00004    0.00012    0.00008    7    diag
    9      0.270D-03      0.227D-04       -77.69986160    111.169623    0.00005    0.00014    0.00001    8    diag
   10      0.964D-04      0.500D-05       -77.69986164    111.169530    0.00005    0.00014    0.00001    9    orth
   11      0.168D-04      0.111D-05       -77.69986164    111.169501    0.00005    0.00014    0.00001    9    diag
   12      0.371D-05      0.180D-06       -77.69986164    111.169502    0.00005    0.00014    0.00001    0    orth

 Final occupancy:   8

 !RHF STATE  1.1 Energy               -77.699861638893
 Nuclear energy                        30.62921144
 One-electron energy                 -163.91382421
 Two-electron energy                   55.58475113
 Virial quotient                       -0.99498210
 !RHF STATE  1.1 Dipole moment          0.00004850     0.00014052     0.00001088
 Dipole moment /Debye                   0.00012328     0.00035713     0.00002764

 ELECTRON ORBITALS
 =================

  Orbital  Occupation    Energy     Coefficients
    1.1     2.00000   -11.26941     1 1s   -0.62906     2 1s   -0.77248
    2.1     2.00000   -11.26910     1 1s   -0.77254     2 1s    0.62912
    3.1     2.00000    -0.98241     1 1s    0.28360     2 1s    0.28307
    4.1     2.00000    -0.88650     1 1s   -0.26097     2 1s    0.26153
    5.1     2.00000    -0.64124     1 2px  -0.27704     2 2px   0.27704
    6.1     2.00000    -0.61718     1 2py   0.29786     2 2py   0.29777
    7.1     2.00000    -0.38753     1 2px  -0.27847     1 2py   0.25277     2 2px   0.27845     2 2py  -0.25262
    8.1     2.00000    -0.31879     1 2pz   0.30711     1 2pz   0.31767     2 2pz   0.30714     2 2pz   0.31771
    9.1     0.00000     0.06988     1 2pz  -0.35707     1 2pz  -0.49327     2 2pz   0.35703     2 2pz   0.49325
   10.1     0.00000     0.23233     1 1s   -1.17193     1 2py  -0.42096     1 2pz   0.26101     2 1s   -1.17457     2 2py   0.41992
                                    2 2pz  -0.26166     3 1s    1.09548     4 1s    0.58209     5 1s    0.58385     6 1s    1.09555
   11.1     0.00000     0.26145     1 1s    1.23821     1 2px   0.52193     1 2py  -0.42914     1 2pz  -0.33453     2 1s   -1.23530
                                    2 2px   0.52275     2 2py  -0.43035     2 2pz  -0.33393     4 1s   -0.73632     5 1s    0.73527
   12.1     0.00000     0.32056     1 1s   -1.25584     1 2py  -0.63555     1 2pz   0.31541     2 1s    1.25457     2 2py  -0.63550
                                    2 2pz   0.31534     3 1s    1.48713     4 1s    0.30455     5 1s   -0.30328     6 1s   -1.48668
   13.1     0.00000     0.35102     1 1s   -1.55193     1 2px   0.80399     1 2py   1.12034     2 1s   -1.55338     2 2px  -0.80897
                                    2 2py  -1.12381     3 1s   -0.56295     4 1s    2.49624     5 1s    2.50449     6 1s   -0.56518
   14.1     0.00000     0.36616     1 1s   -0.77542     1 2px   1.30379     1 2py   0.68242     1 2pz  -0.32435     2 1s    0.76438
                                    2 2px   1.29883     2 2py   0.67755     2 2pz  -0.32468     3 1s   -0.46608     4 1s    2.28667
                                    5 1s   -2.27128     6 1s    0.46431
   15.1     0.00000     0.64583     1 1s   -0.44219     1 2px  -0.36469     1 2px   1.48035     1 2py   0.75546     1 2pz  -0.25616
                                    2 1s    0.43815     2 2px  -0.36486     2 2px   1.47845     2 2py   0.75446     2 2pz  -0.25650
                                    3 1s   -0.30782     4 1s    0.42140     4 1s    1.01433     5 1s   -0.42142     5 1s   -1.01041
                                    6 1s    0.30851
   16.1     0.00000     0.75689     1 1s   -0.71550     1 2px  -0.39098     1 2py   0.43643     1 2px   0.71800     1 2py  -0.45138
                                    2 1s   -0.71369     2 2px   0.39110     2 2py  -0.43649     2 2px  -0.71588     2 2py   0.45224
                                    3 1s    0.35479     4 1s    0.40743     5 1s    0.40429     6 1s    0.35473
   17.1     0.00000     0.80227     1 2pz   0.77674     1 2px   0.30579     1 2pz  -0.73081     2 2pz   0.77685     2 2px   0.30556
                                    2 2pz  -0.73098
   18.1     0.00000     0.84860     1 1s    0.26416     1 1s   -0.59871     1 2pz   0.75931     1 2py   0.33837     1 2pz  -0.86506
                                    2 1s    0.26388     2 1s   -0.59775     2 2pz  -0.75919     2 2py  -0.33773     2 2pz   0.86482
                                    4 1s    0.37491     5 1s    0.37376
   19.1     0.00000     0.88315     1 1s    0.31648     1 1s   -0.58713     1 2px   0.48442     1 2py  -0.49136     1 2px  -0.53040
                                    1 2py   1.00336     2 1s   -0.31552     2 1s    0.58069     2 2px   0.48525     2 2py  -0.48952
                                    2 2px  -0.53494     2 2py   0.99753     3 1s   -0.26912     3 1s   -0.52019     4 1s    0.32437
                                    5 1s   -0.31827     6 1s    0.26937     6 1s    0.51926
   20.1     0.00000     0.92632     1 1s   -0.29459     1 1s    1.85209     1 2py   0.50636     1 2px  -1.23620     1 2py  -1.76984
                                    1 2pz  -0.29629     2 1s   -0.29569     2 1s    1.85143     2 2py  -0.50842     2 2px   1.23125
                                    2 2py   1.77408     2 2pz   0.29636     3 1s    0.42218     4 1s   -0.39413     4 1s   -1.84303
                                    5 1s   -0.39479     5 1s   -1.84001     6 1s    0.42522
   21.1     0.00000     1.03501     1 1s    0.68790     1 1s   -0.42224     1 2px   0.57937     1 2px  -0.71097     1 2py  -0.62697
                                    1 2pz   0.27091     2 1s    0.68773     2 1s   -0.42233     2 2px  -0.57971     2 2px   0.71189
                                    2 2py   0.62811     2 2pz  -0.27118     3 1s    0.38245     3 1s    0.25965     4 1s   -0.45473
                                    5 1s   -0.45587     6 1s    0.38275     6 1s    0.25996
   22.1     0.00000     1.11901     1 1s   -0.37651     1 1s    0.68486     1 2py  -0.41377     1 2px  -0.50129     1 2py   0.54914
                                    2 1s    0.37582     2 1s   -0.68314     2 2py  -0.41297     2 2px  -0.50106     2 2py   0.54825
                                    3 1s    0.76635     3 1s   -1.27268     4 1s   -0.29339     5 1s    0.29326     6 1s   -0.76528
                                    6 1s    1.27091
   23.1     0.00000     1.13017     1 1s   -0.90034     1 1s    2.00993     1 2py  -0.26913     1 2px  -0.50527     2 1s   -0.90052
                                    2 1s    2.00857     2 2py   0.26895     2 2px   0.50632     3 1s    0.63391     3 1s   -1.07512
                                    4 1s   -0.81303     5 1s   -0.81306     6 1s    0.63534     6 1s   -1.07597
   24.1     0.00000     1.19655     1 1s    1.23102     1 1s   -2.95105     1 2px   0.27683     1 2py   0.32669     1 2px  -1.49355
                                    1 2py  -0.73828     1 2pz   0.76066     2 1s   -1.23118     2 1s    2.95217     2 2px   0.27657
                                    2 2py   0.32714     2 2px  -1.49291     2 2py  -0.73827     2 2pz   0.76072     3 1s    0.31367
                                    3 1s    0.62431     4 1s   -0.39478     5 1s    0.39445     6 1s   -0.31288     6 1s   -0.62520
   25.1     0.00000     1.48343     1 1s   -0.61247     1 1s    0.94128     1 2py   0.29758     1 2px  -0.31508     1 2py  -0.29849
                                    2 1s   -1.02700     2 1s    1.81630     2 2px  -0.44892     2 2py  -0.48278     2 2px   0.57801
                                    2 2py   0.55270     4 1s    0.56359     4 1s   -0.94843     5 1s    0.86225     5 1s   -1.71924
   26.1     0.00000     1.48559     1 1s   -1.05469     1 1s    2.14216     1 2px   0.53003     1 2py   0.47636     1 2px  -0.65568
                                    1 2py  -0.62875     1 3d2-  0.26932     2 1s    0.65738     2 1s   -1.47208     2 2px   0.36449
                                    2 2py   0.28794     2 2px  -0.43817     2 2py  -0.42272     4 1s    0.78931     4 1s   -1.91905
                                    5 1s   -0.44444     5 1s    1.27155
   27.1     0.00000     1.76640     1 3d0  -0.38731     1 3d2- -0.29356     1 3d1+  0.43550     2 3d0   0.38752     2 3d2-  0.29327
                                    2 3d1+ -0.43539
   28.1     0.00000     1.86665     1 2px  -0.28007     1 2px   0.30376     1 3d1+ -0.38857     1 3d2+  0.43583     2 2px   0.27990
                                    2 2px  -0.30264     2 3d1+ -0.38805     2 3d2+  0.43621     4 1s    0.28314     5 1s    0.28147
   29.1     0.00000     1.94383     1 3d2+ -0.31697     1 3d1-  0.54979     2 3d2+  0.31652     2 3d1- -0.54913
   30.1     0.00000     2.04166     1 1s    0.60168     1 2py  -0.29955     1 3d0  -0.39902     1 3d1+ -0.30796     1 3d2+ -0.29831
                                    1 3d1-  0.38727     2 1s    0.60145     2 2py   0.29982     2 3d0  -0.39859     2 3d1+ -0.30833
                                    2 3d2+ -0.29846     2 3d1-  0.38753     4 1s   -0.42067     5 1s   -0.42018
   31.1     0.00000     2.23147     1 3d0   0.47633     1 3d2-  0.29520     1 3d1+ -0.38028     1 3d1-  0.28777     2 3d0   0.47670
                                    2 3d2-  0.29525     2 3d1+ -0.38034     2 3d1-  0.28821
   32.1     0.00000     2.35040     1 1s    0.27579     1 1s   -0.90511     1 2px  -0.52620     1 2py  -0.33400     1 2pz   0.29569
                                    1 3d0   0.44436     1 3d2+  0.34946     1 3d1-  0.41983     2 1s   -0.27598     2 1s    0.90563
                                    2 2px  -0.52584     2 2py  -0.33372     2 2pz   0.29586     2 3d0  -0.44383     2 3d2+ -0.34968
                                    2 3d1- -0.41950     3 1s    0.56546     6 1s   -0.56528
   33.1     0.00000     2.38267     1 2py  -0.54833     1 3d1+  0.29790     1 3d2+  0.44726     1 3d1-  0.50251     2 2py   0.54923
                                    2 3d1+  0.29803     2 3d2+  0.44721     2 3d1-  0.50292     3 1s    0.53113     4 1s   -0.29904
                                    5 1s   -0.29944     6 1s    0.53127
   34.1     0.00000     2.65114     1 1s   -0.46385     1 1s    0.80909     1 2px   0.28890     1 2px   0.89546     1 2py   0.32047
                                    1 2pz  -0.31771     1 3d2- -0.63429     1 3d1+ -0.41378     1 3d2+  0.33210     2 1s    0.46344
                                    2 1s   -0.80839     2 2px   0.28856     2 2px   0.89600     2 2py   0.32105     2 2pz  -0.31756
                                    2 3d2-  0.63625     2 3d1+  0.41368     2 3d2+ -0.33325     4 1s    0.79643     5 1s   -0.79777
   35.1     0.00000     2.77254     1 1s   -1.01201     1 2px  -0.44613     1 3d0   0.43761     1 3d2- -0.38412     1 3d1+  0.36680
                                    1 3d2+ -0.53630     2 1s    1.01653     2 2px  -0.44317     2 3d0  -0.44101     2 3d2-  0.39070
                                    2 3d1+ -0.36608     2 3d2+  0.53634     4 1s    0.70900     5 1s   -0.71611
   36.1     0.00000     2.92510     1 1s    0.48135     1 2px  -0.25744     1 2px  -0.35172     1 2py  -0.30910     1 3d0  -0.41702
                                    1 3d2-  0.78550     2 1s    0.47587     2 2px   0.25428     2 2px   0.35182     2 2py   0.30732
                                    2 3d0  -0.41310     2 3d2-  0.78051     4 1s   -1.06347     5 1s   -1.05380


 HOMO      8.1    -0.318793 =      -8.6748eV
 LUMO      9.1     0.069877 =       1.9015eV
 LUMO-HOMO         0.388671 =      10.5763eV


 **********************************************************************************************************************************
 DATASETS  * FILE   NREC   LENGTH (MB)   RECORD NAMES
              1      19       31.10       500      610      700      900      950      970     1000      129      960     1100   
                                          VAR    BASINP    GEOM    SYMINP    ZMAT    AOBASIS   BASIS     P2S    ABASIS      S 
                                         1400     1410     1200     1210     1080     1600     1650     1300     1700   
                                           T        V       H0       H01     AOSYM     SMH    MOLCAS    ERIS     OPER   

              2       4        2.86       700     1000      520     2100   
                                         GEOM     BASIS   MCVARS     RHF  

 PROGRAMS   *        TOTAL    HF-SCF       INT
 CPU TIMES  *         0.43      0.12      0.20
 REAL TIME  *         0.71 SEC
 DISK USED  *        35.97 MB
 **********************************************************************************************************************************


 PROGRAM * MULTI (Direct Multiconfiguration SCF)       Authors: P.J. Knowles, H.-J. Werner (1984)


 Number of closed-shell orbitals:   7 (   7 )
 Number of active  orbitals:        2 (   2 )
 Number of external orbitals:      27 (  27 )

 State symmetry 1

 Number of electrons:     2    Spin symmetry=Singlet   Space symmetry=1
 Number of states:        3
 Number of CSFs:          3   (4 determinants, 4 intermediate states)

 Molecular orbitals read from record     2100.2  Type=RHF/CANONICAL (state 1.1)

 Wavefunction dump at record             2140.2

 Convergence thresholds  0.10E-01 (gradient)  0.10E-05 (energy)  0.10E-02 (step length)

 Weight factors for state symmetry  1:    0.33333   0.33333   0.33333

 Number of orbital rotations:      257   (    14 Core/Active    189 Core/Virtual   0 Active/Active     54 Active/Virtual)
 Total number of variables:        269

 Micro-Iterations solved by the two-step solver

 ITER. MIC  NCI  NEG     ENERGY(VAR)     ENERGY(PROJ)   ENERGY CHANGE     GRAD(0)  GRAD(ORB)   GRAD(CI)     STEP       TIME

   1   16    8    1     -77.51893532     -77.53785652   -0.01892121    0.08821374 0.00083001 0.00000000  0.33D+00      0.41
   2   11    6    0     -77.55775106     -77.57096356   -0.01321250    0.09879050 0.00001663 0.00000000  0.20D+00      0.60
   3   14    6    0     -77.57230312     -77.57382748   -0.00152436    0.02750606 0.00001887 0.00000000  0.10D+00      0.80
   4   12    6    0     -77.57392611     -77.57398455   -0.00005843    0.00587434 0.00000272 0.00000000  0.20D-01      0.92
   5   11    6    0     -77.57398512     -77.57398515   -0.00000003    0.00017469 0.00000000 0.00000000  0.40D-03      1.03
   6    5    3    0     -77.57398515     -77.57398515   -0.00000000    0.00000007 0.00000000 0.00000000  0.28D-06      1.08

 ** WVFN ****  CONVERGENCE REACHED, FINAL GRADIENT:  0.26D-12



 Results for state 1.1
 =====================

 !MCSCF STATE  1.1 Energy             -77.692163653539
 Nuclear energy                        30.62921144
 Kinetic energy                        78.12379593
 One electron energy                 -163.97991218
 Two electron energy                   55.65853709
 Virial ratio                           1.99447502

 !MCSCF STATE  1.1 Dipole moment        0.00010570     0.00016076     0.00011250
 Dipole moment /Debye                   0.00026865     0.00040858     0.00028593

 Results for state 2.1
 =====================

 !MCSCF STATE  2.1 Energy             -77.594879925464
 Nuclear energy                        30.62921144
 Kinetic energy                        78.25873714
 One electron energy                 -163.74340476
 Two electron energy                   55.51931339
 Virial ratio                           1.99151715

 !MCSCF STATE  2.1 Dipole moment        0.00011913     0.00009655    -0.00012114
 Dipole moment /Debye                   0.00030277     0.00024538    -0.00030790

 Results for state 3.1
 =====================

 !MCSCF STATE  3.1 Energy             -77.434911875734
 Nuclear energy                        30.62921144
 Kinetic energy                        78.40045525
 One electron energy                 -163.49348925
 Two electron energy                   55.42936594
 Virial ratio                           1.98768447

 !MCSCF STATE  3.1 Dipole moment        0.00001909     0.00005944    -0.00031061
 Dipole moment /Debye                   0.00004851     0.00015106    -0.00078943

 State-averaged charge density matrix saved on record  2140.2 (density set 1)

 !MCSCF expec         <1.1|DMX|1.1>     0.000105701156 au =     0.000268647944 Debye
 !MCSCF trans         <2.1|DMX|1.1>    -0.000736791048 au =    -0.001872613392 Debye
 !MCSCF expec         <2.1|DMX|2.1>     0.000119125749 au =     0.000302767622 Debye
 !MCSCF trans         <3.1|DMX|1.1>    -0.000014703913 au =    -0.000037371171 Debye
 !MCSCF trans         <3.1|DMX|2.1>    -0.000812492363 au =    -0.002065014341 Debye
 !MCSCF expec         <3.1|DMX|3.1>     0.000019087833 au =     0.000048513256 Debye

 !MCSCF expec         <1.1|DMY|1.1>     0.000160760155 au =     0.000408584795 Debye
 !MCSCF trans         <2.1|DMY|1.1>     0.000175213466 au =     0.000445319040 Debye
 !MCSCF expec         <2.1|DMY|2.1>     0.000096547272 au =     0.000245382616 Debye
 !MCSCF trans         <3.1|DMY|1.1>     0.000009568984 au =     0.000024320339 Debye
 !MCSCF trans         <3.1|DMY|2.1>     0.000194788715 au =     0.000495071104 Debye
 !MCSCF expec         <3.1|DMY|3.1>     0.000059437088 au =     0.000151064115 Debye

 !MCSCF expec         <1.1|DMZ|1.1>     0.000112499893 au =     0.000285927477 Debye
 !MCSCF trans         <2.1|DMZ|1.1>     0.000283974397 au =     0.000721743648 Debye
 !MCSCF expec         <2.1|DMZ|2.1>    -0.000121143856 au =    -0.000307896802 Debye
 !MCSCF trans         <3.1|DMZ|1.1>     0.000028402802 au =     0.000072187992 Debye
 !MCSCF trans         <3.1|DMZ|2.1>     0.000319040820 au =     0.000810867768 Debye
 !MCSCF expec         <3.1|DMZ|3.1>    -0.000310605232 au =    -0.000789428046 Debye


 NATURAL ORBITALS (state averaged)
 =================================

  Orbital  Occupation    Energy     Coefficients
    1.1     2.00000   -11.25995     1 1s   -0.59100     2 1s   -0.80193
    2.1     2.00000   -11.25974     1 1s   -0.80196     2 1s    0.59104
    3.1     2.00000    -0.98419     1 1s    0.28065     2 1s    0.28020
    4.1     2.00000    -0.87950     1 1s   -0.26136     2 1s    0.26184
    5.1     2.00000    -0.64587     1 2px  -0.25105     2 2px   0.25106
    6.1     2.00000    -0.62227     1 2py   0.28589     2 2py   0.28573
    7.1     2.00000    -0.35496     1 2pz  -0.33798     1 2pz  -0.31936     2 2pz  -0.33799     2 2pz  -0.31938
    8.1     1.00000    -0.09366     1 2pz  -0.42627     1 2pz  -0.41791     2 2pz   0.42626     2 2pz   0.41792
    9.1     1.00000    -0.21908     1 2px  -0.30116     2 2px   0.30130
   10.1    -0.00000     0.22047     1 1s   -1.12648     1 2py  -0.46711     2 1s   -1.12863     2 2py   0.46649     3 1s    1.11038
                                    4 1s    0.49492     5 1s    0.49623     6 1s    1.11085
   11.1    -0.00000     0.26433     1 1s    1.48926     1 2px   0.50604     1 2py  -0.28204     1 2pz  -0.36011     2 1s   -1.48701
                                    2 2px   0.50670     2 2py  -0.28313     2 2pz  -0.35955     4 1s   -0.78105     5 1s    0.78041
   12.1    -0.00000     0.31110     1 1s   -0.79492     1 2py  -0.82694     1 2pz   0.27299     2 1s    0.79392     2 2py  -0.82750
                                    2 2pz   0.27307     3 1s    1.53855     6 1s   -1.53864
   13.1    -0.00000     0.35303     1 1s   -1.61012     1 2px   0.81480     1 2py   1.10313     2 1s   -1.61253     2 2px  -0.82009
                                    2 2py  -1.10577     3 1s   -0.51834     4 1s    2.52277     5 1s    2.53108     6 1s   -0.51895
   14.1    -0.00000     0.36868     1 1s   -0.92804     1 2px   1.33006     1 2py   0.56403     1 2pz  -0.27130     2 1s    0.91653
                                    2 2px   1.32497     2 2py   0.55913     2 2pz  -0.27156     4 1s    2.29328     5 1s   -2.27744
   15.1    -0.00000     0.64602     1 1s   -0.41840     1 2px  -0.36511     1 2px   1.44003     1 2py   0.75705     2 1s    0.41437
                                    2 2px  -0.36530     2 2px   1.43815     2 2py   0.75608     3 1s   -0.33264     4 1s    0.42236
                                    4 1s    0.96901     5 1s   -0.42240     5 1s   -0.96512     6 1s    0.33335
   16.1    -0.00000     0.75343     1 1s   -0.70253     1 2px  -0.38093     1 2py   0.41111     1 2px   0.71411     1 2py  -0.41666
                                    2 1s   -0.70056     2 2px   0.38109     2 2py  -0.41123     2 2px  -0.71211     2 2py   0.41754
                                    3 1s    0.38790     3 1s   -0.27090     4 1s    0.41309     5 1s    0.40992     6 1s    0.38783
                                    6 1s   -0.27072
   17.1    -0.00000     0.79198     1 2pz   0.76468     1 2px   0.39214     1 2pz  -0.77101     2 2pz   0.76484     2 2px   0.39163
                                    2 2pz  -0.77134
   18.1    -0.00000     0.84100     1 1s   -0.41661     1 2pz   0.73227     1 2pz  -0.93362     2 1s   -0.41608     2 2pz  -0.73203
                                    2 2pz   0.93328
   19.1    -0.00000     0.88588     1 1s    0.33361     1 1s   -0.60863     1 2px   0.48146     1 2py  -0.47600     1 2px  -0.45515
                                    1 2py   0.97082     2 1s   -0.33250     2 1s    0.60178     2 2px   0.48218     2 2py  -0.47400
                                    2 2px  -0.45973     2 2py   0.96466     3 1s   -0.31198     3 1s   -0.44342     4 1s    0.36681
                                    5 1s   -0.36039     6 1s    0.31231     6 1s    0.44237
   20.1    -0.00000     0.92601     1 1s   -0.29949     1 1s    1.80604     1 2py   0.52930     1 2px  -1.17184     1 2py  -1.76645
                                    1 2pz  -0.25556     2 1s   -0.30062     2 1s    1.80545     2 2py  -0.53136     2 2px   1.16706
                                    2 2py   1.77067     2 2pz   0.25554     3 1s    0.44620     4 1s   -0.38970     4 1s   -1.80175
                                    5 1s   -0.39035     5 1s   -1.79892     6 1s    0.44905
   21.1    -0.00000     1.02629     1 1s    0.67227     1 1s   -0.34326     1 2px   0.59037     1 2px  -0.77205     1 2py  -0.68768
                                    2 1s    0.67213     2 1s   -0.34361     2 2px  -0.59070     2 2px   0.77286     2 2py   0.68885
                                    3 1s    0.37386     3 1s    0.28104     4 1s   -0.52971     5 1s   -0.53064     6 1s    0.37422
                                    6 1s    0.28137
   22.1    -0.00000     1.09666     1 1s   -0.32628     1 1s    0.57336     1 2py  -0.43638     1 2px  -0.58879     1 2py   0.56571
                                    2 1s    0.32608     2 1s   -0.57262     2 2py  -0.43573     2 2px  -0.58872     2 2py   0.56484
                                    3 1s    0.76240     3 1s   -1.27183     4 1s   -0.30181     5 1s    0.30196     6 1s   -0.76171
                                    6 1s    1.27071
   23.1    -0.00000     1.11468     1 1s   -0.91955     1 1s    2.09234     1 2py  -0.27046     1 2px  -0.55980     2 1s   -0.91957
                                    2 1s    2.09062     2 2py   0.27010     2 2px   0.56027     3 1s    0.61702     3 1s   -1.05372
                                    4 1s   -0.87635     5 1s   -0.87589     6 1s    0.61800     6 1s   -1.05387
   24.1    -0.00000     1.19047     1 1s    1.23459     1 1s   -2.95221     1 2px   0.27535     1 2py   0.33612     1 2px  -1.48677
                                    1 2py  -0.75343     1 2pz   0.75212     2 1s   -1.23467     2 1s    2.95325     2 2px   0.27506
                                    2 2py   0.33650     2 2px  -1.48605     2 2py  -0.75328     2 2pz   0.75218     3 1s    0.29240
                                    3 1s    0.65409     4 1s   -0.39902     5 1s    0.39860     6 1s   -0.29169     6 1s   -0.65481
   25.1    -0.00000     1.48490     1 1s   -0.71198     1 1s    1.14015     1 2px   0.27375     1 2py   0.33260     1 2px  -0.37303
                                    1 2py  -0.35133     2 1s   -0.97596     2 1s    1.69827     2 2px  -0.40990     2 2py  -0.44623
                                    2 2px   0.53894     2 2py   0.50989     4 1s    0.62597     4 1s   -1.11535     5 1s    0.81174
                                    5 1s   -1.60183
   26.1    -0.00000     1.48824     1 1s   -1.00488     1 1s    2.07087     1 2px   0.50664     1 2py   0.43572     1 2px  -0.62704
                                    1 2py  -0.59328     1 3d2-  0.26964     2 1s    0.75082     2 1s   -1.64189     2 2px   0.40348
                                    2 2py   0.31913     2 2px  -0.48872     2 2py  -0.46387     4 1s    0.72576     4 1s   -1.82838
                                    5 1s   -0.50997     5 1s    1.41835
   27.1    -0.00000     1.75943     1 3d0  -0.38682     1 3d2- -0.29375     1 3d1+  0.43379     2 3d0   0.38700     2 3d2-  0.29348
                                    2 3d1+ -0.43371
   28.1    -0.00000     1.86163     1 2px  -0.28858     1 2px   0.30924     1 3d1+ -0.38387     1 3d2+  0.44410     2 2px   0.28838
                                    2 2px  -0.30805     2 3d1+ -0.38331     2 3d2+  0.44452     4 1s    0.29878     5 1s    0.29699
   29.1    -0.00000     1.94101     1 3d2+ -0.31864     1 3d1-  0.54795     2 3d2+  0.31818     2 3d1- -0.54728
   30.1    -0.00000     2.03873     1 1s    0.60475     1 2py  -0.30055     1 3d0  -0.39930     1 3d1+ -0.31340     1 3d2+ -0.29455
                                    1 3d1-  0.38397     2 1s    0.60454     2 2py   0.30080     2 3d0  -0.39890     2 3d1+ -0.31376
                                    2 3d2+ -0.29469     2 3d1-  0.38421     4 1s   -0.42403     5 1s   -0.42352
   31.1    -0.00000     2.22563     1 3d0   0.47461     1 3d2-  0.30229     1 3d1+ -0.37814     1 3d1-  0.28635     2 3d0   0.47496
                                    2 3d2-  0.30237     2 3d1+ -0.37820     2 3d1-  0.28680
   32.1    -0.00000     2.34416     1 1s    0.27552     1 1s   -0.88675     1 2px  -0.50860     1 2py  -0.33430     1 2pz   0.28849
                                    1 3d0   0.43888     1 3d2+  0.36172     1 3d1-  0.42281     2 1s   -0.27574     2 1s    0.88718
                                    2 2px  -0.50834     2 2py  -0.33426     2 2pz   0.28873     2 3d0  -0.43832     2 3d2+ -0.36212
                                    2 3d1- -0.42269     3 1s    0.55821     6 1s   -0.55825
   33.1    -0.00000     2.37241     1 2py  -0.55556     1 3d1+  0.30007     1 3d2+  0.44194     1 3d1-  0.50886     2 2py   0.55629
                                    2 3d1+  0.30011     2 3d2+  0.44174     2 3d1-  0.50910     3 1s    0.52430     4 1s   -0.30843
                                    5 1s   -0.30871     6 1s    0.52421
   34.1    -0.00000     2.64285     1 1s   -0.47724     1 1s    0.85726     1 2px   0.28245     1 2px   0.91509     1 2py   0.31951
                                    1 2pz  -0.32866     1 3d2- -0.62292     1 3d1+ -0.42610     1 3d2+  0.34093     2 1s    0.47683
                                    2 1s   -0.85662     2 2px   0.28212     2 2px   0.91558     2 2py   0.32006     2 2pz  -0.32852
                                    2 3d2-  0.62476     2 3d1+  0.42602     2 3d2+ -0.34205     4 1s    0.78178     5 1s   -0.78306
   35.1    -0.00000     2.76564     1 1s   -1.01299     1 2px  -0.44013     1 3d0   0.44855     1 3d2- -0.39613     1 3d1+  0.36114
                                    1 3d2+ -0.52163     2 1s    1.01754     2 2px  -0.43716     2 3d0  -0.45203     2 3d2-  0.40272
                                    2 3d1+ -0.36040     2 3d2+  0.52166     4 1s    0.73217     5 1s   -0.73937
   36.1    -0.00000     2.91991     1 1s    0.47970     1 2px  -0.26155     1 2px  -0.34951     1 2py  -0.30739     1 3d0  -0.42248
                                    1 3d2-  0.78101     2 1s    0.47421     2 2px   0.25831     2 2px   0.34963     2 2py   0.30564
                                    2 3d0  -0.41850     2 3d2-  0.77598     4 1s   -1.06789     5 1s   -1.05809


 Natural orbital dump (state averaged) at molpro section  2140.2    (Orbital set 2)



 **********************************************************************************************************************************
 DATASETS  * FILE   NREC   LENGTH (MB)   RECORD NAMES
              1      20       31.83       500      610      700      900      950      970     1000      129      960     1100   
                                          VAR    BASINP    GEOM    SYMINP    ZMAT    AOBASIS   BASIS     P2S    ABASIS      S 
                                         1400     1410     1200     1210     1080     1600     1650     1300     1700     1380   
                                           T        V       H0       H01     AOSYM     SMH    MOLCAS    ERIS     OPER     JKOP   

              2       5        5.42       700     1000      520     2100     2140   
                                         GEOM     BASIS   MCVARS     RHF     MCSCF   

 PROGRAMS   *        TOTAL     MULTI    HF-SCF       INT
 CPU TIMES  *         1.55      1.12      0.12      0.20
 REAL TIME  *         1.93 SEC
 DISK USED  *        39.01 MB
 **********************************************************************************************************************************
 Molecular orbitals read from record     2140.2  Type=MCSCF/NATURAL (state averaged)
 Occupation numbers read from record     2140.2  Type=MCSCF/NATURAL (state averaged)
 Orbital energies read from record       2140.2  Type=MCSCF/NATURAL (state averaged)
 Redundancy group numbers read from rec  2140.2  Type=MCSCF/NATURAL (state averaged)

 MULTI/6-31G* energy=    -77.434911875734

           MULTI          HF-SCF
    -77.43491188    -77.69986164
 **********************************************************************************************************************************
 Molpro calculation terminated
