
 Primary working directories    : /scratch.local/johan406.molpro_temp/molpro.7DmW2zKH1G
 Secondary working directories  : /scratch.local/johan406.molpro_temp/molpro.7DmW2zKH1G
 Wavefunction directory         : /home/goodpast/johan406/wfu/
 Main file repository           : /scratch.local/johan406.molpro_temp/molpro.7DmW2zKH1G/

 id        : roweumn

 Nodes     nprocs
 acn06        1

 Using customized tuning parameters: mindgm=1; mindgv=20; mindgc=4; mindgr=1; noblas=0; minvec=7
 default implementation of scratch files=df  


 Variables initialized (934), CPU time= 0.00 sec
                                                                                 !leave this line blank
 
 gprint, orbitals=30
 memory, 125., m
 symmetry, nosym
 nelect=16
 basis=6-31g*
 
 geometry={
 C -0.799 0.017 0.308
 C 0.808 -0.067 -0.369
 H -0.791 1.146 -0.130
 H -1.509 -0.528 0.263
 H 1.517 0.478 -0.322
 H 0.799 -1.196 0.069
 }
 
 hf
 {multi,
 closed 7
 occ 9
 wf,spin=0;STATE,3
 }
 
 Commands  initialized (763), CPU time= 0.01 sec, 617 directives.
 Default parameters read. Elapsed time= 0.06 sec

 Checking input...
 Passed
1


                                         ***  PROGRAM SYSTEM MOLPRO  ***
                                       Copyright, TTI GmbH Stuttgart, 2015
                                    Version 2019.2 linked Oct 25 2019 22:50:27


 **********************************************************************************************************************************
 LABEL *                                                                                 
  64 bit serial version                                                                  DATE: 15-Mar-23          TIME: 16:44:11  
 **********************************************************************************************************************************

 SHA1:             8dbd9ae1082e4ce945b0f27595c9eb2d4aa09004
 **********************************************************************************************************************************


 Variable memory set to  125000000 words,  buffer space 

 SETTING NELECT         =        16.00000000                                  
 SETTING BASIS          =    6-31G*
 ZSYMEL=NOSYM


Geometry recognized as XYZ



 Recomputing integrals since basis changed


 Using spherical harmonics

 Library entry C      S 6-31G                selected for orbital group  1
 Library entry C      P 6-31G                selected for orbital group  1
 Library entry C      D 6-31G*               selected for orbital group  1
 Library entry H      S 6-31G                selected for orbital group  2


 PROGRAM * SEWARD (Integral evaluation for generally contracted gaussian basis sets)     Author: Roland Lindh, 1990

 Geometry written to block  1 of record 700


 Point group  C1  



 ATOMIC COORDINATES

 NR  ATOM    CHARGE       X              Y              Z

   1  C       6.00   -1.509891174    0.032125344    0.582035646
   2  C       6.00    1.526898709   -0.126611650   -0.697308940
   3  H       1.00   -1.494773365    2.165626139   -0.245664396
   4  H       1.00   -2.851596722   -0.997775394    0.496997971
   5  H       1.00    2.866714531    0.903289088   -0.608491812
   6  H       1.00    1.509891174   -2.260112445    0.130391103

 Bond lengths in Bohr (Angstrom)

 1-2  3.299092723  1-3  2.288480183  1-4  1.693546786  2-5  1.692244205  2-6  2.288493447
     ( 1.745804686)     ( 1.211011561)     ( 0.896186365)     ( 0.895497069)     ( 1.211018580)

 Bond angles

  1-2-5  132.77755794   1-2-6   84.13190753   2-1-3   84.17565174   2-1-4  132.88460615

  3-1-4  123.64333641   5-2-6  123.66136087

 NUCLEAR CHARGE:                   16
 NUMBER OF PRIMITIVE AOS:          72
 NUMBER OF SYMMETRY AOS:           70
 NUMBER OF CONTRACTIONS:           36   (   36A   )
 NUMBER OF CORE ORBITALS:           2   (    2A   )
 NUMBER OF VALENCE ORBITALS:       12   (   12A   )


 NUCLEAR REPULSION ENERGY   30.34078486

 Eigenvalues of metric

         1 0.169E-01 0.194E-01 0.307E-01 0.742E-01 0.856E-01 0.183E+00 0.209E+00 0.281E+00


 Contracted 2-electron integrals neglected if value below      1.0D-11
 AO integral compression algorithm  1   Integral accuracy      1.0D-11

     1.311 MB (compressed) written to integral file ( 67.0%)


 NUMBER OF SORTED TWO-ELECTRON INTEGRALS:     222111.     BUFFER LENGTH:  32768
 NUMBER OF SEGMENTS:   1  SEGMENT LENGTH:     222111      RECORD LENGTH: 524288

 Memory used in sort:       0.78 MW

 SORT1 READ      284735. AND WROTE      212461. INTEGRALS IN      1 RECORDS. CPU TIME:     0.00 SEC, REAL TIME:     0.00 SEC
 SORT2 READ      212461. AND WROTE      222111. INTEGRALS IN      5 RECORDS. CPU TIME:     0.02 SEC, REAL TIME:     0.03 SEC

 FILE SIZES:   FILE 1:    31.4 MBYTE,  FILE 4:     4.2 MBYTE,   TOTAL:     35.6 MBYTE

 OPERATOR DM      FOR CENTER  0  COORDINATES:    0.000000    0.000000    0.000000


 **********************************************************************************************************************************
 DATASETS  * FILE   NREC   LENGTH (MB)   RECORD NAMES
              1      19       31.10       500      610      700      900      950      970     1000      129      960     1100   
                                          VAR    BASINP    GEOM    SYMINP    ZMAT    AOBASIS   BASIS     P2S    ABASIS      S 
                                         1400     1410     1200     1210     1080     1600     1650     1300     1700   
                                           T        V       H0       H01     AOSYM     SMH    MOLCAS    ERIS     OPER   

 PROGRAMS   *        TOTAL       INT
 CPU TIMES  *         0.26      0.17
 REAL TIME  *         0.37 SEC
 DISK USED  *        35.97 MB
 **********************************************************************************************************************************


 PROGRAM * RHF-SCF (CLOSED SHELL)       Authors: W. Meyer, H.-J. Werner


 NUMBER OF ELECTRONS:       8+    8-    SPACE SYMMETRY=1    SPIN SYMMETRY: Singlet 
 CONVERGENCE THRESHOLDS:    1.00E-05 (Density)    1.00E-07 (Energy)
 MAX. NUMBER OF ITERATIONS:       60
 INTERPOLATION TYPE:            DIIS
 INTERPOLATION STEPS:              2 (START)      1 (STEP)
 LEVEL SHIFTS:                  0.00 (CLOSED)  0.00 (OPEN) 



 Orbital guess generated from atomic densities. Full valence occupancy:    8

 Molecular orbital dump at record        2100.2

 Initial occupancy:   8

 ITERATION    DDIFF          GRAD             ENERGY        2-EL.EN.            DIPOLE MOMENTS         DIIS   ORB.
    1      0.000D+00      0.000D+00       -77.71792532    111.147529   -0.00378   -0.00032    0.00247    0    start
    2      0.000D+00      0.692D-02       -77.73941707    110.629397    0.00067    0.00054   -0.00046    1    diag
    3      0.819D-02      0.233D-02       -77.74325848    110.862518   -0.00462   -0.00042    0.00366    2    diag
    4      0.390D-02      0.941D-03       -77.74429890    110.770193    0.00181    0.00081   -0.00127    3    diag
    5      0.199D-02      0.591D-03       -77.74509396    110.791127   -0.00943   -0.00136    0.00745    4    diag
    6      0.227D-02      0.316D-03       -77.74530370    110.794772    0.00693    0.00193   -0.00533    5    diag
    7      0.111D-02      0.205D-03       -77.74537739    110.795259   -0.00262    0.00003    0.00213    6    diag
    8      0.785D-03      0.595D-04       -77.74538479    110.797127   -0.00156    0.00024    0.00130    7    diag
    9      0.232D-03      0.192D-04       -77.74538552    110.797614   -0.00163    0.00023    0.00135    8    diag
   10      0.786D-04      0.437D-05       -77.74538555    110.797515   -0.00162    0.00023    0.00135    9    orth
   11      0.146D-04      0.870D-06       -77.74538555    110.797495   -0.00162    0.00023    0.00135    9    diag
   12      0.275D-05      0.147D-06       -77.74538555    110.797496   -0.00162    0.00022    0.00135    0    orth

 Final occupancy:   8

 !RHF STATE  1.1 Energy               -77.745385548823
 Nuclear energy                        30.34078486
 One-electron energy                 -163.48491835
 Two-electron energy                   55.39874795
 Virial quotient                       -0.99860115
 !RHF STATE  1.1 Dipole moment         -0.00162017     0.00022490     0.00134622
 Dipole moment /Debye                  -0.00411779     0.00057161     0.00342153

 ELECTRON ORBITALS
 =================

  Orbital  Occupation    Energy     Coefficients
    1.1     2.00000   -11.27506     1 1s   -0.87532     2 1s   -0.47577
    2.1     2.00000   -11.27468     1 1s    0.47583     2 1s   -0.87535
    3.1     2.00000    -0.97632     1 1s    0.28396     2 1s    0.28413
    4.1     2.00000    -0.87061     1 1s    0.25847     2 1s   -0.25823
    5.1     2.00000    -0.63151     1 2px  -0.29480     2 2px   0.29479
    6.1     2.00000    -0.60280     1 2py   0.29529     2 2py   0.29490
    7.1     2.00000    -0.38757     1 2px   0.25855     1 2py  -0.26231     2 2px  -0.25823     2 2py   0.26247
    8.1     2.00000    -0.32517     1 2pz   0.30696     1 2pz   0.31381     2 2pz   0.30744     2 2pz   0.31416
    9.1     0.00000     0.07194     1 2pz   0.35595     1 2pz   0.49593     2 2pz  -0.35568     2 2pz  -0.49534
   10.1     0.00000     0.22592     1 1s   -1.07233     1 2px   0.25428     1 2py  -0.44780     1 2pz   0.26903     2 1s   -1.07052
                                    2 2px  -0.25372     2 2py   0.44801     2 2pz  -0.26910     3 1s    1.05652     4 1s    0.52232
                                    5 1s    0.52093     6 1s    1.05566
   11.1     0.00000     0.26189     1 1s    1.31960     1 2px   0.38982     1 2py  -0.46337     1 2pz  -0.31352     2 1s   -1.31828
                                    2 2px   0.39155     2 2py  -0.46055     2 2pz  -0.31500     4 1s   -0.90584     5 1s    0.90246
   12.1     0.00000     0.31235     1 1s   -1.20015     1 2py  -0.59155     1 2pz   0.29060     2 1s    1.20024     2 2py  -0.59236
                                    2 2pz   0.29120     3 1s    1.40180     4 1s    0.40289     5 1s   -0.40176     6 1s   -1.40308
   13.1     0.00000     0.34566     1 1s   -1.44561     1 2px   0.80072     1 2py   1.01463     2 1s   -1.45350     2 2px  -0.79234
                                    2 2py  -1.01359     3 1s   -0.46850     4 1s    2.31911     5 1s    2.31593     6 1s   -0.46532
   14.1     0.00000     0.37043     1 1s    0.32892     1 2px  -0.25428     1 2px  -1.42115     1 2py  -0.58529     1 2pz   0.40854
                                    2 1s   -0.33629     2 2px  -0.25472     2 2px  -1.42497     2 2py  -0.59011     2 2pz   0.40608
                                    3 1s    0.48572     4 1s   -2.02469     5 1s    2.03559     6 1s   -0.48777
   15.1     0.00000     0.65487     1 1s   -0.25646     1 2px  -0.36246     1 2px   1.50276     1 2py   0.64612     1 2pz  -0.27734
                                    2 1s    0.25846     2 2px  -0.36267     2 2px   1.50455     2 2py   0.64894     2 2pz  -0.27495
                                    4 1s    0.43268     4 1s    0.84939     5 1s   -0.43259     5 1s   -0.85316
   16.1     0.00000     0.76390     1 1s   -0.54465     1 2px  -0.39729     1 2py   0.47630     1 2px   0.68234     1 2py  -0.54881
                                    2 1s   -0.54604     2 2px   0.39715     2 2py  -0.47576     2 2px  -0.68090     2 2py   0.54740
                                    3 1s    0.33260     4 1s    0.31634     5 1s    0.31651     6 1s    0.33239
   17.1     0.00000     0.80170     1 2pz   0.77717     1 2px   0.27247     1 2pz  -0.72742     2 2pz   0.77565     2 2px   0.27287
                                    2 2pz  -0.72565
   18.1     0.00000     0.84596     1 1s   -0.26229     1 1s    0.55703     1 2pz  -0.75934     1 2py  -0.31268     1 2pz   0.86537
                                    2 1s   -0.26241     2 1s    0.55616     2 2pz   0.76101     2 2py   0.31318     2 2pz  -0.86657
                                    4 1s   -0.31935     5 1s   -0.31917
   19.1     0.00000     0.88956     1 1s    0.34265     1 1s   -0.61563     1 2px   0.48651     1 2py  -0.49665     1 2px  -0.61181
                                    1 2py   0.91838     2 1s   -0.34242     2 1s    0.61780     2 2px   0.48651     2 2py  -0.49784
                                    2 2px  -0.60955     2 2py   0.92167     3 1s   -0.27371     3 1s   -0.45001     6 1s    0.27346
                                    6 1s    0.45118
   20.1     0.00000     0.94523     1 1s    0.27370     1 1s   -1.67542     1 2py  -0.49429     1 2px   1.26261     1 2py   1.60534
                                    1 2pz   0.33181     2 1s    0.27070     2 1s   -1.67377     2 2py   0.49306     2 2px  -1.26348
                                    2 2py  -1.60456     2 2pz  -0.33410     3 1s   -0.42191     4 1s    0.39797     4 1s    1.63774
                                    5 1s    0.39726     5 1s    1.63893     6 1s   -0.41961
   21.1     0.00000     1.02619     1 1s   -0.78141     1 1s    0.65455     1 2px  -0.54124     1 2px   0.60752     1 2py   0.59430
                                    1 2pz  -0.29541     2 1s   -0.78082     2 1s    0.65412     2 2px   0.54085     2 2px  -0.60422
                                    2 2py  -0.59230     2 2pz   0.29379     3 1s   -0.33586     3 1s   -0.32407     4 1s    0.33840
                                    5 1s    0.33464     6 1s   -0.33629     6 1s   -0.32256
   22.1     0.00000     1.09933     1 1s    0.43171     1 1s   -0.80600     1 2py   0.43897     1 2px   0.36943     1 2py  -0.62999
                                    2 1s   -0.43235     2 1s    0.80503     2 2py   0.44008     2 2px   0.36688     2 2py  -0.63280
                                    3 1s   -0.73918     3 1s    1.31453     6 1s    0.73983     6 1s   -1.31634
   23.1     0.00000     1.11326     1 1s   -0.81011     1 1s    1.93728     1 2px  -0.64001     2 1s   -0.80384     2 1s    1.92429
                                    2 2px   0.64570     3 1s    0.66023     3 1s   -1.03950     4 1s   -0.82822     5 1s   -0.83092
                                    6 1s    0.66166     6 1s   -1.03626
   24.1     0.00000     1.20397     1 1s    1.16642     1 1s   -2.89106     1 2px   0.29872     1 2py   0.31528     1 2px  -1.57649
                                    1 2py  -0.68813     1 2pz   0.76620     2 1s   -1.17434     2 1s    2.91200     2 2px   0.29669
                                    2 2py   0.31426     2 2px  -1.56788     2 2py  -0.68022     2 2pz   0.76742     3 1s    0.37766
                                    3 1s    0.47347     4 1s   -0.47216     5 1s    0.45729     6 1s   -0.37525     6 1s   -0.47742
   25.1     0.00000     1.41479     1 1s   -0.92945     1 1s    1.54735     1 2px   0.37810     1 2py   0.38511     1 2px  -0.48900
                                    1 2py  -0.40971     2 1s   -0.79891     2 1s    1.27511     2 2px  -0.31345     2 2py  -0.33836
                                    2 2px   0.42412     2 2py   0.35010     4 1s    0.77520     4 1s   -1.43361     5 1s    0.68798
                                    5 1s   -1.22144
   26.1     0.00000     1.42282     1 1s    0.85578     1 1s   -1.80538     1 2px  -0.44268     1 2py  -0.31707     1 2px   0.46677
                                    1 2py   0.41715     2 1s   -0.97684     2 1s    2.00505     2 2px  -0.49138     2 2py  -0.36809
                                    2 2px   0.53164     2 2py   0.47194     4 1s   -0.57648     4 1s    1.44493     5 1s    0.67849
                                    5 1s   -1.63299
   27.1     0.00000     1.74908     1 3d0   0.37312     1 3d2-  0.31699     1 3d1+ -0.42253     2 3d0  -0.37240     2 3d2- -0.31762
                                    2 3d1+  0.42250
   28.1     0.00000     1.89230     1 1s   -0.25387     1 2px  -0.28637     1 2px   0.32639     1 3d1+ -0.36885     1 3d2+  0.44868
                                    2 1s   -0.25394     2 2px   0.28663     2 2px  -0.32455     2 3d1+ -0.36710     2 3d2+  0.45065
                                    4 1s    0.27436     5 1s    0.27255
   29.1     0.00000     1.95116     1 3d2+ -0.31516     1 3d1-  0.54922     2 3d2+  0.31183     2 3d1- -0.54662
   30.1     0.00000     2.02823     1 1s   -0.57368     1 3d0   0.41318     1 3d1+  0.34217     1 3d2+  0.27326     1 3d1- -0.36278
                                    2 1s   -0.57759     2 3d0   0.41372     2 3d1+  0.34229     2 3d2+  0.27378     2 3d1- -0.36430
                                    4 1s    0.35539     5 1s    0.35570
   31.1     0.00000     2.23554     1 2py  -0.28702     1 3d0   0.46891     1 3d2-  0.28513     1 3d1+ -0.32800     1 3d1-  0.34910
                                    2 2py   0.28719     2 3d0   0.46882     2 3d2-  0.28478     2 3d1+ -0.32780     2 3d1-  0.34952
                                    3 1s    0.27551     6 1s    0.27525
   32.1     0.00000     2.32002     1 1s   -0.87527     1 2px  -0.40103     1 2py  -0.25394     1 2pz   0.26185     1 3d0   0.48666
                                    1 3d2+  0.34605     1 3d1-  0.38707     2 1s    0.87539     2 2px  -0.40138     2 2py  -0.25425
                                    2 2pz   0.26197     2 3d0  -0.48649     2 3d2+ -0.34702     2 3d1- -0.38740     3 1s    0.51652
                                    6 1s   -0.51735
   33.1     0.00000     2.38129     1 2py  -0.47998     1 3d1+  0.33504     1 3d2+  0.41401     1 3d1-  0.47041     2 2py   0.47764
                                    2 3d1+  0.33400     2 3d2+  0.41345     2 3d1-  0.46881     3 1s    0.46574     6 1s    0.46418
   34.1     0.00000     2.57130     1 1s    0.38819     1 1s   -0.70101     1 2px  -0.26968     1 2px  -0.87337     1 2py  -0.34349
                                    1 2pz   0.30030     1 3d2-  0.68473     1 3d1+  0.35115     2 1s   -0.38944     2 1s    0.70333
                                    2 2px  -0.26898     2 2px  -0.87277     2 2py  -0.34484     2 2pz   0.29984     2 3d2- -0.67933
                                    2 3d1+ -0.35332     4 1s   -0.82349     5 1s    0.82094
   35.1     0.00000     2.79430     1 1s   -1.20251     1 2px  -0.67875     1 2pz   0.30778     1 3d0   0.37097     1 3d1+  0.46436
                                    1 3d2+ -0.63351     2 1s    1.20580     2 2px  -0.67628     2 2pz   0.30791     2 3d0  -0.37289
                                    2 3d1+ -0.46256     2 3d2+  0.63435     4 1s    0.45548     5 1s   -0.45959
   36.1     0.00000     2.87905     1 1s    0.45762     1 2px  -0.34051     1 2py  -0.26383     1 3d0  -0.40107     1 3d2-  0.74903
                                    2 1s    0.45278     2 2px   0.34503     2 2py   0.26494     2 3d0  -0.40092     2 3d2-  0.75222
                                    4 1s   -0.94142     5 1s   -0.94576


 HOMO      8.1    -0.325167 =      -8.8483eV
 LUMO      9.1     0.071944 =       1.9577eV
 LUMO-HOMO         0.397111 =      10.8059eV


 **********************************************************************************************************************************
 DATASETS  * FILE   NREC   LENGTH (MB)   RECORD NAMES
              1      19       31.10       500      610      700      900      950      970     1000      129      960     1100   
                                          VAR    BASINP    GEOM    SYMINP    ZMAT    AOBASIS   BASIS     P2S    ABASIS      S 
                                         1400     1410     1200     1210     1080     1600     1650     1300     1700   
                                           T        V       H0       H01     AOSYM     SMH    MOLCAS    ERIS     OPER   

              2       4        2.86       700     1000      520     2100   
                                         GEOM     BASIS   MCVARS     RHF  

 PROGRAMS   *        TOTAL    HF-SCF       INT
 CPU TIMES  *         0.36      0.10      0.17
 REAL TIME  *         0.52 SEC
 DISK USED  *        35.97 MB
 **********************************************************************************************************************************


 PROGRAM * MULTI (Direct Multiconfiguration SCF)       Authors: P.J. Knowles, H.-J. Werner (1984)


 Number of closed-shell orbitals:   7 (   7 )
 Number of active  orbitals:        2 (   2 )
 Number of external orbitals:      27 (  27 )

 State symmetry 1

 Number of electrons:     2    Spin symmetry=Singlet   Space symmetry=1
 Number of states:        3
 Number of CSFs:          3   (4 determinants, 4 intermediate states)

 Molecular orbitals read from record     2100.2  Type=RHF/CANONICAL (state 1.1)

 Wavefunction dump at record             2140.2

 Convergence thresholds  0.10E-01 (gradient)  0.10E-05 (energy)  0.10E-02 (step length)

 Weight factors for state symmetry  1:    0.33333   0.33333   0.33333

 Number of orbital rotations:      257   (    14 Core/Active    189 Core/Virtual   0 Active/Active     54 Active/Virtual)
 Total number of variables:        269

 Micro-Iterations solved by the two-step solver

 ITER. MIC  NCI  NEG     ENERGY(VAR)     ENERGY(PROJ)   ENERGY CHANGE     GRAD(0)  GRAD(ORB)   GRAD(CI)     STEP       TIME

   1   15    8    1     -77.55781951     -77.57577889   -0.01795938    0.08972064 0.00062607 0.00000000  0.31D+00      0.36
   2   10    6    0     -77.59641004     -77.60973896   -0.01332893    0.10246934 0.00001946 0.00000000  0.19D+00      0.50
   3   13    7    0     -77.61104310     -77.61230372   -0.00126062    0.02656385 0.00002113 0.00000000  0.87D-01      0.64
   4   12    6    0     -77.61236911     -77.61239652   -0.00002741    0.00431768 0.00000034 0.00000000  0.12D-01      0.77
   5   11    6    0     -77.61239668     -77.61239669   -0.00000000    0.00006679 0.00000000 0.00000000  0.13D-03      0.89

 ** WVFN ****  CONVERGENCE REACHED, FINAL GRADIENT:  0.80D-08



 Results for state 1.1
 =====================

 !MCSCF STATE  1.1 Energy             -77.737908105313
 Nuclear energy                        30.34078486
 Kinetic energy                        77.87124511
 One electron energy                 -163.51949496
 Two electron energy                   55.44080200
 Virial ratio                           1.99828772

 !MCSCF STATE  1.1 Dipole moment       -0.00195382     0.00024227     0.00150281
 Dipole moment /Debye                  -0.00496580     0.00061576     0.00381951

 Results for state 2.1
 =====================

 !MCSCF STATE  2.1 Energy             -77.634228328058
 Nuclear energy                        30.34078486
 Kinetic energy                        78.00872293
 One electron energy                 -163.33183843
 Two electron energy                   55.35682525
 Virial ratio                           1.99519932

 !MCSCF STATE  2.1 Dipole moment       -0.00091436     0.00003905     0.00136013
 Dipole moment /Debye                  -0.00232391     0.00009924     0.00345688

 Results for state 3.1
 =====================

 !MCSCF STATE  3.1 Energy             -77.465053620505
 Nuclear energy                        30.34078486
 Kinetic energy                        78.15071122
 One electron energy                 -163.13214420
 Two electron energy                   55.32630573
 Virial ratio                           1.99122647

 !MCSCF STATE  3.1 Dipole moment        0.00003717    -0.00018350     0.00123956
 Dipole moment /Debye                   0.00009447    -0.00046639     0.00315045

 State-averaged charge density matrix saved on record  2140.2 (density set 1)

 !MCSCF expec         <1.1|DMX|1.1>    -0.001953824180 au =    -0.004965800458 Debye
 !MCSCF trans         <2.1|DMX|1.1>     0.000736092312 au =     0.001870837499 Debye
 !MCSCF expec         <2.1|DMX|2.1>    -0.000914358276 au =    -0.002323914707 Debye
 !MCSCF trans         <3.1|DMX|1.1>    -0.000106472497 au =    -0.000270608368 Debye
 !MCSCF trans         <3.1|DMX|2.1>     0.000826724246 au =     0.002101185810 Debye
 !MCSCF expec         <3.1|DMX|3.1>     0.000037170892 au =     0.000094472795 Debye

 !MCSCF expec         <1.1|DMY|1.1>     0.000242273512 au =     0.000615757513 Debye
 !MCSCF trans         <2.1|DMY|1.1>     0.000166015904 au =     0.000421942702 Debye
 !MCSCF expec         <2.1|DMY|2.1>     0.000039047893 au =     0.000099243344 Debye
 !MCSCF trans         <3.1|DMY|1.1>     0.000016387081 au =     0.000041649078 Debye
 !MCSCF trans         <3.1|DMY|2.1>     0.000177826856 au =     0.000451961181 Debye
 !MCSCF expec         <3.1|DMY|3.1>    -0.000183504129 au =    -0.000466390424 Debye

 !MCSCF expec         <1.1|DMZ|1.1>     0.001502808377 au =     0.003819507715 Debye
 !MCSCF trans         <2.1|DMZ|1.1>    -0.000186282628 au =    -0.000473452202 Debye
 !MCSCF expec         <2.1|DMZ|2.1>     0.001360129212 au =     0.003456877201 Debye
 !MCSCF trans         <3.1|DMZ|1.1>     0.000015832900 au =     0.000040240581 Debye
 !MCSCF trans         <3.1|DMZ|2.1>    -0.000206845194 au =    -0.000525713609 Debye
 !MCSCF expec         <3.1|DMZ|3.1>     0.001239564836 au =     0.003150453195 Debye


 NATURAL ORBITALS (state averaged)
 =================================

  Orbital  Occupation    Energy     Coefficients
    1.1     2.00000   -11.26352     1 1s   -0.81002     2 1s   -0.57992
    2.1     2.00000   -11.26328     1 1s    0.57995     2 1s   -0.81005
    3.1     2.00000    -0.97734     1 1s    0.27965     2 1s    0.28004
    4.1     2.00000    -0.86214     1 1s    0.25844     2 1s   -0.25802
    5.1     2.00000    -0.63297     1 2px  -0.26581     2 2px   0.26599
    6.1     2.00000    -0.60613     1 2py   0.28256     2 2py   0.28171
    7.1     2.00000    -0.35903     1 2pz   0.33566     1 2pz   0.31543     2 2pz   0.33614     2 2pz   0.31575
    8.1     1.00000    -0.22275     1 2px  -0.28679     2 2px   0.28673
    9.1     1.00000    -0.08888     1 2pz   0.42502     1 2pz   0.42387     2 2pz  -0.42470     2 2pz  -0.42344
   10.1    -0.00000     0.21413     1 1s   -1.03709     1 2py  -0.48865     2 1s   -1.03675     2 2py   0.48884     3 1s    1.06664
                                    4 1s    0.44934     5 1s    0.44890     6 1s    1.06641
   11.1    -0.00000     0.26456     1 1s    1.57412     1 2px   0.36494     1 2py  -0.30231     1 2pz  -0.34756     2 1s   -1.57255
                                    2 2px   0.36665     2 2py  -0.30033     2 2pz  -0.34878     4 1s   -0.95181     5 1s    0.94889
   12.1    -0.00000     0.30347     1 1s   -0.75119     1 2py  -0.25100     1 2py  -0.78792     1 2pz   0.25795     2 1s    0.75221
                                    2 2py  -0.25087     2 2py  -0.78695     2 2pz   0.25780     3 1s    1.46274     6 1s   -1.46255
   13.1    -0.00000     0.34884     1 1s   -1.50052     1 2px   0.80989     1 2py   0.99710     2 1s   -1.50717     2 2px  -0.80393
                                    2 2py  -0.99780     3 1s   -0.42558     4 1s    2.34162     5 1s    2.34141     6 1s   -0.42501
   14.1    -0.00000     0.37309     1 1s    0.48662     1 2px  -0.26531     1 2px  -1.44787     1 2py  -0.47431     1 2pz   0.35088
                                    2 1s   -0.49147     2 2px  -0.26550     2 2px  -1.45016     2 2py  -0.47733     2 2pz   0.34846
                                    3 1s    0.26882     4 1s   -2.04955     5 1s    2.05636     6 1s   -0.27003
   15.1    -0.00000     0.65682     1 2px  -0.36312     1 2px   1.46756     1 2py   0.64750     2 2px  -0.36342     2 2px   1.46984
                                    2 2py   0.65050     4 1s    0.43335     4 1s    0.81207     5 1s   -0.43339     5 1s   -0.81643
   16.1    -0.00000     0.76129     1 1s   -0.53910     1 2px  -0.38767     1 2py   0.44771     1 2px   0.68417     1 2py  -0.50446
                                    2 1s   -0.54066     2 2px   0.38758     2 2py  -0.44746     2 2px  -0.68228     2 2py   0.50376
                                    3 1s    0.37149     3 1s   -0.28005     4 1s    0.33086     5 1s    0.33064     6 1s    0.37134
                                    6 1s   -0.28065
   17.1    -0.00000     0.79365     1 1s    0.25131     1 2pz   0.76588     1 2px   0.36860     1 2pz  -0.77061     2 1s   -0.25245
                                    2 2pz   0.76540     2 2px   0.36912     2 2pz  -0.76991
   18.1    -0.00000     0.84028     1 1s    0.39757     1 2pz  -0.73125     1 2py  -0.26022     1 2pz   0.93359     2 1s    0.39652
                                    2 2pz   0.73195     2 2py   0.26081     2 2pz  -0.93408
   19.1    -0.00000     0.89296     1 1s    0.36181     1 1s   -0.63142     1 2px   0.48064     1 2py  -0.47548     1 2px  -0.52337
                                    1 2py   0.87673     2 1s   -0.36201     2 1s    0.63539     2 2px   0.48041     2 2py  -0.47699
                                    2 2px  -0.51982     2 2py   0.88126     3 1s   -0.32816     3 1s   -0.35526     4 1s    0.25223
                                    5 1s   -0.25705     6 1s    0.32751     6 1s    0.35685
   20.1    -0.00000     0.94381     1 1s    0.27388     1 1s   -1.59052     1 2py  -0.52200     1 2px   1.16479     1 2py   1.58574
                                    1 2pz   0.30514     2 1s    0.27053     2 1s   -1.58811     2 2py   0.52020     2 2px  -1.16622
                                    2 2py  -1.58400     2 2pz  -0.30734     3 1s    0.27741     3 1s   -0.46075     4 1s    0.38998
                                    4 1s    1.56588     5 1s    0.38915     5 1s    1.56682     6 1s    0.27636     6 1s   -0.45822
   21.1    -0.00000     1.01851     1 1s   -0.75631     1 1s    0.53989     1 2px  -0.55705     1 2px   0.69357     1 2py   0.67522
                                    1 2pz  -0.26036     2 1s   -0.75622     2 1s    0.54049     2 2px   0.55687     2 2px  -0.69126
                                    2 2py  -0.67334     2 2pz   0.25886     3 1s   -0.32895     3 1s   -0.34001     4 1s    0.43778
                                    5 1s    0.43455     6 1s   -0.32994     6 1s   -0.33809
   22.1    -0.00000     1.07521     1 1s    0.36187     1 1s   -0.64481     1 2py   0.46505     1 2px   0.48598     1 2py  -0.65016
                                    2 1s   -0.36647     2 1s    0.65275     2 2py   0.46728     2 2px   0.48609     2 2py  -0.65241
                                    3 1s   -0.73511     3 1s    1.31210     6 1s    0.73836     6 1s   -1.31852
   23.1    -0.00000     1.09749     1 1s   -0.84282     1 1s    2.05811     1 2px  -0.72211     1 2py  -0.25754     2 1s   -0.83536
                                    2 1s    2.04369     2 2px   0.72502     2 2py   0.26454     3 1s    0.63175     3 1s   -1.00981
                                    4 1s   -0.91880     5 1s   -0.92066     6 1s    0.62977     6 1s   -1.00104
   24.1    -0.00000     1.19811     1 1s    1.17999     1 1s   -2.91186     1 2px   0.29921     1 2py   0.32584     1 2px  -1.57358
                                    1 2py  -0.70653     1 2pz   0.76209     2 1s   -1.18725     2 1s    2.93183     2 2px   0.29707
                                    2 2py   0.32465     2 2px  -1.56491     2 2py  -0.69827     2 2pz   0.76296     3 1s    0.34811
                                    3 1s    0.51582     4 1s   -0.47305     5 1s    0.45837     6 1s   -0.34584     6 1s   -0.51916
   25.1    -0.00000     1.41899     1 1s   -0.92698     1 1s    1.53728     1 2px   0.36773     1 2py   0.37331     1 2px  -0.48489
                                    1 2py  -0.40138     2 1s   -0.82388     2 1s    1.32229     2 2px  -0.31709     2 2py  -0.33818
                                    2 2px   0.43456     2 2py   0.35604     4 1s    0.76018     4 1s   -1.41337     5 1s    0.69292
                                    5 1s   -1.24815
   26.1    -0.00000     1.42825     1 1s    0.87419     1 1s   -1.83769     1 2px  -0.45022     1 2py  -0.31249     1 2px   0.47808
                                    1 2py   0.41669     2 1s   -0.97004     2 1s    1.99612     2 2px  -0.48796     2 2py  -0.35184
                                    2 2px   0.52924     2 2py   0.45971     4 1s   -0.58031     4 1s    1.46532     5 1s    0.65946
                                    5 1s   -1.61310
   27.1    -0.00000     1.74370     1 3d0   0.37180     1 3d2-  0.31860     1 3d1+ -0.42028     2 3d0  -0.37116     2 3d2- -0.31928
                                    2 3d1+  0.42039
   28.1    -0.00000     1.88926     1 2px  -0.29351     1 2px   0.33111     1 3d1+ -0.36216     1 3d2+  0.45863     2 2px   0.29378
                                    2 2px  -0.32938     2 3d1+ -0.36029     2 3d2+  0.46081     4 1s    0.28733     5 1s    0.28563
   29.1    -0.00000     1.95000     1 3d2+ -0.31667     1 3d1-  0.54721     2 3d2+  0.31337     2 3d1- -0.54501
   30.1    -0.00000     2.02770     1 1s   -0.57391     1 3d0   0.41334     1 3d1+  0.34924     1 3d2+  0.26729     1 3d1- -0.35888
                                    2 1s   -0.57816     2 3d0   0.41382     2 3d1+  0.34915     2 3d2+  0.26750     2 3d1- -0.35973
                                    4 1s    0.35490     5 1s    0.35530
   31.1    -0.00000     2.23124     1 2py  -0.29300     1 3d0   0.46625     1 3d2-  0.29222     1 3d1+ -0.32150     1 3d1-  0.35304
                                    2 2py   0.29334     2 3d0   0.46646     2 3d2-  0.29177     2 3d1+ -0.32113     2 3d1-  0.35368
                                    3 1s    0.27150     6 1s    0.27158
   32.1    -0.00000     2.31496     1 1s   -0.85647     1 2px  -0.38524     1 2py  -0.25508     1 2pz   0.25476     1 3d0   0.48210
                                    1 3d2+  0.35720     1 3d1-  0.38987     2 1s    0.85645     2 2px  -0.38567     2 2py  -0.25588
                                    2 2pz   0.25514     2 3d0  -0.48142     2 3d2+ -0.35857     2 3d1- -0.39063     3 1s    0.50812
                                    6 1s   -0.50932
   33.1    -0.00000     2.37222     1 2py  -0.48375     1 3d1+  0.34030     1 3d2+  0.40813     1 3d1-  0.47410     2 2py   0.48117
                                    2 3d1+  0.33907     2 3d2+  0.40710     2 3d1-  0.47197     3 1s    0.45665     6 1s    0.45449
   34.1    -0.00000     2.56674     1 1s    0.39740     1 1s   -0.72181     1 2px  -0.26878     1 2px  -0.88019     1 2py  -0.34268
                                    1 2pz   0.30469     1 3d2-  0.68069     1 3d1+  0.35522     2 1s   -0.39865     2 1s    0.72402
                                    2 2px  -0.26807     2 2px  -0.87968     2 2py  -0.34406     2 2pz   0.30419     2 3d2- -0.67550
                                    2 3d1+ -0.35734     4 1s   -0.82444     5 1s    0.82202
   35.1    -0.00000     2.78815     1 1s   -1.22216     1 2px  -0.68850     1 2pz   0.31319     1 3d0   0.38004     1 3d1+  0.46661
                                    1 3d2+ -0.62630     2 1s    1.22547     2 2px  -0.68599     2 2pz   0.31329     2 3d0  -0.38202
                                    2 3d1+ -0.46472     2 3d2+  0.62713     4 1s    0.46486     5 1s   -0.46910
   36.1    -0.00000     2.87572     1 1s    0.45628     1 2px  -0.33805     1 2py  -0.26187     1 3d0  -0.40738     1 3d2-  0.74432
                                    2 1s    0.45122     2 2px   0.34255     2 2py   0.26293     2 3d0  -0.40709     2 3d2-  0.74732
                                    4 1s   -0.94516     5 1s   -0.94926


 Natural orbital dump (state averaged) at molpro section  2140.2    (Orbital set 2)



 **********************************************************************************************************************************
 DATASETS  * FILE   NREC   LENGTH (MB)   RECORD NAMES
              1      20       31.83       500      610      700      900      950      970     1000      129      960     1100   
                                          VAR    BASINP    GEOM    SYMINP    ZMAT    AOBASIS   BASIS     P2S    ABASIS      S 
                                         1400     1410     1200     1210     1080     1600     1650     1300     1700     1380   
                                           T        V       H0       H01     AOSYM     SMH    MOLCAS    ERIS     OPER     JKOP   

              2       5        5.42       700     1000      520     2100     2140   
                                         GEOM     BASIS   MCVARS     RHF     MCSCF   

 PROGRAMS   *        TOTAL     MULTI    HF-SCF       INT
 CPU TIMES  *         1.29      0.93      0.10      0.17
 REAL TIME  *         1.51 SEC
 DISK USED  *        39.01 MB
 **********************************************************************************************************************************
 Molecular orbitals read from record     2140.2  Type=MCSCF/NATURAL (state averaged)
 Occupation numbers read from record     2140.2  Type=MCSCF/NATURAL (state averaged)
 Orbital energies read from record       2140.2  Type=MCSCF/NATURAL (state averaged)
 Redundancy group numbers read from rec  2140.2  Type=MCSCF/NATURAL (state averaged)

 MULTI/6-31G* energy=    -77.465053620505

           MULTI          HF-SCF
    -77.46505362    -77.74538555
 **********************************************************************************************************************************
 Molpro calculation terminated
