
 Primary working directories    : /scratch.local/johan406.molpro_temp/molpro.VmgKgquQGM
 Secondary working directories  : /scratch.local/johan406.molpro_temp/molpro.VmgKgquQGM
 Wavefunction directory         : /home/goodpast/johan406/wfu/
 Main file repository           : /scratch.local/johan406.molpro_temp/molpro.VmgKgquQGM/

 id        : roweumn

 Nodes     nprocs
 acn06        1

 Using customized tuning parameters: mindgm=1; mindgv=20; mindgc=4; mindgr=1; noblas=0; minvec=7
 default implementation of scratch files=df  


 Variables initialized (934), CPU time= 0.01 sec
                                                                                 !leave this line blank
 
 gprint, orbitals=30
 memory, 125., m
 symmetry, nosym
 nelect=16
 basis=6-31g*
 
 geometry={
 C -0.786 0.020 0.306
 C 0.795 -0.070 -0.367
 H -0.812 1.152 -0.132
 H -1.525 -0.539 0.244
 H 1.534 0.489 -0.303
 H 0.820 -1.202 0.071
 }
 
 hf
 {multi,
 closed 7
 occ 9
 wf,spin=0;STATE,3
 }
 
 Commands  initialized (763), CPU time= 0.01 sec, 617 directives.
 Default parameters read. Elapsed time= 0.05 sec

 Checking input...
 Passed
1


                                         ***  PROGRAM SYSTEM MOLPRO  ***
                                       Copyright, TTI GmbH Stuttgart, 2015
                                    Version 2019.2 linked Oct 25 2019 22:50:27


 **********************************************************************************************************************************
 LABEL *                                                                                 
  64 bit serial version                                                                  DATE: 15-Mar-23          TIME: 16:44:48  
 **********************************************************************************************************************************

 SHA1:             8dbd9ae1082e4ce945b0f27595c9eb2d4aa09004
 **********************************************************************************************************************************


 Variable memory set to  125000000 words,  buffer space 

 SETTING NELECT         =        16.00000000                                  
 SETTING BASIS          =    6-31G*
 ZSYMEL=NOSYM


Geometry recognized as XYZ



 Recomputing integrals since basis changed


 Using spherical harmonics

 Library entry C      S 6-31G                selected for orbital group  1
 Library entry C      P 6-31G                selected for orbital group  1
 Library entry C      D 6-31G*               selected for orbital group  1
 Library entry H      S 6-31G                selected for orbital group  2


 PROGRAM * SEWARD (Integral evaluation for generally contracted gaussian basis sets)     Author: Roland Lindh, 1990

 Geometry written to block  1 of record 700


 Point group  C1  



 ATOMIC COORDINATES

 NR  ATOM    CHARGE       X              Y              Z

   1  C       6.00   -1.485324734    0.037794522    0.578256194
   2  C       6.00    1.502332269   -0.132280829   -0.693529488
   3  H       1.00   -1.534457613    2.176964495   -0.249443848
   4  H       1.00   -2.881832340   -1.018562381    0.461093174
   5  H       1.00    2.898839875    0.924076075   -0.572587016
   6  H       1.00    1.549575422   -2.271450802    0.134170555

 Bond lengths in Bohr (Angstrom)

 1-2  3.251531764  1-3  2.294242702  1-4  1.754950306  2-5  1.755206678  2-6  2.294203010
     ( 1.720636510)     ( 1.214060954)     ( 0.928679708)     ( 0.928815375)     ( 1.214039950)

 Bond angles

  1-2-5  132.27090420   1-2-6   85.78954472   2-1-3   85.83309739   2-1-4  132.34377718

  3-1-4  121.34008353   5-2-6  121.32744126

 NUCLEAR CHARGE:                   16
 NUMBER OF PRIMITIVE AOS:          72
 NUMBER OF SYMMETRY AOS:           70
 NUMBER OF CONTRACTIONS:           36   (   36A   )
 NUMBER OF CORE ORBITALS:           2   (    2A   )
 NUMBER OF VALENCE ORBITALS:       12   (   12A   )


 NUCLEAR REPULSION ENERGY   30.20650013

 Eigenvalues of metric

         1 0.185E-01 0.189E-01 0.349E-01 0.744E-01 0.857E-01 0.198E+00 0.231E+00 0.278E+00


 Contracted 2-electron integrals neglected if value below      1.0D-11
 AO integral compression algorithm  1   Integral accuracy      1.0D-11

     1.311 MB (compressed) written to integral file ( 67.0%)


 NUMBER OF SORTED TWO-ELECTRON INTEGRALS:     222111.     BUFFER LENGTH:  32768
 NUMBER OF SEGMENTS:   1  SEGMENT LENGTH:     222111      RECORD LENGTH: 524288

 Memory used in sort:       0.78 MW

 SORT1 READ      284735. AND WROTE      212482. INTEGRALS IN      1 RECORDS. CPU TIME:     0.00 SEC, REAL TIME:     0.00 SEC
 SORT2 READ      212482. AND WROTE      222111. INTEGRALS IN      5 RECORDS. CPU TIME:     0.02 SEC, REAL TIME:     0.02 SEC

 FILE SIZES:   FILE 1:    31.4 MBYTE,  FILE 4:     4.2 MBYTE,   TOTAL:     35.6 MBYTE

 OPERATOR DM      FOR CENTER  0  COORDINATES:    0.000000    0.000000    0.000000


 **********************************************************************************************************************************
 DATASETS  * FILE   NREC   LENGTH (MB)   RECORD NAMES
              1      19       31.10       500      610      700      900      950      970     1000      129      960     1100   
                                          VAR    BASINP    GEOM    SYMINP    ZMAT    AOBASIS   BASIS     P2S    ABASIS      S 
                                         1400     1410     1200     1210     1080     1600     1650     1300     1700   
                                           T        V       H0       H01     AOSYM     SMH    MOLCAS    ERIS     OPER   

 PROGRAMS   *        TOTAL       INT
 CPU TIMES  *         0.25      0.15
 REAL TIME  *         0.37 SEC
 DISK USED  *        35.97 MB
 **********************************************************************************************************************************


 PROGRAM * RHF-SCF (CLOSED SHELL)       Authors: W. Meyer, H.-J. Werner


 NUMBER OF ELECTRONS:       8+    8-    SPACE SYMMETRY=1    SPIN SYMMETRY: Singlet 
 CONVERGENCE THRESHOLDS:    1.00E-05 (Density)    1.00E-07 (Energy)
 MAX. NUMBER OF ITERATIONS:       60
 INTERPOLATION TYPE:            DIIS
 INTERPOLATION STEPS:              2 (START)      1 (STEP)
 LEVEL SHIFTS:                  0.00 (CLOSED)  0.00 (OPEN) 



 Orbital guess generated from atomic densities. Full valence occupancy:    8

 Molecular orbital dump at record        2100.2

 Initial occupancy:   8

 ITERATION    DDIFF          GRAD             ENERGY        2-EL.EN.            DIPOLE MOMENTS         DIIS   ORB.
    1      0.000D+00      0.000D+00       -77.75723338    111.017309   -0.00137   -0.00001    0.00119    0    start
    2      0.000D+00      0.677D-02       -77.77776549    110.514594   -0.00048    0.00020    0.00065    1    diag
    3      0.786D-02      0.228D-02       -77.78140475    110.748950   -0.00174    0.00001    0.00168    2    diag
    4      0.383D-02      0.908D-03       -77.78232718    110.652640   -0.00044    0.00028    0.00063    3    diag
    5      0.188D-02      0.554D-03       -77.78301748    110.672337   -0.00287   -0.00015    0.00257    4    diag
    6      0.222D-02      0.244D-03       -77.78318250    110.673572    0.00264    0.00098   -0.00193    5    diag
    7      0.122D-02      0.100D-03       -77.78319544    110.674485   -0.00337   -0.00023    0.00297    6    diag
    8      0.261D-03      0.520D-04       -77.78319871    110.675558   -0.00104    0.00024    0.00107    7    diag
    9      0.138D-03      0.148D-04       -77.78319909    110.675850   -0.00127    0.00019    0.00126    8    diag
   10      0.533D-04      0.347D-05       -77.78319911    110.675773   -0.00126    0.00019    0.00125    9    orth
   11      0.111D-04      0.624D-06       -77.78319911    110.675762   -0.00126    0.00019    0.00125    9    diag
   12      0.179D-05      0.111D-06       -77.78319911    110.675762   -0.00126    0.00019    0.00125    0    orth

 Final occupancy:   8

 !RHF STATE  1.1 Energy               -77.783199106005
 Nuclear energy                        30.20650013
 One-electron energy                 -163.32758006
 Two-electron energy                   55.33788082
 Virial quotient                       -1.00084177
 !RHF STATE  1.1 Dipole moment         -0.00126046     0.00019153     0.00125457
 Dipole moment /Debye                  -0.00320355     0.00048679     0.00318860

 ELECTRON ORBITALS
 =================

  Orbital  Occupation    Energy     Coefficients
    1.1     2.00000   -11.27670     1 1s    0.82702     2 1s    0.55553
    2.1     2.00000   -11.27632     1 1s   -0.55559     2 1s    0.82706
    3.1     2.00000    -0.97263     1 1s    0.28456     1 1s    0.25356     2 1s    0.28422     2 1s    0.25330
    4.1     2.00000    -0.85699     1 1s    0.25675     2 1s   -0.25704
    5.1     2.00000    -0.62113     1 2px  -0.29939     2 2px   0.29935
    6.1     2.00000    -0.59939     1 2py   0.29551     2 2py   0.29604
    7.1     2.00000    -0.39393     1 2px   0.25221     1 2py  -0.26337     2 2px  -0.25192     2 2py   0.26362
    8.1     2.00000    -0.32882     1 2pz   0.30785     1 2pz   0.31299     2 2pz   0.30821     2 2pz   0.31326
    9.1     0.00000     0.07309     1 1s    0.26472     1 2pz   0.35471     1 2pz   0.49689     2 1s    0.26558     2 2pz  -0.35444
                                    2 2pz  -0.49638
   10.1     0.00000     0.22690     1 1s   -1.06091     1 2px   0.28149     1 2py  -0.45214     1 2pz   0.28264     2 1s   -1.05953
                                    2 2px  -0.28059     2 2py   0.45244     2 2pz  -0.28296     3 1s    1.05023     4 1s    0.53030
                                    5 1s    0.52897     6 1s    1.04953
   11.1     0.00000     0.26558     1 1s    1.37752     1 2px   0.32061     1 2py  -0.47243     1 2pz  -0.31214     2 1s   -1.37663
                                    2 2px   0.32121     2 2py  -0.47103     2 2pz  -0.31378     4 1s   -1.01244     5 1s    1.01093
   12.1     0.00000     0.30960     1 1s   -1.14417     1 2py  -0.59537     1 2pz   0.27706     2 1s    1.14733     2 2py  -0.59372
                                    2 2pz   0.27778     3 1s    1.39230     4 1s    0.38107     5 1s   -0.38537     6 1s   -1.39228
   13.1     0.00000     0.34265     1 1s   -1.32198     1 2px   0.76832     1 2py   0.99591     2 1s   -1.32215     2 2px  -0.76490
                                    2 2py  -0.99664     3 1s   -0.46329     4 1s    2.18128     5 1s    2.17861     6 1s   -0.46509
   14.1     0.00000     0.37348     1 2px   0.26652     1 2px   1.46819     1 2py   0.51881     1 2pz  -0.44291     2 2px   0.26674
                                    2 2px   1.46925     2 2py   0.51938     2 2pz  -0.44073     3 1s   -0.46703     4 1s    1.83236
                                    5 1s   -1.83360     6 1s    0.46729
   15.1     0.00000     0.66403     1 2px  -0.36622     1 2px   1.44309     1 2py   0.59181     1 2pz  -0.26594     2 2px  -0.36617
                                    2 2px   1.44236     2 2py   0.59157     2 2pz  -0.26412     4 1s    0.44283     4 1s    0.70317
                                    5 1s   -0.44261     5 1s   -0.70166
   16.1     0.00000     0.76412     1 1s   -0.47764     1 2px  -0.40942     1 2py   0.47742     1 2px   0.67978     1 2py  -0.57246
                                    2 1s   -0.47856     2 2px   0.40944     2 2py  -0.47700     2 2px  -0.67932     2 2py   0.57133
                                    3 1s    0.31926     4 1s    0.27656     5 1s    0.27668     6 1s    0.31915
   17.1     0.00000     0.80202     1 2pz   0.77711     1 2pz  -0.72260     2 2pz   0.77574     2 2pz  -0.72099
   18.1     0.00000     0.84500     1 1s    0.25973     1 1s   -0.52068     1 2pz   0.75932     1 2py   0.32028     1 2pz  -0.86709
                                    2 1s    0.26010     2 1s   -0.51954     2 2pz  -0.76079     2 2py  -0.32090     2 2pz   0.86815
                                    4 1s    0.28310     5 1s    0.28206
   19.1     0.00000     0.88914     1 1s    0.33787     1 1s   -0.59948     1 2px   0.49359     1 2py  -0.49023     1 2px  -0.66952
                                    1 2py   0.87109     2 1s   -0.33808     2 1s    0.60188     2 2px   0.49322     2 2py  -0.49162
                                    2 2px  -0.66669     2 2py   0.87439     3 1s   -0.28842     3 1s   -0.40744     6 1s    0.28796
                                    6 1s    0.40841
   20.1     0.00000     0.95363     1 1s   -1.44348     1 2px  -0.26920     1 2py  -0.50885     1 2px   1.28779     1 2py   1.60130
                                    1 2pz   0.32800     2 1s   -1.43854     2 2px   0.27121     2 2py   0.50733     2 2px  -1.29017
                                    2 2py  -1.59834     2 2pz  -0.32998     3 1s   -0.44364     4 1s    0.37840     4 1s    1.50587
                                    5 1s    0.37802     5 1s    1.50408     6 1s   -0.44021
   21.1     0.00000     1.01644     1 1s   -0.81335     1 1s    0.88456     1 2px  -0.49318     1 2px   0.40678     1 2py   0.42039
                                    1 2pz  -0.33697     2 1s   -0.81243     2 1s    0.88324     2 2px   0.49272     2 2px  -0.40392
                                    2 2py  -0.42011     2 2pz   0.33596     3 1s   -0.36891     3 1s   -0.26858     6 1s   -0.36848
                                    6 1s   -0.26908
   22.1     0.00000     1.09660     1 1s    0.42637     1 1s   -0.78482     1 2py   0.45556     1 2px   0.33590     1 2py  -0.66734
                                    2 1s   -0.42610     2 1s    0.78249     2 2py   0.45682     2 2px   0.33337     2 2py  -0.67036
                                    3 1s   -0.73045     3 1s    1.32633     6 1s    0.73160     6 1s   -1.32811
   23.1     0.00000     1.11069     1 1s   -0.79570     1 1s    1.84695     1 2px  -0.63616     2 1s   -0.79086     2 1s    1.83554
                                    2 2px   0.64011     3 1s    0.66033     3 1s   -1.04064     4 1s   -0.74529     5 1s   -0.74577
                                    6 1s    0.66117     6 1s   -1.03826
   24.1     0.00000     1.21327     1 1s    1.13513     1 1s   -2.91282     1 2px   0.31574     1 2py   0.31648     1 2px  -1.58509
                                    1 2py  -0.65377     1 2pz   0.76210     2 1s   -1.14074     2 1s    2.92782     2 2px   0.31440
                                    2 2py   0.31554     2 2px  -1.57873     2 2py  -0.64738     2 2pz   0.76304     3 1s    0.38090
                                    3 1s    0.44166     4 1s    0.27437     4 1s   -0.49528     5 1s   -0.27532     5 1s    0.48491
                                    6 1s   -0.37922     6 1s   -0.44444
   25.1     0.00000     1.36822     1 1s   -0.85978     1 1s    1.37681     1 2px   0.33168     1 2py   0.34544     1 2px  -0.43919
                                    1 2py  -0.34833     2 1s   -0.87025     2 1s    1.39809     2 2px  -0.33758     2 2py  -0.34966
                                    2 2px   0.44677     2 2py   0.35409     4 1s    0.72571     4 1s   -1.28388     5 1s    0.73356
                                    5 1s   -1.30314
   26.1     0.00000     1.37637     1 1s   -0.98041     1 1s    2.05503     1 2px   0.45584     1 2py   0.31829     1 2px  -0.40860
                                    1 2py  -0.39618     2 1s    0.97040     2 1s   -2.03959     2 2px   0.45184     2 2py   0.31400
                                    2 2px  -0.40386     2 2py  -0.39238     4 1s    0.61663     4 1s   -1.48567     5 1s   -0.60732
                                    5 1s    1.47079
   27.1     0.00000     1.73827     1 3d0  -0.35804     1 3d2- -0.32574     1 3d1+  0.42039     2 3d0   0.35728     2 3d2-  0.32657
                                    2 3d1+ -0.42031
   28.1     0.00000     1.91639     1 1s   -0.28542     1 2px  -0.28525     1 2px   0.33797     1 3d1+ -0.36456     1 3d2+  0.45070
                                    2 1s   -0.28550     2 2px   0.28560     2 2px  -0.33604     2 3d1+ -0.36272     2 3d2+  0.45280
                                    4 1s    0.25146
   29.1     0.00000     1.94826     1 3d2+ -0.31502     1 3d1-  0.54821     2 3d2+  0.31104     2 3d1- -0.54538
   30.1     0.00000     2.02544     1 1s   -0.56945     1 3d0   0.41809     1 3d1+  0.34497     1 3d2+  0.27504     1 3d1- -0.35398
                                    2 1s   -0.57253     2 3d0   0.41915     2 3d1+  0.34502     2 3d2+  0.27568     2 3d1- -0.35588
                                    4 1s    0.33562     5 1s    0.33533
   31.1     0.00000     2.24698     1 2py  -0.31422     1 3d0   0.46042     1 3d2-  0.27572     1 3d1+ -0.30784     1 3d1-  0.37812
                                    2 2py   0.31397     2 3d0   0.45941     2 3d2-  0.27559     2 3d1+ -0.30763     2 3d1-  0.37801
                                    3 1s    0.31128     6 1s    0.31030
   32.1     0.00000     2.31641     1 1s    0.25004     1 1s   -0.91659     1 2px  -0.33400     1 2pz   0.25190     1 3d0   0.52448
                                    1 3d2+  0.33328     1 3d1-  0.34739     2 1s   -0.25041     2 1s    0.91681     2 2px  -0.33447
                                    2 2pz   0.25191     2 3d0  -0.52519     2 3d2+ -0.33385     2 3d1- -0.34805     3 1s    0.49113
                                    4 1s    0.26070     5 1s   -0.26013     6 1s   -0.49214
   33.1     0.00000     2.38814     1 2py  -0.45817     1 3d2- -0.27735     1 3d1+  0.34701     1 3d2+  0.39474     1 3d1-  0.45552
                                    2 2py   0.45535     2 3d2- -0.28270     2 3d1+  0.34571     2 3d2+  0.39413     2 3d1-  0.45328
                                    3 1s    0.43443     6 1s    0.43261
   34.1     0.00000     2.54025     1 1s    0.32637     1 1s   -0.65797     1 2px  -0.79858     1 2py  -0.33148     1 2pz   0.27530
                                    1 3d2-  0.67820     1 3d1+  0.31500     1 3d1-  0.25897     2 1s   -0.32711     2 1s    0.65887
                                    2 2px  -0.79929     2 2py  -0.33384     2 2pz   0.27532     2 3d2- -0.67525     2 3d1+ -0.31874
                                    2 3d1- -0.26311     4 1s   -0.77718     5 1s    0.77695
   35.1     0.00000     2.80196     1 1s   -1.30441     1 2px  -0.77603     1 2pz   0.34349     1 3d0   0.33007     1 3d1+  0.50554
                                    1 3d2+ -0.65505     2 1s    1.31272     2 2px  -0.76971     2 2pz   0.34362     2 3d0  -0.33705
                                    2 3d1+ -0.50151     2 3d2+  0.65919     4 1s    0.31894     5 1s   -0.33362
   36.1     0.00000     2.84135     1 1s    0.43429     1 2px  -0.32090     1 3d0  -0.39316     1 3d2-  0.73144     2 1s    0.41320
                                    2 2px   0.33323     2 3d0  -0.38710     2 3d2-  0.72969     4 1s   -0.86652     5 1s   -0.86109


 HOMO      8.1    -0.328816 =      -8.9476eV
 LUMO      9.1     0.073090 =       1.9889eV
 LUMO-HOMO         0.401906 =      10.9364eV


 **********************************************************************************************************************************
 DATASETS  * FILE   NREC   LENGTH (MB)   RECORD NAMES
              1      19       31.10       500      610      700      900      950      970     1000      129      960     1100   
                                          VAR    BASINP    GEOM    SYMINP    ZMAT    AOBASIS   BASIS     P2S    ABASIS      S 
                                         1400     1410     1200     1210     1080     1600     1650     1300     1700   
                                           T        V       H0       H01     AOSYM     SMH    MOLCAS    ERIS     OPER   

              2       4        2.86       700     1000      520     2100   
                                         GEOM     BASIS   MCVARS     RHF  

 PROGRAMS   *        TOTAL    HF-SCF       INT
 CPU TIMES  *         0.35      0.10      0.15
 REAL TIME  *         0.51 SEC
 DISK USED  *        35.97 MB
 **********************************************************************************************************************************


 PROGRAM * MULTI (Direct Multiconfiguration SCF)       Authors: P.J. Knowles, H.-J. Werner (1984)


 Number of closed-shell orbitals:   7 (   7 )
 Number of active  orbitals:        2 (   2 )
 Number of external orbitals:      27 (  27 )

 State symmetry 1

 Number of electrons:     2    Spin symmetry=Singlet   Space symmetry=1
 Number of states:        3
 Number of CSFs:          3   (4 determinants, 4 intermediate states)

 Molecular orbitals read from record     2100.2  Type=RHF/CANONICAL (state 1.1)

 Wavefunction dump at record             2140.2

 Convergence thresholds  0.10E-01 (gradient)  0.10E-05 (energy)  0.10E-02 (step length)

 Weight factors for state symmetry  1:    0.33333   0.33333   0.33333

 Number of orbital rotations:      257   (    14 Core/Active    189 Core/Virtual   0 Active/Active     54 Active/Virtual)
 Total number of variables:        269

 Micro-Iterations solved by the two-step solver

 ITER. MIC  NCI  NEG     ENERGY(VAR)     ENERGY(PROJ)   ENERGY CHANGE     GRAD(0)  GRAD(ORB)   GRAD(CI)     STEP       TIME

   1   17    8    1     -77.59158329     -77.60761200   -0.01602871    0.09089240 0.00057586 0.00000000  0.30D+00      0.52
   2    9    5    0     -77.62561173     -77.63795312   -0.01234139    0.10109891 0.00086319 0.00000000  0.18D+00      0.66
   3   15    8    0     -77.63917740     -77.64035580   -0.00117841    0.02519696 0.00001974 0.00000000  0.85D-01      0.82
   4   12    6    0     -77.64042046     -77.64045095   -0.00003050    0.00447096 0.00000081 0.00000000  0.13D-01      0.95
   5   11    6    0     -77.64045114     -77.64045115   -0.00000001    0.00007652 0.00000000 0.00000000  0.16D-03      1.07
   6    5    3    0     -77.64045115     -77.64045115    0.00000000    0.00000001 0.00000000 0.00000000  0.44D-07      1.13

 ** WVFN ****  CONVERGENCE REACHED, FINAL GRADIENT:  0.13D-12



 Results for state 1.1
 =====================

 !MCSCF STATE  1.1 Energy             -77.775831033650
 Nuclear energy                        30.20650013
 Kinetic energy                        77.73550615
 One electron energy                 -163.36036195
 Two electron energy                   55.37803079
 Virial ratio                           2.00051874

 !MCSCF STATE  1.1 Dipole moment       -0.00151514     0.00022350     0.00132392
 Dipole moment /Debye                  -0.00385085     0.00056803     0.00336486

 Results for state 2.1
 =====================

 !MCSCF STATE  2.1 Energy             -77.663190500900
 Nuclear energy                        30.20650013
 Kinetic energy                        77.87455271
 One electron energy                 -163.17054676
 Two electron energy                   55.30085612
 Virial ratio                           1.99728586

 !MCSCF STATE  2.1 Dipole moment       -0.00068043     0.00001493     0.00130777
 Dipole moment /Debye                  -0.00172936     0.00003796     0.00332381

 Results for state 3.1
 =====================

 !MCSCF STATE  3.1 Energy             -77.482331905220
 Nuclear energy                        30.20650013
 Kinetic energy                        78.01663248
 One electron energy                 -162.97075464
 Two electron energy                   55.28192261
 Virial ratio                           1.99315145

 !MCSCF STATE  3.1 Dipole moment        0.00012752    -0.00021806     0.00129352
 Dipole moment /Debye                   0.00032411    -0.00055421     0.00328759

 State-averaged charge density matrix saved on record  2140.2 (density set 1)

 !MCSCF expec         <1.1|DMX|1.1>    -0.001515138647 au =    -0.003850846082 Debye
 !MCSCF trans         <2.1|DMX|1.1>     0.000299166798 au =     0.000760356350 Debye
 !MCSCF expec         <2.1|DMX|2.1>    -0.000680427039 au =    -0.001729359753 Debye
 !MCSCF trans         <3.1|DMX|1.1>    -0.000074124587 au =    -0.000188393569 Debye
 !MCSCF trans         <3.1|DMX|2.1>     0.000337661771 au =     0.000858194405 Debye
 !MCSCF expec         <3.1|DMX|3.1>     0.000127521900 au =     0.000324107111 Debye

 !MCSCF expec         <1.1|DMY|1.1>     0.000223496522 au =     0.000568034290 Debye
 !MCSCF trans         <2.1|DMY|1.1>     0.000280190585 au =     0.000712126788 Debye
 !MCSCF expec         <2.1|DMY|2.1>     0.000014934076 au =     0.000037956149 Debye
 !MCSCF trans         <3.1|DMY|1.1>     0.000014635383 au =     0.000037196998 Debye
 !MCSCF trans         <3.1|DMY|2.1>     0.000301722974 au =     0.000766853075 Debye
 !MCSCF expec         <3.1|DMY|3.1>    -0.000218059036 au =    -0.000554214484 Debye

 !MCSCF expec         <1.1|DMZ|1.1>     0.001323924420 au =     0.003364859827 Debye
 !MCSCF trans         <2.1|DMZ|1.1>    -0.000021571786 au =    -0.000054826421 Debye
 !MCSCF expec         <2.1|DMZ|2.1>     0.001307772861 au =     0.003323809348 Debye
 !MCSCF trans         <3.1|DMZ|1.1>     0.000001607076 au =     0.000004084511 Debye
 !MCSCF trans         <3.1|DMZ|2.1>    -0.000023701824 au =    -0.000060240081 Debye
 !MCSCF expec         <3.1|DMZ|3.1>     0.001293522845 au =     0.003287591793 Debye


 NATURAL ORBITALS (state averaged)
 =================================

  Orbital  Occupation    Energy     Coefficients
    1.1     2.00000   -11.26450     1 1s    0.72846     2 1s    0.67958
    2.1     2.00000   -11.26426     1 1s   -0.67960     2 1s    0.72849
    3.1     2.00000    -0.97397     1 1s    0.27962     1 1s    0.25134     2 1s    0.27954     2 1s    0.25129
    4.1     2.00000    -0.84838     1 1s    0.25660     1 1s    0.25502     2 1s   -0.25665     2 1s   -0.25513
    5.1     2.00000    -0.62106     1 2px  -0.26795     2 2px   0.26799
    6.1     2.00000    -0.60226     1 2py   0.28279     2 2py   0.28309
    7.1     2.00000    -0.36187     1 2pz   0.33520     1 2pz   0.31408     2 2pz   0.33558     2 2pz   0.31434
    8.1     1.00000    -0.23060     1 2px  -0.28387     2 2px   0.28373
    9.1     1.00000    -0.08647     1 2pz   0.42441     1 2pz   0.42718     2 2pz  -0.42410     2 2pz  -0.42682
   10.1    -0.00000     0.21533     1 1s   -1.03157     1 2px   0.26696     1 2py  -0.49287     2 1s   -1.03140     2 2px  -0.26614
                                    2 2py   0.49322     2 2pz  -0.25033     3 1s    1.06147     4 1s    0.46109     5 1s    0.46056
                                    6 1s    1.06143
   11.1    -0.00000     0.26745     1 1s    1.63342     1 2px   0.29105     1 2py  -0.29274     1 2pz  -0.35232     2 1s   -1.63302
                                    2 2px   0.29135     2 2py  -0.29232     2 2pz  -0.35377     4 1s   -1.04373     5 1s    1.04350
   12.1    -0.00000     0.30068     1 1s   -0.69146     1 2py  -0.25219     1 2py  -0.78878     2 1s    0.69394     2 2py  -0.25194
                                    2 2py  -0.78687     3 1s    1.44151     6 1s   -1.44090
   13.1    -0.00000     0.34596     1 1s   -1.37777     1 2px   0.77820     1 2py   0.97829     2 1s   -1.37816     2 2px  -0.77734
                                    2 2py  -0.97950     3 1s   -0.42053     4 1s    2.20453     5 1s    2.20488     6 1s   -0.42246
   14.1    -0.00000     0.37631     1 2px   0.27887     1 2px   1.49331     1 2py   0.40706     1 2pz  -0.38354     2 2px   0.27886
                                    2 2px   1.49302     2 2py   0.40606     2 2pz  -0.38150     3 1s   -0.25269     4 1s    1.85488
                                    5 1s   -1.85269     6 1s    0.25231
   15.1    -0.00000     0.66664     1 2px  -0.36659     1 2px   1.41542     1 2py   0.59495     2 2px  -0.36658     2 2px   1.41508
                                    2 2py   0.59488     4 1s    0.44350     4 1s    0.67357     5 1s   -0.44338     5 1s   -0.67257
   16.1    -0.00000     0.76184     1 1s   -0.46793     1 2px  -0.39990     1 2py   0.44907     1 2px   0.67992     1 2py  -0.52962
                                    2 1s   -0.46903     2 2px   0.40000     2 2py  -0.44888     2 2px  -0.67912     2 2py   0.52905
                                    3 1s    0.35892     3 1s   -0.27334     4 1s    0.28787     5 1s    0.28767     6 1s    0.35889
                                    6 1s   -0.27391
   17.1    -0.00000     0.79495     1 1s    0.27598     1 2pz   0.76698     1 2px   0.33770     1 2pz  -0.76813     2 1s   -0.27691
                                    2 2pz   0.76651     2 2px   0.33841     2 2pz  -0.76745
   18.1    -0.00000     0.84013     1 1s   -0.37230     1 2pz   0.73037     1 2py   0.27805     1 2pz  -0.93592     2 1s   -0.37106
                                    2 2pz  -0.73105     2 2py  -0.27873     2 2pz   0.93642
   19.1    -0.00000     0.89213     1 1s    0.35745     1 1s   -0.60977     1 2px   0.48608     1 2py  -0.46515     1 2px  -0.57650
                                    1 2py   0.82280     2 1s   -0.35808     2 1s    0.61362     2 2px   0.48552     2 2py  -0.46682
                                    2 2px  -0.57262     2 2py   0.82708     3 1s   -0.34899     3 1s   -0.30223     6 1s    0.34815
                                    6 1s    0.30355
   20.1    -0.00000     0.95292     1 1s   -1.37116     1 2py  -0.53685     1 2px   1.19052     1 2py   1.58270     1 2pz   0.31096
                                    2 1s   -1.36570     2 2py   0.53480     2 2px  -1.19345     2 2py  -1.57899     2 2pz  -0.31284
                                    3 1s    0.25995     3 1s   -0.49126     4 1s    0.37458     4 1s    1.44185     5 1s    0.37412
                                    5 1s    1.44000     6 1s    0.25891     6 1s   -0.48767
   21.1    -0.00000     1.00773     1 1s   -0.77611     1 1s    0.72713     1 2px  -0.52071     1 2px   0.52660     1 2py   0.52301
                                    1 2pz  -0.29086     2 1s   -0.77567     2 1s    0.72699     2 2px   0.52038     2 2px  -0.52447
                                    2 2py  -0.52285     2 2pz   0.28990     3 1s   -0.37284     3 1s   -0.27090     4 1s    0.25210
                                    5 1s    0.25031     6 1s   -0.37285     6 1s   -0.27116
   22.1    -0.00000     1.07153     1 1s    0.35565     1 1s   -0.61870     1 2py   0.48506     1 2px   0.45514     1 2py  -0.69449
                                    2 1s   -0.35895     2 1s    0.62443     2 2py   0.48737     2 2px   0.45533     2 2py  -0.69691
                                    3 1s   -0.72314     3 1s    1.32624     6 1s    0.72677     6 1s   -1.33227
   23.1    -0.00000     1.09430     1 1s   -0.83915     1 1s    1.98068     1 2px  -0.72213     2 1s   -0.83310     2 1s    1.96748
                                    2 2px   0.72383     3 1s    0.62383     3 1s   -1.00952     4 1s   -0.83547     5 1s   -0.83522
                                    6 1s    0.62159     6 1s   -1.00198
   24.1    -0.00000     1.20739     1 1s    1.15222     1 1s   -2.94045     1 2px   0.31586     1 2py   0.32438     1 2px  -1.58350
                                    1 2py  -0.66904     1 2pz   0.75879     2 1s   -1.15729     2 1s    2.95462     2 2px   0.31444
                                    2 2py   0.32331     2 2px  -1.57718     2 2py  -0.66244     2 2pz   0.75944     3 1s    0.35208
                                    3 1s    0.48199     4 1s    0.27360     4 1s   -0.49263     5 1s   -0.27461     5 1s    0.48252
                                    6 1s   -0.35047     6 1s   -0.48434
   25.1    -0.00000     1.37352     1 1s   -0.86690     1 1s    1.38617     1 2px   0.32772     1 2py   0.33839     1 2px  -0.44068
                                    1 2py  -0.34496     2 1s   -0.88515     2 1s    1.42382     2 2px  -0.33726     2 2py  -0.34493
                                    2 2px   0.45145     2 2py   0.35368     4 1s    0.71875     4 1s   -1.27973     5 1s    0.73127
                                    5 1s   -1.31057
   26.1    -0.00000     1.38274     1 1s   -0.98535     1 1s    2.05942     1 2px   0.46079     1 2py   0.30989     1 2px  -0.42006
                                    1 2py  -0.39216     2 1s    0.96824     2 1s   -2.03250     2 2px   0.45420     2 2py   0.30302
                                    2 2px  -0.41166     2 2py  -0.38557     4 1s    0.61284     4 1s   -1.49024     5 1s   -0.59796
                                    5 1s    1.46505
   27.1    -0.00000     1.73318     1 3d0  -0.35651     1 3d2- -0.32800     1 3d1+  0.41780     2 3d0   0.35581     2 3d2-  0.32890
                                    2 3d1+ -0.41784
   28.1    -0.00000     1.91358     1 1s   -0.27135     1 2px  -0.29163     1 2px   0.34333     1 3d1+ -0.35589     1 3d2+  0.46300
                                    2 1s   -0.27141     2 2px   0.29200     2 2px  -0.34145     2 3d1+ -0.35389     2 3d2+  0.46534
                                    4 1s    0.26407     5 1s    0.26223
   29.1    -0.00000     1.94737     1 3d2+ -0.31657     1 3d1-  0.54608     2 3d2+  0.31251     2 3d1- -0.54357
   30.1    -0.00000     2.02553     1 1s   -0.56923     1 3d0   0.41904     1 3d1+  0.35419     1 3d2+  0.26639     1 3d1- -0.34835
                                    2 1s   -0.57260     2 3d0   0.42006     2 3d1+  0.35405     2 3d2+  0.26677     2 3d1- -0.34967
                                    4 1s    0.33292     5 1s    0.33271
   31.1    -0.00000     2.24258     1 2py  -0.32358     1 3d0   0.45680     1 3d2-  0.28225     1 3d1+ -0.29866     1 3d1-  0.38500
                                    2 2py   0.32349     2 3d0   0.45617     2 3d2-  0.28200     2 3d1+ -0.29827     2 3d1-  0.38512
                                    3 1s    0.30813     6 1s    0.30754
   32.1    -0.00000     2.31233     1 1s    0.25087     1 1s   -0.89900     1 2px  -0.32153     1 3d0   0.51958     1 3d2+  0.34466
                                    1 3d1-  0.35160     2 1s   -0.25122     2 1s    0.89917     2 2px  -0.32197     2 3d0  -0.51979
                                    2 3d2+ -0.34540     2 3d1- -0.35240     3 1s    0.48386     4 1s    0.25184     5 1s   -0.25131
                                    6 1s   -0.48493
   33.1    -0.00000     2.37957     1 2py  -0.46026     1 3d2- -0.28095     1 3d1+  0.35329     1 3d2+  0.38768     1 3d1-  0.45725
                                    2 2py   0.45737     2 3d2- -0.28607     2 3d1+  0.35191     2 3d2+  0.38679     2 3d1-  0.45474
                                    3 1s    0.42354     6 1s    0.42143
   34.1    -0.00000     2.53603     1 1s    0.33255     1 1s   -0.66611     1 2px  -0.79921     1 2py  -0.32943     1 2pz   0.27636
                                    1 3d2-  0.67569     1 3d1+  0.31570     1 3d1-  0.25926     2 1s   -0.33327     2 1s    0.66689
                                    2 2px  -0.79999     2 2py  -0.33178     2 2pz   0.27636     2 3d2- -0.67290     2 3d1+ -0.31941
                                    2 3d1- -0.26331     4 1s   -0.78163     5 1s    0.78149
   35.1    -0.00000     2.79589     1 1s    0.25569     1 1s   -1.33004     1 2px  -0.78883     1 2pz   0.35035     1 3d0   0.33885
                                    1 3d1+  0.50916     1 3d2+ -0.64888     2 1s   -0.25414     2 1s    1.33796     2 2px  -0.78281
                                    2 2pz   0.35042     2 3d0  -0.34562     2 3d1+ -0.50516     2 3d2+  0.65279     4 1s    0.32545
                                    5 1s   -0.33945
   36.1    -0.00000     2.83865     1 1s    0.43286     1 2px  -0.31884     1 3d0  -0.40004     1 3d2-  0.72630     2 1s    0.41253
                                    2 2px   0.33061     2 3d0  -0.39409     2 3d2-  0.72451     4 1s   -0.86969     5 1s   -0.86428


 Natural orbital dump (state averaged) at molpro section  2140.2    (Orbital set 2)



 **********************************************************************************************************************************
 DATASETS  * FILE   NREC   LENGTH (MB)   RECORD NAMES
              1      20       31.83       500      610      700      900      950      970     1000      129      960     1100   
                                          VAR    BASINP    GEOM    SYMINP    ZMAT    AOBASIS   BASIS     P2S    ABASIS      S 
                                         1400     1410     1200     1210     1080     1600     1650     1300     1700     1380   
                                           T        V       H0       H01     AOSYM     SMH    MOLCAS    ERIS     OPER     JKOP   

              2       5        5.42       700     1000      520     2100     2140   
                                         GEOM     BASIS   MCVARS     RHF     MCSCF   

 PROGRAMS   *        TOTAL     MULTI    HF-SCF       INT
 CPU TIMES  *         1.52      1.17      0.10      0.15
 REAL TIME  *         1.79 SEC
 DISK USED  *        39.02 MB
 **********************************************************************************************************************************
 Molecular orbitals read from record     2140.2  Type=MCSCF/NATURAL (state averaged)
 Occupation numbers read from record     2140.2  Type=MCSCF/NATURAL (state averaged)
 Orbital energies read from record       2140.2  Type=MCSCF/NATURAL (state averaged)
 Redundancy group numbers read from rec  2140.2  Type=MCSCF/NATURAL (state averaged)

 MULTI/6-31G* energy=    -77.482331905220

           MULTI          HF-SCF
    -77.48233191    -77.78319911
 **********************************************************************************************************************************
 Molpro calculation terminated
