
 Primary working directories    : /scratch.local/johan406.molpro_temp/molpro.0pV3ycAXxS
 Secondary working directories  : /scratch.local/johan406.molpro_temp/molpro.0pV3ycAXxS
 Wavefunction directory         : /home/goodpast/johan406/wfu/
 Main file repository           : /scratch.local/johan406.molpro_temp/molpro.0pV3ycAXxS/

 id        : roweumn

 Nodes     nprocs
 acn06        1

 Using customized tuning parameters: mindgm=1; mindgv=20; mindgc=4; mindgr=1; noblas=0; minvec=7
 default implementation of scratch files=df  


 Variables initialized (934), CPU time= 0.00 sec
                                                                                 !leave this line blank
 
 gprint, orbitals=30
 memory, 125., m
 symmetry, nosym
 nelect=16
 basis=6-31g*
 
 geometry={
 C -0.776 0.024 0.304
 C 0.785 -0.074 -0.365
 H -0.839 1.149 -0.127
 H -1.526 -0.545 0.225
 H 1.535 0.495 -0.284
 H 0.847 -1.199 0.066
 }
 
 hf
 {multi,
 closed 7
 occ 9
 wf,spin=0;STATE,3
 }
 
 Commands  initialized (763), CPU time= 0.00 sec, 617 directives.
 Default parameters read. Elapsed time= 0.07 sec

 Checking input...
 Passed
1


                                         ***  PROGRAM SYSTEM MOLPRO  ***
                                       Copyright, TTI GmbH Stuttgart, 2015
                                    Version 2019.2 linked Oct 25 2019 22:50:27


 **********************************************************************************************************************************
 LABEL *                                                                                 
  64 bit serial version                                                                  DATE: 15-Mar-23          TIME: 16:45:15  
 **********************************************************************************************************************************

 SHA1:             8dbd9ae1082e4ce945b0f27595c9eb2d4aa09004
 **********************************************************************************************************************************


 Variable memory set to  125000000 words,  buffer space 

 SETTING NELECT         =        16.00000000                                  
 SETTING BASIS          =    6-31G*
 ZSYMEL=NOSYM


Geometry recognized as XYZ



 Recomputing integrals since basis changed


 Using spherical harmonics

 Library entry C      S 6-31G                selected for orbital group  1
 Library entry C      P 6-31G                selected for orbital group  1
 Library entry C      D 6-31G*               selected for orbital group  1
 Library entry H      S 6-31G                selected for orbital group  2


 PROGRAM * SEWARD (Integral evaluation for generally contracted gaussian basis sets)     Author: Roland Lindh, 1990

 Geometry written to block  1 of record 700


 Point group  C1  



 ATOMIC COORDINATES

 NR  ATOM    CHARGE       X              Y              Z

   1  C       6.00   -1.466427473    0.045353427    0.574476742
   2  C       6.00    1.483435008   -0.139839733   -0.689750035
   3  H       1.00   -1.585480219    2.171295317   -0.239995218
   4  H       1.00   -2.883722066   -1.029900738    0.425188378
   5  H       1.00    2.900729601    0.935414432   -0.536682219
   6  H       1.00    1.600598028   -2.265781623    0.124721924

 Bond lengths in Bohr (Angstrom)

 1-2  3.214693532  1-3  2.279729600  1-4  1.785268187  2-5  1.785588206  2-6  2.279631695
     ( 1.701142557)     ( 1.206380951)     ( 0.944723240)     ( 0.944892586)     ( 1.206329142)

 Bond angles

  1-2-5  131.29593417   1-2-6   87.72931061   2-1-3   87.77302308   2-1-4  131.36848739

  3-1-4  119.36220466   5-2-6  119.35135258

 NUCLEAR CHARGE:                   16
 NUMBER OF PRIMITIVE AOS:          72
 NUMBER OF SYMMETRY AOS:           70
 NUMBER OF CONTRACTIONS:           36   (   36A   )
 NUMBER OF CORE ORBITALS:           2   (    2A   )
 NUMBER OF VALENCE ORBITALS:       12   (   12A   )


 NUCLEAR REPULSION ENERGY   30.24057318

 Eigenvalues of metric

         1 0.177E-01 0.200E-01 0.375E-01 0.727E-01 0.849E-01 0.204E+00 0.242E+00 0.273E+00


 Contracted 2-electron integrals neglected if value below      1.0D-11
 AO integral compression algorithm  1   Integral accuracy      1.0D-11

     1.311 MB (compressed) written to integral file ( 67.1%)


 NUMBER OF SORTED TWO-ELECTRON INTEGRALS:     222111.     BUFFER LENGTH:  32768
 NUMBER OF SEGMENTS:   1  SEGMENT LENGTH:     222111      RECORD LENGTH: 524288

 Memory used in sort:       0.78 MW

 SORT1 READ      284735. AND WROTE      212494. INTEGRALS IN      1 RECORDS. CPU TIME:     0.00 SEC, REAL TIME:     0.00 SEC
 SORT2 READ      212494. AND WROTE      222111. INTEGRALS IN      5 RECORDS. CPU TIME:     0.02 SEC, REAL TIME:     0.02 SEC

 FILE SIZES:   FILE 1:    31.4 MBYTE,  FILE 4:     4.2 MBYTE,   TOTAL:     35.6 MBYTE

 OPERATOR DM      FOR CENTER  0  COORDINATES:    0.000000    0.000000    0.000000


 **********************************************************************************************************************************
 DATASETS  * FILE   NREC   LENGTH (MB)   RECORD NAMES
              1      19       31.10       500      610      700      900      950      970     1000      129      960     1100   
                                          VAR    BASINP    GEOM    SYMINP    ZMAT    AOBASIS   BASIS     P2S    ABASIS      S 
                                         1400     1410     1200     1210     1080     1600     1650     1300     1700   
                                           T        V       H0       H01     AOSYM     SMH    MOLCAS    ERIS     OPER   

 PROGRAMS   *        TOTAL       INT
 CPU TIMES  *         0.30      0.18
 REAL TIME  *         0.45 SEC
 DISK USED  *        35.97 MB
 **********************************************************************************************************************************


 PROGRAM * RHF-SCF (CLOSED SHELL)       Authors: W. Meyer, H.-J. Werner


 NUMBER OF ELECTRONS:       8+    8-    SPACE SYMMETRY=1    SPIN SYMMETRY: Singlet 
 CONVERGENCE THRESHOLDS:    1.00E-05 (Density)    1.00E-07 (Energy)
 MAX. NUMBER OF ITERATIONS:       60
 INTERPOLATION TYPE:            DIIS
 INTERPOLATION STEPS:              2 (START)      1 (STEP)
 LEVEL SHIFTS:                  0.00 (CLOSED)  0.00 (OPEN) 



 Orbital guess generated from atomic densities. Full valence occupancy:    8

 Molecular orbital dump at record        2100.2

 Initial occupancy:   8

 ITERATION    DDIFF          GRAD             ENERGY        2-EL.EN.            DIPOLE MOMENTS         DIIS   ORB.
    1      0.000D+00      0.000D+00       -77.78225063    111.161400   -0.00124    0.00000    0.00115    0    start
    2      0.000D+00      0.674D-02       -77.80242638    110.644218   -0.00054    0.00015    0.00071    1    diag
    3      0.768D-02      0.226D-02       -77.80591278    110.886649   -0.00156    0.00001    0.00156    2    diag
    4      0.373D-02      0.892D-03       -77.80676134    110.787644   -0.00058    0.00021    0.00074    3    diag
    5      0.180D-02      0.528D-03       -77.80736328    110.805421   -0.00240   -0.00008    0.00224    4    diag
    6      0.210D-02      0.215D-03       -77.80748339    110.806275    0.00171    0.00070   -0.00122    5    diag
    7      0.103D-02      0.783D-04       -77.80749052    110.806948   -0.00292   -0.00016    0.00266    6    diag
    8      0.183D-03      0.422D-04       -77.80749247    110.807722   -0.00103    0.00019    0.00107    7    diag
    9      0.103D-03      0.115D-04       -77.80749267    110.807917   -0.00122    0.00015    0.00124    8    diag
   10      0.371D-04      0.279D-05       -77.80749268    110.807856   -0.00121    0.00015    0.00123    9    orth
   11      0.834D-05      0.484D-06       -77.80749268    110.807855   -0.00121    0.00015    0.00123    0    orth

 Final occupancy:   8

 !RHF STATE  1.1 Energy               -77.807492682511
 Nuclear energy                        30.24057318
 One-electron energy                 -163.45199353
 Two-electron energy                   55.40392767
 Virial quotient                       -1.00164391
 !RHF STATE  1.1 Dipole moment         -0.00121311     0.00015349     0.00123206
 Dipole moment /Debye                  -0.00308321     0.00039010     0.00313137

 ELECTRON ORBITALS
 =================

  Orbital  Occupation    Energy     Coefficients
    1.1     2.00000   -11.27582     1 1s    0.81788     2 1s    0.56890
    2.1     2.00000   -11.27543     1 1s   -0.56897     2 1s    0.81793
    3.1     2.00000    -0.97252     1 1s    0.28497     1 1s    0.25636     2 1s    0.28465     2 1s    0.25612
    4.1     2.00000    -0.85044     1 1s    0.25591     2 1s   -0.25617
    5.1     2.00000    -0.61402     1 2px  -0.30159     2 2px   0.30149
    6.1     2.00000    -0.59981     1 2py   0.29739     2 2py   0.29828
    7.1     2.00000    -0.40255     1 2py  -0.26338     2 2py   0.26361
    8.1     2.00000    -0.33148     1 2pz   0.30894     1 2pz   0.31289     2 2pz   0.30928     2 2pz   0.31315
    9.1     0.00000     0.07391     1 1s    0.27411     1 2pz   0.35395     1 2pz   0.49815     2 1s    0.27489     2 2pz  -0.35369
                                    2 2pz  -0.49766
   10.1     0.00000     0.23092     1 1s   -1.08749     1 2px   0.31441     1 2py  -0.45203     1 2pz   0.29649     2 1s   -1.08616
                                    2 2px  -0.31342     2 2py   0.45232     2 2pz  -0.29685     3 1s    1.06117     4 1s    0.56306
                                    5 1s    0.56169     6 1s    1.06043
   11.1     0.00000     0.27079     1 1s    1.43284     1 2px   0.28225     1 2py  -0.47568     1 2pz  -0.31862     2 1s   -1.43201
                                    2 2px   0.28280     2 2py  -0.47426     2 2pz  -0.32030     4 1s   -1.08943     5 1s    1.08798
   12.1     0.00000     0.30971     1 1s   -1.12006     1 2py  -0.61091     1 2pz   0.27335     2 1s    1.12352     2 2py  -0.60899
                                    2 2pz   0.27404     3 1s    1.41008     4 1s    0.33562     5 1s   -0.34041     6 1s   -1.40995
   13.1     0.00000     0.34179     1 1s   -1.24207     1 2px   0.74599     1 2py   1.00756     2 1s   -1.24197     2 2px  -0.74341
                                    2 2py  -1.00886     3 1s   -0.48529     4 1s    2.11098     5 1s    2.10940     6 1s   -0.48786
   14.1     0.00000     0.37683     1 2px   0.27326     1 2px   1.49824     1 2py   0.46544     1 2pz  -0.45673     2 2px   0.27340
                                    2 2px   1.49880     2 2py   0.46542     2 2pz  -0.45473     3 1s   -0.42945     4 1s    1.71993
                                    5 1s   -1.71977     6 1s    0.42949
   15.1     0.00000     0.66945     1 2px  -0.36266     1 2px   1.38890     1 2py   0.56839     1 2pz  -0.25068     2 2px  -0.36264
                                    2 2px   1.38809     2 2py   0.56809     4 1s    0.44834     4 1s    0.62369     5 1s   -0.44811
                                    5 1s   -0.62210
   16.1     0.00000     0.76262     1 1s    0.45337     1 2px   0.42202     1 2py  -0.46860     1 2px  -0.69248     1 2py   0.57661
                                    2 1s    0.45427     2 2px  -0.42206     2 2py   0.46826     2 2px   0.69183     2 2py  -0.57566
                                    3 1s   -0.30977     4 1s   -0.26583     5 1s   -0.26573     6 1s   -0.30968
   17.1     0.00000     0.80263     1 2pz   0.77679     1 2pz  -0.71843     2 2pz   0.77545     2 2pz  -0.71692
   18.1     0.00000     0.84489     1 1s    0.25741     1 1s   -0.50218     1 2pz   0.75901     1 2py   0.33762     1 2pz  -0.86871
                                    2 1s    0.25781     2 1s   -0.50113     2 2pz  -0.76038     2 2py  -0.33831     2 2pz   0.86968
                                    4 1s    0.26875     5 1s    0.26763
   19.1     0.00000     0.88624     1 1s    0.32215     1 1s   -0.56576     1 2px   0.50408     1 2py  -0.47815     1 2px  -0.72259
                                    1 2py   0.83264     2 1s   -0.32233     2 1s    0.56774     2 2px   0.50377     2 2py  -0.47931
                                    2 2px  -0.72011     2 2py   0.83539     3 1s   -0.30409     3 1s   -0.37787     6 1s    0.30363
                                    6 1s    0.37872
   20.1     0.00000     0.95356     1 1s   -1.21091     1 2px  -0.35894     1 2py  -0.51967     1 2px   1.32021     1 2py   1.63627
                                    1 2pz   0.29289     2 1s   -1.20673     2 2px   0.36066     2 2py   0.51834     2 2px  -1.32153
                                    2 2py  -1.63358     2 2pz  -0.29500     3 1s   -0.44758     4 1s    0.33177     4 1s    1.43007
                                    5 1s    0.33139     5 1s    1.42785     6 1s   -0.44471
   21.1     0.00000     1.01365     1 1s   -0.83354     1 1s    1.16236     1 2px  -0.41613     1 2pz  -0.39947     2 1s   -0.83201
                                    2 1s    1.15962     2 2px   0.41521     2 2pz   0.39886     3 1s   -0.41988     4 1s   -0.30374
                                    5 1s   -0.30409     6 1s   -0.41880
   22.1     0.00000     1.10061     1 1s    0.41195     1 1s   -0.74684     1 2py   0.47369     1 2px   0.32590     1 2py  -0.69721
                                    2 1s   -0.40941     2 1s    0.74002     2 2py   0.47426     2 2px   0.32218     2 2py  -0.70015
                                    3 1s   -0.72585     3 1s    1.33627     6 1s    0.72554     6 1s   -1.33529
   23.1     0.00000     1.11213     1 1s   -0.79502     1 1s    1.76713     1 2py  -0.25933     1 2px  -0.58716     2 1s   -0.79197
                                    2 1s    1.75922     2 2py   0.25927     2 2px   0.59093     3 1s    0.65577     3 1s   -1.05935
                                    4 1s   -0.64458     5 1s   -0.64504     6 1s    0.65811     6 1s   -1.06041
   24.1     0.00000     1.22284     1 1s    1.11869     1 1s   -2.95778     1 2px   0.32654     1 2py   0.31261     1 2px  -1.57341
                                    1 2py  -0.62167     1 2pz   0.75635     2 1s   -1.12393     2 1s    2.97088     2 2px   0.32554
                                    2 2py   0.31169     2 2px  -1.56815     2 2py  -0.61624     2 2pz   0.75740     3 1s    0.37322
                                    3 1s    0.43836     4 1s    0.31263     4 1s   -0.49572     5 1s   -0.31347     5 1s    0.48697
                                    6 1s   -0.37201     6 1s   -0.44080
   25.1     0.00000     1.34792     1 1s   -0.85185     1 1s    1.36174     1 2px   0.32813     1 2py   0.33825     1 2px  -0.43935
                                    1 2py  -0.33797     2 1s   -0.87358     2 1s    1.40738     2 2px  -0.33845     2 2py  -0.34538
                                    2 2px   0.44972     2 2py   0.34718     4 1s    0.72001     4 1s   -1.26754     5 1s    0.73383
                                    5 1s   -1.30160
   26.1     0.00000     1.35438     1 1s   -1.03319     1 1s    2.19952     1 2px   0.44541     1 2py   0.30404     1 2px  -0.35248
                                    1 2py  -0.37352     2 1s    1.01439     2 1s   -2.16990     2 2px   0.43789     2 2py   0.29625
                                    2 2px  -0.34306     2 2py  -0.36624     4 1s    0.60187     4 1s   -1.47012     5 1s   -0.58497
                                    5 1s    1.44199
   27.1     0.00000     1.73048     1 3d0  -0.34152     1 3d2- -0.33005     1 3d1+  0.42198     2 3d0   0.34079     2 3d2-  0.33089
                                    2 3d1+ -0.42188
   28.1     0.00000     1.93728     1 1s   -0.31121     1 2px  -0.28368     1 2px   0.34777     1 3d1+ -0.37073     1 3d2+  0.44051
                                    2 1s   -0.31172     2 2px   0.28555     2 2px  -0.34365     2 3d1+ -0.36183     2 3d2+  0.45191
   29.1     0.00000     1.94349     1 3d2+ -0.32247     1 3d1-  0.55010     2 3d2+  0.30525     2 3d1- -0.54052
   30.1     0.00000     2.02532     1 1s   -0.57839     1 3d0   0.41832     1 3d1+  0.33843     1 3d2+  0.28730     1 3d1- -0.35241
                                    2 1s   -0.58164     2 3d0   0.41926     2 3d1+  0.33844     2 3d2+  0.28786     2 3d1- -0.35424
                                    4 1s    0.33807     5 1s    0.33779
   31.1     0.00000     2.26267     1 2py  -0.32769     1 3d0   0.45707     1 3d2-  0.26896     1 3d1+ -0.30489     1 3d1-  0.38918
                                    2 2py   0.32739     2 3d0   0.45584     2 3d2-  0.26881     2 3d1+ -0.30472     2 3d1-  0.38894
                                    3 1s    0.33584     6 1s    0.33469
   32.1     0.00000     2.32128     1 1s    0.26151     1 1s   -0.98272     1 2px  -0.30056     1 2pz   0.25406     1 3d0   0.55609
                                    1 3d2+  0.31665     1 3d1-  0.31031     2 1s   -0.26185     2 1s    0.98293     2 2px  -0.30105
                                    2 2pz   0.25421     2 3d0  -0.55687     2 3d2+ -0.31747     2 3d1- -0.31116     3 1s    0.47554
                                    4 1s    0.31003     5 1s   -0.30945     6 1s   -0.47686
   33.1     0.00000     2.39364     1 2py  -0.45235     1 3d2- -0.30306     1 3d1+  0.34632     1 3d2+  0.38373     1 3d1-  0.45170
                                    2 2py   0.44961     2 3d2- -0.30832     2 3d1+  0.34494     2 3d2+  0.38282     2 3d1-  0.44904
                                    3 1s    0.41838     6 1s    0.41617
   34.1     0.00000     2.53693     1 1s    0.29924     1 1s   -0.65881     1 2px  -0.74387     1 2py  -0.31523     1 2pz   0.26049
                                    1 3d2-  0.66786     1 3d1+  0.30076     1 3d1-  0.30039     2 1s   -0.29998     2 1s    0.65969
                                    2 2px  -0.74461     2 2py  -0.31784     2 2pz   0.26065     2 3d2- -0.66488     2 3d1+ -0.30451
                                    2 3d1- -0.30460     4 1s   -0.74210     5 1s    0.74206
   35.1     0.00000     2.81055     1 1s    0.25408     1 1s   -1.34842     1 2px  -0.81145     1 2pz   0.35555     1 3d0   0.30343
                                    1 3d1+  0.52445     1 3d2+ -0.66436     2 1s   -0.25094     2 1s    1.36478     2 2px  -0.79871
                                    2 2pz   0.35595     2 3d0  -0.31828     2 3d1+ -0.51606     2 3d2+  0.67334     5 1s   -0.27979
   36.1     0.00000     2.82853     1 1s    0.42929     1 2px  -0.30328     1 3d0  -0.38915     1 3d2-  0.72148     2 1s    0.37916
                                    2 2px   0.33280     2 3d0  -0.37684     2 3d2-  0.71882     4 1s   -0.83328     5 1s   -0.82309


 HOMO      8.1    -0.331483 =      -9.0201eV
 LUMO      9.1     0.073914 =       2.0113eV
 LUMO-HOMO         0.405397 =      11.0314eV


 **********************************************************************************************************************************
 DATASETS  * FILE   NREC   LENGTH (MB)   RECORD NAMES
              1      19       31.10       500      610      700      900      950      970     1000      129      960     1100   
                                          VAR    BASINP    GEOM    SYMINP    ZMAT    AOBASIS   BASIS     P2S    ABASIS      S 
                                         1400     1410     1200     1210     1080     1600     1650     1300     1700   
                                           T        V       H0       H01     AOSYM     SMH    MOLCAS    ERIS     OPER   

              2       4        2.86       700     1000      520     2100   
                                         GEOM     BASIS   MCVARS     RHF  

 PROGRAMS   *        TOTAL    HF-SCF       INT
 CPU TIMES  *         0.42      0.11      0.18
 REAL TIME  *         0.64 SEC
 DISK USED  *        35.97 MB
 **********************************************************************************************************************************


 PROGRAM * MULTI (Direct Multiconfiguration SCF)       Authors: P.J. Knowles, H.-J. Werner (1984)


 Number of closed-shell orbitals:   7 (   7 )
 Number of active  orbitals:        2 (   2 )
 Number of external orbitals:      27 (  27 )

 State symmetry 1

 Number of electrons:     2    Spin symmetry=Singlet   Space symmetry=1
 Number of states:        3
 Number of CSFs:          3   (4 determinants, 4 intermediate states)

 Molecular orbitals read from record     2100.2  Type=RHF/CANONICAL (state 1.1)

 Wavefunction dump at record             2140.2

 Convergence thresholds  0.10E-01 (gradient)  0.10E-05 (energy)  0.10E-02 (step length)

 Weight factors for state symmetry  1:    0.33333   0.33333   0.33333

 Number of orbital rotations:      257   (    14 Core/Active    189 Core/Virtual   0 Active/Active     54 Active/Virtual)
 Total number of variables:        269

 Micro-Iterations solved by the two-step solver

 ITER. MIC  NCI  NEG     ENERGY(VAR)     ENERGY(PROJ)   ENERGY CHANGE     GRAD(0)  GRAD(ORB)   GRAD(CI)     STEP       TIME

   1   15    7    1     -77.61293795     -77.62694490   -0.01400695    0.09189368 0.00056733 0.00000000  0.28D+00      0.61
   2   13    7    0     -77.64121056     -77.65205033   -0.01083977    0.09709117 0.00070483 0.00000000  0.17D+00      0.84
   3   14    6    0     -77.65317750     -77.65435964   -0.00118213    0.02379325 0.00001432 0.00000000  0.91D-01      1.04
   4   12    6    0     -77.65444168     -77.65449773   -0.00005605    0.00565690 0.00000689 0.00000000  0.19D-01      1.18
   5   11    6    0     -77.65449829     -77.65449833   -0.00000004    0.00019008 0.00000000 0.00000000  0.49D-03      1.29
   6    5    3    0     -77.65449833     -77.65449833   -0.00000000    0.00000010 0.00000000 0.00000000  0.41D-06      1.34

 ** WVFN ****  CONVERGENCE REACHED, FINAL GRADIENT:  0.32D-12



 Results for state 1.1
 =====================

 !MCSCF STATE  1.1 Energy             -77.800182351058
 Nuclear energy                        30.24057318
 Kinetic energy                        77.70241837
 One electron energy                 -163.49181942
 Two electron energy                   55.45106389
 Virial ratio                           2.00125818

 !MCSCF STATE  1.1 Dipole moment       -0.00143441     0.00017794     0.00132225
 Dipole moment /Debye                  -0.00364567     0.00045226     0.00336061

 Results for state 2.1
 =====================

 !MCSCF STATE  2.1 Energy             -77.677945072854
 Nuclear energy                        30.24057318
 Kinetic energy                        77.84067900
 One electron energy                 -163.28299376
 Two electron energy                   55.36447551
 Virial ratio                           1.99790940

 !MCSCF STATE  2.1 Dipole moment       -0.00070762    -0.00003214     0.00123282
 Dipole moment /Debye                  -0.00179846    -0.00008168     0.00313332

 Results for state 3.1
 =====================

 !MCSCF STATE  3.1 Energy             -77.485367575161
 Nuclear energy                        30.24057318
 Kinetic energy                        77.98127021
 One electron energy                 -163.06537117
 Two electron energy                   55.33943042
 Virial ratio                           1.99364075

 !MCSCF STATE  3.1 Dipole moment       -0.00001786    -0.00025962     0.00115713
 Dipole moment /Debye                  -0.00004538    -0.00065984     0.00294094

 State-averaged charge density matrix saved on record  2140.2 (density set 1)

 !MCSCF expec         <1.1|DMX|1.1>    -0.001434410249 au =    -0.003645668401 Debye
 !MCSCF trans         <2.1|DMX|1.1>     0.000510013792 au =     0.001296240853 Debye
 !MCSCF expec         <2.1|DMX|2.1>    -0.000707615807 au =    -0.001798462184 Debye
 !MCSCF trans         <3.1|DMX|1.1>    -0.000061912670 au =    -0.000157356004 Debye
 !MCSCF trans         <3.1|DMX|2.1>     0.000560245583 au =     0.001423908970 Debye
 !MCSCF expec         <3.1|DMX|3.1>    -0.000017855027 au =    -0.000045379980 Debye

 !MCSCF expec         <1.1|DMY|1.1>     0.000177943851 au =     0.000452258533 Debye
 !MCSCF trans         <2.1|DMY|1.1>     0.000242987534 au =     0.000617572256 Debye
 !MCSCF expec         <2.1|DMY|2.1>    -0.000032135924 au =    -0.000081676021 Debye
 !MCSCF trans         <3.1|DMY|1.1>     0.000014302317 au =     0.000036350483 Debye
 !MCSCF trans         <3.1|DMY|2.1>     0.000260223503 au =     0.000661378850 Debye
 !MCSCF expec         <3.1|DMY|3.1>    -0.000259619407 au =    -0.000659843491 Debye

 !MCSCF expec         <1.1|DMZ|1.1>     0.001322251529 au =     0.003360608042 Debye
 !MCSCF trans         <2.1|DMZ|1.1>    -0.000190197919 au =    -0.000483403227 Debye
 !MCSCF expec         <2.1|DMZ|2.1>     0.001232824636 au =     0.003133322439 Debye
 !MCSCF trans         <3.1|DMZ|1.1>     0.000008790984 au =     0.000022342990 Debye
 !MCSCF trans         <3.1|DMZ|2.1>    -0.000206744829 au =    -0.000525458522 Debye
 !MCSCF expec         <3.1|DMZ|3.1>     0.001157130133 au =     0.002940938803 Debye


 NATURAL ORBITALS (state averaged)
 =================================

  Orbital  Occupation    Energy     Coefficients
    1.1     2.00000   -11.26370     1 1s    0.72191     2 1s    0.68654
    2.1     2.00000   -11.26344     1 1s   -0.68657     2 1s    0.72194
    3.1     2.00000    -0.97437     1 1s    0.27982     1 1s    0.25370     2 1s    0.27973     2 1s    0.25365
    4.1     2.00000    -0.84213     1 1s    0.25571     1 1s    0.26013     2 1s   -0.25576     2 1s   -0.26025
    5.1     2.00000    -0.61338     1 2px  -0.26782     2 2px   0.26781
    6.1     2.00000    -0.60263     1 2py   0.28515     2 2py   0.28568
    7.1     2.00000    -0.36431     1 2pz   0.33545     1 2pz   0.31344     2 2pz   0.33581     2 2pz   0.31368
    8.1     1.00000    -0.24005     1 2px  -0.28400     2 2px   0.28391
    9.1     1.00000    -0.08495     1 2pz   0.42469     1 2pz   0.42985     2 2pz  -0.42440     2 2pz  -0.42952
   10.1    -0.00000     0.21947     1 1s   -1.05951     1 2px   0.29887     1 2py  -0.49444     1 2pz   0.26095     2 1s   -1.05937
                                    2 2px  -0.29799     2 2py   0.49480     2 2pz  -0.26153     3 1s    1.07523     4 1s    0.49163
                                    5 1s    0.49105     6 1s    1.07517
   11.1    -0.00000     0.27176     1 1s    1.69869     1 2px   0.25214     1 2py  -0.27088     1 2pz  -0.36598     2 1s   -1.69847
                                    2 2px   0.25235     2 2py  -0.27053     2 2pz  -0.36744     3 1s   -0.30625     4 1s   -1.09909
                                    5 1s    1.09909     6 1s    0.30669
   12.1    -0.00000     0.30029     1 1s   -0.63272     1 2py  -0.25331     1 2py  -0.80145     2 1s    0.63521     2 2py  -0.25304
                                    2 2py  -0.79953     3 1s    1.43824     4 1s   -0.25319     6 1s   -1.43765
   13.1    -0.00000     0.34491     1 1s   -1.30161     1 2px   0.75748     1 2py   0.98867     2 1s   -1.30170     2 2px  -0.75708
                                    2 2py  -0.99000     3 1s   -0.43952     4 1s    2.13667     5 1s    2.13733     6 1s   -0.44164
   14.1    -0.00000     0.37991     1 2px   0.28597     1 2px   1.52005     1 2py   0.35333     1 2pz  -0.39696     2 2px   0.28592
                                    2 2px   1.51954     2 2py   0.35206     2 2pz  -0.39507     4 1s    1.73653     5 1s   -1.73374
   15.1    -0.00000     0.67208     1 2px  -0.36252     1 2px   1.36913     1 2py   0.57288     2 2px  -0.36255     2 2px   1.36869
                                    2 2py   0.57277     4 1s    0.44894     4 1s    0.59977     5 1s   -0.44880     5 1s   -0.59862
   16.1    -0.00000     0.76038     1 1s    0.43941     1 2px   0.41265     1 2py  -0.44137     1 2px  -0.69041     1 2py   0.53700
                                    2 1s    0.44043     2 2px  -0.41280     2 2py   0.44125     2 2px   0.68958     2 2py  -0.53656
                                    3 1s   -0.34824     3 1s    0.25941     4 1s   -0.27385     5 1s   -0.27350     6 1s   -0.34824
                                    6 1s    0.25997
   17.1    -0.00000     0.79590     1 1s    0.28995     1 2pz   0.76757     1 2px   0.30669     1 2pz  -0.76555     2 1s   -0.29074
                                    2 2pz   0.76712     2 2px   0.30730     2 2pz  -0.76498
   18.1    -0.00000     0.84027     1 1s   -0.35743     1 2pz   0.72966     1 2py   0.29645     1 2pz  -0.93923     2 1s   -0.35631
                                    2 2pz  -0.73023     2 2py  -0.29713     2 2pz   0.93963
   19.1    -0.00000     0.88836     1 1s    0.34152     1 1s   -0.57226     1 2px   0.49592     1 2py  -0.45040     1 2px  -0.62973
                                    1 2py   0.77965     2 1s   -0.34209     2 1s    0.57546     2 2px   0.49540     2 2py  -0.45175
                                    2 2px  -0.62633     2 2py   0.78315     3 1s   -0.36721     3 1s   -0.26736     6 1s    0.36643
                                    6 1s    0.26847
   20.1    -0.00000     0.95461     1 1s   -1.15278     1 2px  -0.31979     1 2py  -0.54873     1 2px   1.26138     1 2py   1.64548
                                    1 2pz   0.27518     2 1s   -1.14803     2 2px   0.32190     2 2py   0.54698     2 2px  -1.26324
                                    2 2py  -1.64223     2 2pz  -0.27719     3 1s   -0.50177     4 1s    0.32894     4 1s    1.39855
                                    5 1s    0.32846     5 1s    1.39632     6 1s   -0.49876
   21.1    -0.00000     1.00276     1 1s   -0.78586     1 1s    1.00234     1 2px  -0.44797     1 2pz  -0.35330     2 1s   -0.78472
                                    2 1s    1.00064     2 2px   0.44701     2 2pz   0.35276     3 1s   -0.45002     4 1s   -0.27233
                                    5 1s   -0.27276     6 1s   -0.44934
   22.1    -0.00000     1.07491     1 1s    0.34404     1 1s   -0.58575     1 2py   0.50423     1 2px   0.44114     1 2py  -0.72835
                                    2 1s   -0.34613     2 1s    0.58912     2 2py   0.50631     2 2px   0.44079     2 2py  -0.73089
                                    3 1s   -0.71488     3 1s    1.33637     6 1s    0.71804     6 1s   -1.34127
   23.1    -0.00000     1.09473     1 1s   -0.85115     1 1s    1.91391     1 2py  -0.25232     1 2px  -0.67051     2 1s   -0.84621
                                    2 1s    1.90297     2 2px   0.67186     3 1s    0.61380     3 1s   -1.03306     4 1s   -0.73169
                                    5 1s   -0.73156     6 1s    0.61211     6 1s   -1.02701
   24.1    -0.00000     1.21684     1 1s    1.13790     1 1s   -2.98943     1 2px   0.32580     1 2py   0.31806     1 2px  -1.57194
                                    1 2py  -0.63377     1 2pz   0.75321     2 1s   -1.14265     2 1s    3.00177     2 2px   0.32474
                                    2 2py   0.31704     2 2px  -1.56673     2 2py  -0.62816     2 2pz   0.75399     3 1s    0.34641
                                    3 1s    0.47532     4 1s    0.31009     4 1s   -0.48994     5 1s   -0.31099     5 1s    0.48145
                                    6 1s   -0.34523     6 1s   -0.47740
   25.1    -0.00000     1.35355     1 1s   -0.85822     1 1s    1.36849     1 2px   0.32457     1 2py   0.33133     1 2px  -0.44028
                                    1 2py  -0.33377     2 1s   -0.88896     2 1s    1.43327     2 2px  -0.33891     2 2py  -0.34082
                                    2 2px   0.45395     2 2py   0.34606     4 1s    0.71348     4 1s   -1.26172     5 1s    0.73231
                                    5 1s   -1.30851
   26.1    -0.00000     1.36083     1 1s   -1.03477     1 1s    2.19362     1 2px   0.45218     1 2py   0.29681     1 2px  -0.36963
                                    1 2py  -0.37149     2 1s    1.00797     2 1s   -2.15111     2 2px   0.44178     2 2py   0.28624
                                    2 2px  -0.35612     2 2py  -0.36122     4 1s    0.59960     4 1s   -1.47632     5 1s   -0.57653
                                    5 1s    1.43680
   27.1    -0.00000     1.72507     1 3d0  -0.34014     1 3d2- -0.33237     1 3d1+  0.41923     2 3d0   0.33946     2 3d2-  0.33328
                                    2 3d1+ -0.41924
   28.1    -0.00000     1.93423     1 1s   -0.29652     1 2px  -0.28976     1 2px   0.35506     1 3d1+ -0.35904     1 3d2+  0.45661
                                    2 1s   -0.29677     2 2px   0.29139     2 2px  -0.35131     2 3d1+ -0.35125     2 3d2+  0.46652
                                    4 1s    0.25113
   29.1    -0.00000     1.94231     1 3d2+ -0.32294     1 3d1-  0.54721     2 3d2+  0.30772     2 3d1- -0.53922
   30.1    -0.00000     2.02525     1 1s   -0.57862     1 3d0   0.42078     1 3d1+  0.35055     1 3d2+  0.27546     1 3d1- -0.34442
                                    2 1s   -0.58219     2 3d0   0.42174     2 3d1+  0.35040     2 3d2+  0.27580     2 3d1- -0.34575
                                    4 1s    0.33333     5 1s    0.33313
   31.1    -0.00000     2.25765     1 2py  -0.33962     1 3d0   0.45275     1 3d2-  0.27478     1 3d1+ -0.29402     1 3d1-  0.39820
                                    2 2py   0.33948     2 3d0   0.45199     2 3d2-  0.27447     2 3d1+ -0.29366     2 3d1-  0.39820
                                    3 1s    0.33333     6 1s    0.33261
   32.1    -0.00000     2.31786     1 1s    0.26324     1 1s   -0.96681     1 2px  -0.29030     1 3d0   0.55108     1 3d2+  0.32852
                                    1 3d1-  0.31585     2 1s   -0.26355     2 1s    0.96697     2 2px  -0.29072     2 3d0  -0.55130
                                    2 3d2+ -0.32945     2 3d1- -0.31678     3 1s    0.46972     4 1s    0.30008     5 1s   -0.29955
                                    6 1s   -0.47103
   33.1    -0.00000     2.38499     1 2py  -0.45374     1 3d2- -0.30770     1 3d1+  0.35340     1 3d2+  0.37577     1 3d1-  0.45216
                                    2 2py   0.45095     2 3d2- -0.31273     2 3d1+  0.35196     2 3d2+  0.37462     2 3d1-  0.44926
                                    3 1s    0.40611     6 1s    0.40365
   34.1    -0.00000     2.53217     1 1s    0.30374     1 1s   -0.65945     1 2px  -0.74121     1 2py  -0.31264     1 2pz   0.25965
                                    1 3d2-  0.66619     1 3d1+  0.29970     1 3d1-  0.30025     2 1s   -0.30446     2 1s    0.66021
                                    2 2px  -0.74202     2 2py  -0.31524     2 2pz   0.25977     2 3d2- -0.66336     2 3d1+ -0.30345
                                    2 3d1- -0.30435     4 1s   -0.74835     5 1s    0.74840
   35.1    -0.00000     2.80396     1 1s    0.26440     1 1s   -1.37872     1 2px  -0.82470     1 2pz   0.36319     1 3d0   0.31315
                                    1 3d1+  0.52810     1 3d2+ -0.65914     2 1s   -0.26174     2 1s    1.39267     2 2px  -0.81389
                                    2 2pz   0.36344     2 3d0  -0.32601     2 3d1+ -0.52070     2 3d2+  0.66674     4 1s    0.25590
                                    5 1s   -0.28253
   36.1    -0.00000     2.82587     1 1s    0.42493     1 2px  -0.30332     1 3d0  -0.39576     1 3d2-  0.71604     2 1s    0.38185
                                    2 2px   0.32849     2 3d0  -0.38494     2 3d2-  0.71363     4 1s   -0.83570     5 1s   -0.82674


 Natural orbital dump (state averaged) at molpro section  2140.2    (Orbital set 2)



 **********************************************************************************************************************************
 DATASETS  * FILE   NREC   LENGTH (MB)   RECORD NAMES
              1      20       31.83       500      610      700      900      950      970     1000      129      960     1100   
                                          VAR    BASINP    GEOM    SYMINP    ZMAT    AOBASIS   BASIS     P2S    ABASIS      S 
                                         1400     1410     1200     1210     1080     1600     1650     1300     1700     1380   
                                           T        V       H0       H01     AOSYM     SMH    MOLCAS    ERIS     OPER     JKOP   

              2       5        5.42       700     1000      520     2100     2140   
                                         GEOM     BASIS   MCVARS     RHF     MCSCF   

 PROGRAMS   *        TOTAL     MULTI    HF-SCF       INT
 CPU TIMES  *         1.80      1.39      0.11      0.18
 REAL TIME  *         2.14 SEC
 DISK USED  *        39.02 MB
 **********************************************************************************************************************************
 Molecular orbitals read from record     2140.2  Type=MCSCF/NATURAL (state averaged)
 Occupation numbers read from record     2140.2  Type=MCSCF/NATURAL (state averaged)
 Orbital energies read from record       2140.2  Type=MCSCF/NATURAL (state averaged)
 Redundancy group numbers read from rec  2140.2  Type=MCSCF/NATURAL (state averaged)

 MULTI/6-31G* energy=    -77.485367575161

           MULTI          HF-SCF
    -77.48536758    -77.80749268
 **********************************************************************************************************************************
 Molpro calculation terminated
