
 Primary working directories    : /scratch.local/johan406.molpro_temp/molpro.xWN6PnSURm
 Secondary working directories  : /scratch.local/johan406.molpro_temp/molpro.xWN6PnSURm
 Wavefunction directory         : /home/goodpast/johan406/wfu/
 Main file repository           : /scratch.local/johan406.molpro_temp/molpro.xWN6PnSURm/

 id        : roweumn

 Nodes     nprocs
 acn06        1

 Using customized tuning parameters: mindgm=1; mindgv=20; mindgc=4; mindgr=1; noblas=0; minvec=7
 default implementation of scratch files=df  


 Variables initialized (934), CPU time= 0.00 sec
                                                                                 !leave this line blank
 
 gprint, orbitals=30
 memory, 125., m
 symmetry, nosym
 nelect=16
 basis=6-31g*
 
 geometry={
 C -0.764 0.031 0.302
 C 0.773 -0.081 -0.362
 H -0.884 1.141 -0.115
 H -1.513 -0.549 0.198
 H 1.522 0.498 -0.256
 H 0.892 -1.191 0.054
 }
 
 hf
 {multi,
 closed 7
 occ 9
 wf,spin=0;STATE,3
 }
 
 Commands  initialized (763), CPU time= 0.01 sec, 617 directives.
 Default parameters read. Elapsed time= 0.06 sec

 Checking input...
 Passed
1


                                         ***  PROGRAM SYSTEM MOLPRO  ***
                                       Copyright, TTI GmbH Stuttgart, 2015
                                    Version 2019.2 linked Oct 25 2019 22:50:27


 **********************************************************************************************************************************
 LABEL *                                                                                 
  64 bit serial version                                                                  DATE: 15-Mar-23          TIME: 16:45:49  
 **********************************************************************************************************************************

 SHA1:             8dbd9ae1082e4ce945b0f27595c9eb2d4aa09004
 **********************************************************************************************************************************


 Variable memory set to  125000000 words,  buffer space 

 SETTING NELECT         =        16.00000000                                  
 SETTING BASIS          =    6-31G*
 ZSYMEL=NOSYM


Geometry recognized as XYZ



 Recomputing integrals since basis changed


 Using spherical harmonics

 Library entry C      S 6-31G                selected for orbital group  1
 Library entry C      P 6-31G                selected for orbital group  1
 Library entry C      D 6-31G*               selected for orbital group  1
 Library entry H      S 6-31G                selected for orbital group  2


 PROGRAM * SEWARD (Integral evaluation for generally contracted gaussian basis sets)     Author: Roland Lindh, 1990

 Geometry written to block  1 of record 700


 Point group  C1  



 ATOMIC COORDINATES

 NR  ATOM    CHARGE       X              Y              Z

   1  C       6.00   -1.443750759    0.058581510    0.570697290
   2  C       6.00    1.460758294   -0.153067816   -0.684080857
   3  H       1.00   -1.670517894    2.156177508   -0.217318504
   4  H       1.00   -2.859155626   -1.037459642    0.374165773
   5  H       1.00    2.876163162    0.941083610   -0.483769888
   6  H       1.00    1.685635703   -2.250663814    0.102045211

 Bond lengths in Bohr (Angstrom)

 1-2  3.171030822  1-3  2.252176991  1-4  1.800916928  2-5  1.800184092  2-6  2.251326945
     ( 1.678037246)     ( 1.191800738)     ( 0.953004197)     ( 0.952616397)     ( 1.191350914)

 Bond angles

  1-2-5  129.46254983   1-2-6   90.88847748   2-1-3   90.91315623   2-1-4  129.49979724

  3-1-4  116.71239384   5-2-6  116.67348146

 NUCLEAR CHARGE:                   16
 NUMBER OF PRIMITIVE AOS:          72
 NUMBER OF SYMMETRY AOS:           70
 NUMBER OF CONTRACTIONS:           36   (   36A   )
 NUMBER OF CORE ORBITALS:           2   (    2A   )
 NUMBER OF VALENCE ORBITALS:       12   (   12A   )


 NUCLEAR REPULSION ENERGY   30.40227271

 Eigenvalues of metric

         1 0.167E-01 0.207E-01 0.398E-01 0.695E-01 0.835E-01 0.205E+00 0.248E+00 0.267E+00


 Contracted 2-electron integrals neglected if value below      1.0D-11
 AO integral compression algorithm  1   Integral accuracy      1.0D-11

     1.311 MB (compressed) written to integral file ( 67.4%)


 NUMBER OF SORTED TWO-ELECTRON INTEGRALS:     222111.     BUFFER LENGTH:  32768
 NUMBER OF SEGMENTS:   1  SEGMENT LENGTH:     222111      RECORD LENGTH: 524288

 Memory used in sort:       0.78 MW

 SORT1 READ      284735. AND WROTE      212509. INTEGRALS IN      1 RECORDS. CPU TIME:     0.00 SEC, REAL TIME:     0.00 SEC
 SORT2 READ      212509. AND WROTE      222111. INTEGRALS IN      5 RECORDS. CPU TIME:     0.02 SEC, REAL TIME:     0.02 SEC

 FILE SIZES:   FILE 1:    31.4 MBYTE,  FILE 4:     4.2 MBYTE,   TOTAL:     35.6 MBYTE

 OPERATOR DM      FOR CENTER  0  COORDINATES:    0.000000    0.000000    0.000000


 **********************************************************************************************************************************
 DATASETS  * FILE   NREC   LENGTH (MB)   RECORD NAMES
              1      19       31.10       500      610      700      900      950      970     1000      129      960     1100   
                                          VAR    BASINP    GEOM    SYMINP    ZMAT    AOBASIS   BASIS     P2S    ABASIS      S 
                                         1400     1410     1200     1210     1080     1600     1650     1300     1700   
                                           T        V       H0       H01     AOSYM     SMH    MOLCAS    ERIS     OPER   

 PROGRAMS   *        TOTAL       INT
 CPU TIMES  *         0.28      0.18
 REAL TIME  *         0.42 SEC
 DISK USED  *        35.97 MB
 **********************************************************************************************************************************


 PROGRAM * RHF-SCF (CLOSED SHELL)       Authors: W. Meyer, H.-J. Werner


 NUMBER OF ELECTRONS:       8+    8-    SPACE SYMMETRY=1    SPIN SYMMETRY: Singlet 
 CONVERGENCE THRESHOLDS:    1.00E-05 (Density)    1.00E-07 (Energy)
 MAX. NUMBER OF ITERATIONS:       60
 INTERPOLATION TYPE:            DIIS
 INTERPOLATION STEPS:              2 (START)      1 (STEP)
 LEVEL SHIFTS:                  0.00 (CLOSED)  0.00 (OPEN) 



 Orbital guess generated from atomic densities. Full valence occupancy:    8

 Molecular orbital dump at record        2100.2

 Initial occupancy:   8

 ITERATION    DDIFF          GRAD             ENERGY        2-EL.EN.            DIPOLE MOMENTS         DIIS   ORB.
    1      0.000D+00      0.000D+00       -77.80749474    111.551002   -0.00233   -0.00039    0.00151    0    start
    2      0.000D+00      0.680D-02       -77.82767222    110.987910    0.00025   -0.00007   -0.00022    1    diag
    3      0.756D-02      0.227D-02       -77.83100395    111.247219   -0.00239   -0.00050    0.00212    2    diag
    4      0.359D-02      0.886D-03       -77.83178803    111.144787    0.00049   -0.00009   -0.00031    3    diag
    5      0.172D-02      0.500D-03       -77.83229136    111.160096   -0.00409   -0.00080    0.00367    4    diag
    6      0.192D-02      0.194D-03       -77.83236560    111.161102    0.00431    0.00053   -0.00363    5    diag
    7      0.696D-03      0.114D-03       -77.83237704    111.161096   -0.00141   -0.00038    0.00133    6    diag
    8      0.245D-03      0.297D-04       -77.83237846    111.161800   -0.00084   -0.00029    0.00084    7    diag
    9      0.922D-04      0.806D-05       -77.83237855    111.161915   -0.00088   -0.00029    0.00087    8    diag
   10      0.241D-04      0.204D-05       -77.83237856    111.161872   -0.00087   -0.00029    0.00087    9    orth
   11      0.552D-05      0.353D-06       -77.83237856    111.161872   -0.00087   -0.00029    0.00087    0    orth

 Final occupancy:   8

 !RHF STATE  1.1 Energy               -77.832378559452
 Nuclear energy                        30.40227271
 One-electron energy                 -163.81558738
 Two-electron energy                   55.58093611
 Virial quotient                       -1.00176131
 !RHF STATE  1.1 Dipole moment         -0.00087412    -0.00029328     0.00087322
 Dipole moment /Debye                  -0.00222165    -0.00074538     0.00221936

 ELECTRON ORBITALS
 =================

  Orbital  Occupation    Energy     Coefficients
    1.1     2.00000   -11.27289     1 1s   -0.85389     2 1s   -0.51327
    2.1     2.00000   -11.27245     1 1s    0.51334     2 1s   -0.85394
    3.1     2.00000    -0.97489     1 1s    0.28548     1 1s    0.25696     2 1s    0.28559     2 1s    0.25701
    4.1     2.00000    -0.84727     1 1s    0.25526     2 1s   -0.25509
    5.1     2.00000    -0.60592     1 2px  -0.30393     2 2px   0.30388
    6.1     2.00000    -0.60198     1 2py   0.30088     2 2py   0.30196
    7.1     2.00000    -0.41679     1 2py  -0.26255     2 2py   0.26276
    8.1     2.00000    -0.33467     1 2pz   0.31056     1 2pz   0.31314     2 2pz   0.31085     2 2pz   0.31339
    9.1     0.00000     0.07466     1 1s    0.28203     1 2pz   0.35319     1 2pz   0.50000     2 1s    0.28260     2 2pz  -0.35302
                                    2 2pz  -0.49966
   10.1     0.00000     0.23781     1 1s   -1.15217     1 2px   0.36850     1 2py  -0.44425     1 2pz   0.31783     2 1s   -1.14871
                                    2 2px  -0.36727     2 2py   0.44505     2 2pz  -0.31725     3 1s    1.08487     4 1s    0.63146
                                    5 1s    0.62835     6 1s    1.08331
   11.1     0.00000     0.28023     1 1s    1.53047     1 2px   0.25385     1 2py  -0.47534     1 2pz  -0.33884     2 1s   -1.53155
                                    2 2px   0.25379     2 2py  -0.47224     2 2pz  -0.34116     4 1s   -1.18592     5 1s    1.18469
   12.1     0.00000     0.31021     1 1s    1.09478     1 2py   0.63796     1 2pz  -0.27138     2 1s   -1.10324     2 2py   0.63473
                                    2 2pz  -0.27205     3 1s   -1.44287     5 1s    0.25493     6 1s    1.44352
   13.1     0.00000     0.34245     1 1s   -1.16348     1 2px   0.71853     1 2py   1.04601     2 1s   -1.16317     2 2px  -0.71543
                                    2 2py  -1.04895     3 1s   -0.53448     4 1s    2.06081     5 1s    2.06038     6 1s   -0.54087
   14.1     0.00000     0.38188     1 2px  -0.27978     1 2px  -1.52940     1 2py  -0.39611     1 2pz   0.45932     2 2px  -0.28005
                                    2 2px  -1.53139     2 2py  -0.39669     2 2pz   0.45700     3 1s    0.35163     4 1s   -1.61969
                                    5 1s    1.62365     6 1s   -0.35165
   15.1     0.00000     0.67397     1 2px  -0.34882     1 2px   1.30650     1 2py   0.56077     2 2px  -0.34869     2 2px   1.30708
                                    2 2py   0.56165     4 1s    0.45079     4 1s    0.56076     5 1s   -0.45053     5 1s   -0.56169
   16.1     0.00000     0.76029     1 1s    0.45468     1 2px   0.44485     1 2py  -0.44546     1 2px  -0.73010     1 2py   0.55699
                                    2 1s    0.45670     2 2px  -0.44515     2 2py   0.44518     2 2px   0.73136     2 2py  -0.55612
                                    3 1s   -0.29537     4 1s   -0.27416     5 1s   -0.27577     6 1s   -0.29546
   17.1     0.00000     0.80365     1 2pz   0.77566     1 2pz  -0.71234     2 2pz   0.77437     2 2pz  -0.71089
   18.1     0.00000     0.84529     1 1s   -0.25475     1 1s    0.48995     1 2pz  -0.75648     1 2py  -0.38230     1 2pz   0.86835
                                    2 1s   -0.25554     2 1s    0.48990     2 2pz   0.75768     2 2py   0.38358     2 2pz  -0.86910
                                    4 1s   -0.26815     5 1s   -0.26738
   19.1     0.00000     0.88014     1 1s    0.29348     1 1s   -0.51364     1 2px   0.52437     1 2py  -0.45290     1 2px  -0.80989
                                    1 2py   0.77199     2 1s   -0.29303     2 1s    0.51446     2 2px   0.52331     2 2py  -0.45382
                                    2 2px  -0.80682     2 2py   0.77506     3 1s   -0.32431     3 1s   -0.33919     6 1s    0.32407
                                    6 1s    0.34045
   20.1     0.00000     0.93974     1 1s   -0.93380     1 2px  -0.41879     1 2py  -0.51156     1 2px   1.26940     1 2py   1.63281
                                    1 2pz   0.26083     2 1s   -0.93273     2 2px   0.42007     2 2py   0.50936     2 2px  -1.27102
                                    2 2py  -1.62905     2 2pz  -0.26343     3 1s   -0.40430     4 1s    0.27173     4 1s    1.29033
                                    5 1s    0.27123     5 1s    1.28961     6 1s   -0.40132
   21.1     0.00000     1.02177     1 1s    0.84853     1 1s   -1.45853     1 2px   0.31264     1 2pz   0.47512     2 1s    0.84799
                                    2 1s   -1.45873     2 2px  -0.31142     2 2pz  -0.47506     3 1s    0.45099     4 1s    0.36637
                                    4 1s    0.51413     5 1s    0.36634     5 1s    0.51768     6 1s    0.44859
   22.1     0.00000     1.10880     1 1s    0.40260     1 1s   -0.71951     1 2py   0.50605     1 2px   0.32096     1 2py  -0.74013
                                    2 1s   -0.37484     2 1s    0.66002     2 2py   0.49804     2 2px   0.30090     2 2py  -0.74329
                                    3 1s   -0.72596     3 1s    1.36352     6 1s    0.70623     6 1s   -1.32939
   23.1     0.00000     1.11621     1 1s   -0.78115     1 1s    1.64306     1 2py  -0.29508     1 2px  -0.49893     2 1s   -0.79141
                                    2 1s    1.66046     2 2py   0.31141     2 2px   0.51013     3 1s    0.64254     3 1s   -1.07068
                                    4 1s   -0.50410     5 1s   -0.50421     6 1s    0.66602     6 1s   -1.11341
   24.1     0.00000     1.23835     1 1s    1.11402     1 1s   -3.04980     1 2px   0.33103     1 2py   0.29718     1 2px  -1.53356
                                    1 2py  -0.55923     1 2pz   0.74736     2 1s   -1.11953     2 1s    3.06122     2 2px   0.33017
                                    2 2py   0.29543     2 2px  -1.53019     2 2py  -0.55583     2 2pz   0.74805     3 1s    0.36286
                                    3 1s    0.43518     4 1s    0.35117     4 1s   -0.45693     5 1s   -0.34969     5 1s    0.44891
                                    6 1s   -0.36288     6 1s   -0.43704
   25.1     0.00000     1.34009     1 1s   -0.99760     1 1s    1.70777     1 2px   0.39881     1 2py   0.37725     1 2px  -0.49567
                                    1 2py  -0.39232     2 1s   -0.69763     2 1s    1.05122     2 2px  -0.28095     2 2py  -0.29773
                                    2 2px   0.41411     2 2py   0.29293     4 1s    0.79815     4 1s   -1.47991     5 1s    0.64101
                                    5 1s   -1.07701
   26.1     0.00000     1.34205     1 1s    0.94301     1 1s   -2.12245     1 2px  -0.37975     1 2px   0.25063     1 2py   0.31436
                                    1 2pz   0.25168     2 1s   -1.18049     2 1s    2.51027     2 2px  -0.47511     2 2py  -0.33425
                                    2 2px   0.37882     2 2py   0.40962     2 2pz   0.29035     4 1s   -0.46697     4 1s    1.27328
                                    5 1s    0.66760     5 1s   -1.63161
   27.1     0.00000     1.72402     1 3d0   0.31398     1 3d2-  0.33272     1 3d1+ -0.42683     2 3d0  -0.31290     2 3d2- -0.33396
                                    2 3d1+  0.42688
   28.1     0.00000     1.93467     1 3d2+  0.31601     1 3d1- -0.54217     2 3d2+ -0.31746     2 3d1-  0.54362
   29.1     0.00000     1.96458     1 1s   -0.35411     1 2px  -0.28406     1 2px   0.33826     1 3d1+ -0.38855     1 3d2+  0.41850
                                    2 1s   -0.35399     2 2px   0.28377     2 2px  -0.33791     2 3d1+ -0.39031     2 3d2+  0.41607
   30.1     0.00000     2.02857     1 1s   -0.59702     1 2px   0.27795     1 2py   0.25618     1 3d0   0.40406     1 3d1+  0.30500
                                    1 3d2+  0.33530     1 3d1- -0.36441     2 1s   -0.60100     2 2px  -0.27655     2 2py  -0.25492
                                    2 3d0   0.40474     2 3d1+  0.30419     2 3d2+  0.33507     2 3d1- -0.36651     4 1s    0.36818
                                    5 1s    0.36834
   31.1     0.00000     2.28875     1 2py  -0.35137     1 3d0   0.45606     1 3d1+ -0.30291     1 3d1-  0.40871     2 2py   0.34949
                                    2 3d0   0.44893     2 3d2-  0.25042     2 3d1+ -0.30360     2 3d1-  0.40489     3 1s    0.37739
                                    6 1s    0.37155
   32.1     0.00000     2.33103     1 1s   -0.28811     1 1s    1.11259     1 2px   0.29101     1 2pz  -0.27233     1 3d0  -0.58897
                                    1 3d2+ -0.29097     1 3d1- -0.26495     2 1s    0.28841     2 1s   -1.11245     2 2px   0.29325
                                    2 2pz  -0.27179     2 3d0   0.59484     2 3d2+  0.29364     2 3d1-  0.26963     3 1s   -0.46105
                                    4 1s   -0.35514     5 1s    0.35370     6 1s    0.46692
   33.1     0.00000     2.39278     1 2py  -0.44495     1 3d2- -0.33662     1 3d1+  0.34611     1 3d2+  0.36662     1 3d1-  0.44261
                                    2 2py   0.44233     2 3d2- -0.34191     2 3d1+  0.34493     2 3d2+  0.36567     2 3d1-  0.43900
                                    3 1s    0.38813     6 1s    0.38555
   34.1     0.00000     2.55530     1 1s    0.27426     1 1s   -0.63665     1 2px  -0.66214     1 2py  -0.28498     1 3d2-  0.66256
                                    1 3d1+  0.28664     1 3d1-  0.33574     2 1s   -0.27509     2 1s    0.63831     2 2px  -0.66211
                                    2 2py  -0.28715     2 3d2- -0.65760     2 3d1+ -0.28983     2 3d1- -0.33972     3 1s    0.28473
                                    4 1s   -0.72126     5 1s    0.72012     6 1s   -0.28701
   35.1     0.00000     2.82181     1 1s   -1.38826     1 2px  -0.82291     1 2pz   0.36093     1 3d0   0.28288     1 3d1+  0.53648
                                    1 3d2+ -0.67890     2 1s    1.39454     2 2px  -0.81781     2 2pz   0.36104     2 3d0  -0.28865
                                    2 3d1+ -0.53238     2 3d2+  0.68317
   36.1     0.00000     2.82789     1 1s    0.39531     1 2px  -0.30274     1 2py  -0.25518     1 3d0  -0.37624     1 3d2-  0.71380
                                    2 1s    0.37399     2 2px   0.31659     2 2py   0.25480     2 3d0  -0.37170     2 3d2-  0.71490
                                    4 1s   -0.81057     5 1s   -0.81021


 HOMO      8.1    -0.334665 =      -9.1067eV
 LUMO      9.1     0.074664 =       2.0317eV
 LUMO-HOMO         0.409330 =      11.1384eV


 **********************************************************************************************************************************
 DATASETS  * FILE   NREC   LENGTH (MB)   RECORD NAMES
              1      19       31.10       500      610      700      900      950      970     1000      129      960     1100   
                                          VAR    BASINP    GEOM    SYMINP    ZMAT    AOBASIS   BASIS     P2S    ABASIS      S 
                                         1400     1410     1200     1210     1080     1600     1650     1300     1700   
                                           T        V       H0       H01     AOSYM     SMH    MOLCAS    ERIS     OPER   

              2       4        2.86       700     1000      520     2100   
                                         GEOM     BASIS   MCVARS     RHF  

 PROGRAMS   *        TOTAL    HF-SCF       INT
 CPU TIMES  *         0.38      0.09      0.18
 REAL TIME  *         0.55 SEC
 DISK USED  *        35.97 MB
 **********************************************************************************************************************************


 PROGRAM * MULTI (Direct Multiconfiguration SCF)       Authors: P.J. Knowles, H.-J. Werner (1984)


 Number of closed-shell orbitals:   7 (   7 )
 Number of active  orbitals:        2 (   2 )
 Number of external orbitals:      27 (  27 )

 State symmetry 1

 Number of electrons:     2    Spin symmetry=Singlet   Space symmetry=1
 Number of states:        3
 Number of CSFs:          3   (4 determinants, 4 intermediate states)

 Molecular orbitals read from record     2100.2  Type=RHF/CANONICAL (state 1.1)

 Wavefunction dump at record             2140.2

 Convergence thresholds  0.10E-01 (gradient)  0.10E-05 (energy)  0.10E-02 (step length)

 Weight factors for state symmetry  1:    0.33333   0.33333   0.33333

 Number of orbital rotations:      257   (    14 Core/Active    189 Core/Virtual   0 Active/Active     54 Active/Virtual)
 Total number of variables:        269

 Micro-Iterations solved by the two-step solver

 ITER. MIC  NCI  NEG     ENERGY(VAR)     ENERGY(PROJ)   ENERGY CHANGE     GRAD(0)  GRAD(ORB)   GRAD(CI)     STEP       TIME

   1   16    8    1     -77.63454377     -77.64579078   -0.01124701    0.09316984 0.00058073 0.00000000  0.26D+00      0.37
   2   12    6    0     -77.65389876     -77.66175907   -0.00786031    0.08632988 0.00051289 0.00000000  0.15D+00      0.58
   3   15    7    0     -77.66261927     -77.66369773   -0.00107846    0.02004752 0.00000420 0.00000000  0.99D-01      0.76
   4   15    6    0     -77.66382146     -77.66401365   -0.00019219    0.00826604 0.00000928 0.00000000  0.53D-01      0.92
   5   13    6    0     -77.66402573     -77.66403639   -0.00001066    0.00220828 0.00000517 0.00000000  0.11D-01      1.03
   6   12    6    0     -77.66403648     -77.66403649   -0.00000001    0.00007139 0.00000000 0.00000000  0.28D-03      1.13
   7    3    3    0     -77.66403649     -77.66403649   -0.00000000    0.00000003 0.00000001 0.00000000  0.18D-06      1.18

 ** WVFN ****  CONVERGENCE REACHED, FINAL GRADIENT:  0.16D-11



 Results for state 1.1
 =====================

 !MCSCF STATE  1.1 Energy             -77.825107889796
 Nuclear energy                        30.40227271
 Kinetic energy                        77.72699490
 One electron energy                 -163.86984452
 Two electron energy                   55.64246392
 Virial ratio                           2.00126228

 !MCSCF STATE  1.1 Dipole moment       -0.00113115    -0.00057973     0.00159389
 Dipole moment /Debye                  -0.00287491    -0.00147344     0.00405101

 Results for state 2.1
 =====================

 !MCSCF STATE  2.1 Energy             -77.688349765026
 Nuclear energy                        30.40227271
 Kinetic energy                        77.86375720
 One electron energy                 -163.62467041
 Two electron energy                   55.53404794
 Virial ratio                           1.99774725

 !MCSCF STATE  2.1 Dipole moment       -0.00071314    -0.00051231     0.00002062
 Dipole moment /Debye                  -0.00181250    -0.00130208     0.00005240

 Results for state 3.1
 =====================

 !MCSCF STATE  3.1 Energy             -77.478651801724
 Nuclear energy                        30.40227271
 Kinetic energy                        78.00226375
 One electron energy                 -163.37170910
 Two electron energy                   55.49078458
 Virial ratio                           1.99328722

 !MCSCF STATE  3.1 Dipole moment       -0.00064856    -0.00041530    -0.00127275
 Dipole moment /Debye                  -0.00164836    -0.00105553    -0.00323480

 State-averaged charge density matrix saved on record  2140.2 (density set 1)

 !MCSCF expec         <1.1|DMX|1.1>    -0.001131152145 au =    -0.002874913669 Debye
 !MCSCF trans         <2.1|DMX|1.1>     0.006040254017 au =     0.015351788804 Debye
 !MCSCF expec         <2.1|DMX|2.1>    -0.000713138020 au =    -0.001812497328 Debye
 !MCSCF trans         <3.1|DMX|1.1>    -0.000076249785 au =    -0.000193794930 Debye
 !MCSCF trans         <3.1|DMX|2.1>     0.006488405043 au =     0.016490800490 Debye
 !MCSCF expec         <3.1|DMX|3.1>    -0.000648555424 au =    -0.001648355495 Debye

 !MCSCF expec         <1.1|DMY|1.1>    -0.000579732438 au =    -0.001473436369 Debye
 !MCSCF trans         <2.1|DMY|1.1>    -0.000506087474 au =    -0.001286261801 Debye
 !MCSCF expec         <2.1|DMY|2.1>    -0.000512309741 au =    -0.001302076191 Debye
 !MCSCF trans         <3.1|DMY|1.1>    -0.000000915617 au =    -0.000002327115 Debye
 !MCSCF trans         <3.1|DMY|2.1>    -0.000542634943 au =    -0.001379150118 Debye
 !MCSCF expec         <3.1|DMY|3.1>    -0.000415303715 au =    -0.001055527615 Debye

 !MCSCF expec         <1.1|DMZ|1.1>     0.001593892672 au =     0.004051005738 Debye
 !MCSCF trans         <2.1|DMZ|1.1>    -0.004777637596 au =    -0.012142748160 Debye
 !MCSCF expec         <2.1|DMZ|2.1>     0.000020616576 au =     0.000052398677 Debye
 !MCSCF trans         <3.1|DMZ|1.1>     0.000148909399 au =     0.000378465149 Debye
 !MCSCF trans         <3.1|DMZ|2.1>    -0.005144254447 au =    -0.013074534218 Debye
 !MCSCF expec         <3.1|DMZ|3.1>    -0.001272752744 au =    -0.003234802919 Debye


 NATURAL ORBITALS (state averaged)
 =================================

  Orbital  Occupation    Energy     Coefficients
    1.1     2.00000   -11.26131     1 1s   -0.70385     2 1s   -0.70504
    2.1     2.00000   -11.26103     1 1s    0.70507     2 1s   -0.70388
    3.1     2.00000    -0.97743     1 1s    0.28033     1 1s    0.25415     2 1s    0.28057     2 1s    0.25428
    4.1     2.00000    -0.83963     1 1s    0.25500     1 1s    0.26330     2 1s   -0.25477     2 1s   -0.26288
    5.1     2.00000    -0.60501     2 2px   0.27007     2 2py   0.30555
    6.1     2.00000    -0.60491     1 2py   0.34703
    7.1     2.00000    -0.36750     1 2pz   0.33622     1 2pz   0.31307     2 2pz   0.33661     2 2pz   0.31318
    8.1     1.00000    -0.25519     1 2px  -0.28619     2 2px   0.28699
    9.1     1.00000    -0.08361     1 2pz   0.42525     1 2pz   0.43292     2 2pz  -0.42536     2 2pz  -0.43282
   10.1    -0.00000     0.22654     1 1s   -1.12418     1 2px   0.35077     1 2py  -0.49040     1 2pz   0.27930     2 1s   -1.12092
                                    2 2px  -0.34984     2 2py   0.49124     2 2pz  -0.27879     3 1s    1.10457     4 1s    0.55347
                                    5 1s    0.55073     6 1s    1.10333
   11.1    -0.00000     0.27937     1 1s    1.83476     1 2pz  -0.40532     2 1s   -1.83848     2 2pz  -0.40691     3 1s   -0.49650
                                    4 1s   -1.12875     5 1s    1.13073     6 1s    0.49984
   12.1    -0.00000     0.30031     1 1s    0.42056     1 2py   0.25703     1 2py   0.83309     2 1s   -0.42543     2 2py   0.25657
                                    2 2py   0.83044     3 1s   -1.40049     4 1s    0.44510     5 1s   -0.43874     6 1s    1.40055
   13.1    -0.00000     0.34509     1 1s   -1.22906     1 2px   0.73274     1 2py   1.02516     2 1s   -1.22987     2 2px  -0.73206
                                    2 2py  -1.02740     3 1s   -0.48364     4 1s    2.09057     5 1s    2.09245     6 1s   -0.48796
   14.1    -0.00000     0.38546     1 2px  -0.29171     1 2px  -1.54630     1 2py  -0.28825     1 2pz   0.40219     2 2px  -0.29175
                                    2 2px  -1.54745     2 2py  -0.28768     2 2pz   0.39938     4 1s   -1.62615     5 1s    1.62789
   15.1    -0.00000     0.67599     1 2px  -0.34748     1 2px   1.29752     1 2py   0.56628     2 2px  -0.34757     2 2px   1.29855
                                    2 2py   0.56767     4 1s    0.45111     4 1s    0.54261     5 1s   -0.45094     5 1s   -0.54388
   16.1    -0.00000     0.75800     1 1s    0.43491     1 2px   0.43551     1 2py  -0.42011     1 2px  -0.72428     1 2py   0.52210
                                    2 1s    0.43609     2 2px  -0.43620     2 2py   0.42027     2 2px   0.72629     2 2py  -0.52201
                                    3 1s   -0.33104     4 1s   -0.27783     5 1s   -0.27921     6 1s   -0.33129
   17.1    -0.00000     0.79703     1 1s    0.30124     1 2pz   0.76701     1 2px   0.25976     1 2pz  -0.76011     2 1s   -0.30148
                                    2 2pz   0.76779     2 2px   0.25902     2 2pz  -0.76166
   18.1    -0.00000     0.84074     1 1s    0.34321     1 2pz  -0.72805     1 2py  -0.33359     1 2pz   0.94359     2 1s    0.34387
                                    2 2pz   0.72683     2 2py   0.33419     2 2pz  -0.94217
   19.1    -0.00000     0.88081     1 1s    0.31261     1 1s   -0.51777     1 2px   0.51622     1 2py  -0.42211     1 2px  -0.72279
                                    1 2py   0.71295     2 1s   -0.31308     2 1s    0.52112     2 2px   0.51477     2 2py  -0.42328
                                    2 2px  -0.71798     2 2py   0.71732     3 1s   -0.38822     6 1s    0.38743
   20.1    -0.00000     0.94183     1 1s   -0.86230     1 2px  -0.41122     1 2py  -0.52777     1 2px   1.24110     1 2py   1.64959
                                    2 1s   -0.85994     2 2px   0.41299     2 2py   0.52520     2 2px  -1.24317     2 2py  -1.64534
                                    3 1s   -0.44349     4 1s    0.25839     4 1s    1.27044     5 1s    0.25762     5 1s    1.26952
                                    6 1s   -0.44075
   21.1    -0.00000     1.00903     1 1s    0.77740     1 1s   -1.31703     1 2px   0.32763     1 2pz   0.43379     2 1s    0.77696
                                    2 1s   -1.31774     2 2px  -0.32589     2 2pz  -0.43400     3 1s    0.50510     4 1s    0.34736
                                    4 1s    0.48617     5 1s    0.34747     5 1s    0.48956     6 1s    0.50303
   22.1    -0.00000     1.08260     1 1s    0.33588     1 1s   -0.56114     1 2py   0.53318     1 2px   0.42527     1 2py  -0.77266
                                    2 1s   -0.32592     2 1s    0.53904     2 2py   0.53260     2 2px   0.41639     2 2py  -0.77762
                                    3 1s   -0.70513     3 1s    1.35416     6 1s    0.70155     6 1s   -1.34633
   23.1    -0.00000     1.09722     1 1s   -0.86097     1 1s    1.82068     1 2py  -0.29479     1 2px  -0.57976     1 2pz  -0.26487
                                    2 1s   -0.86151     2 1s    1.82083     2 2py   0.29954     2 2px   0.58487     2 2pz   0.26553
                                    3 1s    0.59914     3 1s   -1.06495     4 1s   -0.59136     5 1s   -0.59174     6 1s    0.60557
                                    6 1s   -1.07611
   24.1    -0.00000     1.23204     1 1s    1.13438     1 1s   -3.08314     1 2px   0.32962     1 2py   0.30026     1 2px  -1.53220
                                    1 2py  -0.56813     1 2pz   0.74390     2 1s   -1.13919     2 1s    3.09356     2 2px   0.32872
                                    2 2py   0.29860     2 2px  -1.52887     2 2py  -0.56463     2 2pz   0.74450     3 1s    0.33895
                                    3 1s    0.46765     4 1s    0.34744     4 1s   -0.44933     5 1s   -0.34624     5 1s    0.44188
                                    6 1s   -0.33882     6 1s   -0.46937
   25.1    -0.00000     1.34573     1 1s   -0.96648     1 1s    1.62782     1 2px   0.38186     1 2py   0.36100     1 2px  -0.48822
                                    1 2py  -0.37526     2 1s   -0.75702     2 1s    1.17094     2 2px  -0.29831     2 2py  -0.30669
                                    2 2px   0.42863     2 2py   0.30599     4 1s    0.77420     4 1s   -1.42444     5 1s    0.66516
                                    5 1s   -1.14258
   26.1    -0.00000     1.34802     1 1s    0.97648     1 1s   -2.16738     1 2px  -0.40307     1 2px   0.29061     1 2py   0.32983
                                    2 1s   -1.14498     2 1s    2.44231     2 2px  -0.46970     2 2py  -0.31379     2 2px   0.38099
                                    2 2py   0.39559     2 2pz   0.26978     4 1s   -0.49578     4 1s    1.33552     5 1s    0.63556
                                    5 1s   -1.58662
   27.1    -0.00000     1.71778     1 3d0   0.31318     1 3d2-  0.33471     1 3d1+ -0.42400     2 3d0  -0.31214     2 3d2- -0.33608
                                    2 3d1+  0.42422
   28.1    -0.00000     1.93274     1 3d2+  0.31694     1 3d1- -0.53954     2 3d2+ -0.31927     2 3d1-  0.54168
   29.1    -0.00000     1.96119     1 1s   -0.33732     1 2px  -0.28991     1 2px   0.35261     1 3d1+ -0.37248     1 3d2+  0.44195
                                    2 1s   -0.33719     2 2px   0.28953     2 2px  -0.35240     2 3d1+ -0.37458     2 3d2+  0.43925
   30.1    -0.00000     2.02745     1 1s   -0.60080     1 2px   0.26159     1 3d0   0.41194     1 3d1+  0.32509     1 3d2+  0.31712
                                    1 3d1- -0.35136     2 1s   -0.60554     2 2px  -0.26013     2 3d0   0.41287     2 3d1+  0.32406
                                    2 3d2+  0.31663     2 3d1- -0.35278     4 1s    0.36032     5 1s    0.36058
   31.1    -0.00000     2.28247     1 2py  -0.36785     1 3d0   0.45009     1 3d2-  0.25312     1 3d1+ -0.28940     1 3d1-  0.42151
                                    2 2py   0.36628     2 3d0   0.44424     2 3d2-  0.25391     2 3d1+ -0.28955     2 3d1-  0.41819
                                    3 1s    0.37590     6 1s    0.37117
   32.1    -0.00000     2.32829     1 1s   -0.29104     1 1s    1.09909     1 2px   0.28253     1 2pz  -0.26693     1 3d0  -0.58438
                                    1 3d2+ -0.30319     1 3d1- -0.27199     2 1s    0.29145     2 1s   -1.09898     2 2px   0.28465
                                    2 2pz  -0.26690     2 3d0   0.58871     2 3d2+  0.30623     2 3d1-  0.27705     3 1s   -0.45706
                                    4 1s   -0.34453     5 1s    0.34302     6 1s    0.46289
   33.1    -0.00000     2.38385     1 2py  -0.44485     1 3d2- -0.34296     1 3d1+  0.35501     1 3d2+  0.35708     1 3d1-  0.44056
                                    2 2py   0.44195     2 3d2- -0.34781     2 3d1+  0.35345     2 3d2+  0.35552     2 3d1-  0.43638
                                    3 1s    0.37340     6 1s    0.36993
   34.1    -0.00000     2.54938     1 1s    0.27729     1 1s   -0.63037     1 2px  -0.65683     1 2py  -0.28208     1 3d2-  0.66136
                                    1 3d1+  0.28429     1 3d1-  0.33563     2 1s   -0.27815     2 1s    0.63183     2 2px  -0.65692
                                    2 2py  -0.28421     2 3d2- -0.65669     2 3d1+ -0.28768     2 3d1- -0.33942     3 1s    0.27590
                                    4 1s   -0.72892     5 1s    0.72811     6 1s   -0.27802
   35.1    -0.00000     2.81399     1 1s    0.25760     1 1s   -1.42091     1 2px  -0.83818     1 2pz   0.36911     1 3d0   0.29130
                                    1 3d1+  0.54115     1 3d2+ -0.67317     2 1s   -0.25594     2 1s    1.42803     2 2px  -0.83238
                                    2 2pz   0.36924     2 3d0  -0.29806     2 3d1+ -0.53645     2 3d2+  0.67788
   36.1    -0.00000     2.82487     1 1s    0.39646     1 2px  -0.30002     1 2py  -0.25320     1 3d0  -0.38443     1 3d2-  0.70853
                                    2 1s    0.37154     2 2px   0.31576     2 2py   0.25269     2 3d0  -0.37901     2 3d2-  0.70925
                                    4 1s   -0.81400     5 1s   -0.81277


 Natural orbital dump (state averaged) at molpro section  2140.2    (Orbital set 2)



 **********************************************************************************************************************************
 DATASETS  * FILE   NREC   LENGTH (MB)   RECORD NAMES
              1      20       31.83       500      610      700      900      950      970     1000      129      960     1100   
                                          VAR    BASINP    GEOM    SYMINP    ZMAT    AOBASIS   BASIS     P2S    ABASIS      S 
                                         1400     1410     1200     1210     1080     1600     1650     1300     1700     1380   
                                           T        V       H0       H01     AOSYM     SMH    MOLCAS    ERIS     OPER     JKOP   

              2       5        5.42       700     1000      520     2100     2140   
                                         GEOM     BASIS   MCVARS     RHF     MCSCF   

 PROGRAMS   *        TOTAL     MULTI    HF-SCF       INT
 CPU TIMES  *         1.59      1.22      0.09      0.18
 REAL TIME  *         1.85 SEC
 DISK USED  *        39.02 MB
 **********************************************************************************************************************************
 Molecular orbitals read from record     2140.2  Type=MCSCF/NATURAL (state averaged)
 Occupation numbers read from record     2140.2  Type=MCSCF/NATURAL (state averaged)
 Orbital energies read from record       2140.2  Type=MCSCF/NATURAL (state averaged)
 Redundancy group numbers read from rec  2140.2  Type=MCSCF/NATURAL (state averaged)

 MULTI/6-31G* energy=    -77.478651801724

           MULTI          HF-SCF
    -77.47865180    -77.83237856
 **********************************************************************************************************************************
 Molpro calculation terminated
