
 Primary working directories    : /scratch.local/johan406.molpro_temp/molpro.pbBdWQPWmJ
 Secondary working directories  : /scratch.local/johan406.molpro_temp/molpro.pbBdWQPWmJ
 Wavefunction directory         : /home/goodpast/johan406/wfu/
 Main file repository           : /scratch.local/johan406.molpro_temp/molpro.pbBdWQPWmJ/

 id        : roweumn

 Nodes     nprocs
 acn06        1

 Using customized tuning parameters: mindgm=1; mindgv=20; mindgc=4; mindgr=1; noblas=0; minvec=7
 default implementation of scratch files=df  


 Variables initialized (934), CPU time= 0.00 sec
                                                                                 !leave this line blank
 
 gprint, orbitals=30
 memory, 125., m
 symmetry, nosym
 nelect=16
 basis=6-31g*
 
 geometry={
 C -0.759 0.034 0.301
 C 0.768 -0.084 -0.361
 H -0.908 1.137 -0.107
 H -1.505 -0.550 0.185
 H 1.514 0.500 -0.243
 H 0.916 -1.188 0.046
 }
 
 hf
 {multi,
 closed 7
 occ 9
 wf,spin=0;STATE,3
 }
 
 Commands  initialized (763), CPU time= 0.01 sec, 617 directives.
 Default parameters read. Elapsed time= 0.06 sec

 Checking input...
 Passed
1


                                         ***  PROGRAM SYSTEM MOLPRO  ***
                                       Copyright, TTI GmbH Stuttgart, 2015
                                    Version 2019.2 linked Oct 25 2019 22:50:27


 **********************************************************************************************************************************
 LABEL *                                                                                 
  64 bit serial version                                                                  DATE: 15-Mar-23          TIME: 16:46:03  
 **********************************************************************************************************************************

 SHA1:             8dbd9ae1082e4ce945b0f27595c9eb2d4aa09004
 **********************************************************************************************************************************


 Variable memory set to  125000000 words,  buffer space 

 SETTING NELECT         =        16.00000000                                  
 SETTING BASIS          =    6-31G*
 ZSYMEL=NOSYM


Geometry recognized as XYZ



 Recomputing integrals since basis changed


 Using spherical harmonics

 Library entry C      S 6-31G                selected for orbital group  1
 Library entry C      P 6-31G                selected for orbital group  1
 Library entry C      D 6-31G*               selected for orbital group  1
 Library entry H      S 6-31G                selected for orbital group  2


 PROGRAM * SEWARD (Integral evaluation for generally contracted gaussian basis sets)     Author: Roland Lindh, 1990

 Geometry written to block  1 of record 700


 Point group  C1  



 ATOMIC COORDINATES

 NR  ATOM    CHARGE       X              Y              Z

   1  C       6.00   -1.434302129    0.064250688    0.568807563
   2  C       6.00    1.451309664   -0.158736994   -0.682191131
   3  H       1.00   -1.715871321    2.148618604   -0.202200695
   4  H       1.00   -2.844037817   -1.039349369    0.349599333
   5  H       1.00    2.861045353    0.944863062   -0.459203448
   6  H       1.00    1.730989130   -2.244994636    0.086927402

 Bond lengths in Bohr (Angstrom)

 1-2  3.153010729  1-3  2.240161725  1-4  1.803701762  2-5  1.804164988  2-6  2.241034330
     ( 1.668501423)     ( 1.185442533)     ( 0.954477868)     ( 0.954722996)     ( 1.185904296)

 Bond angles

  1-2-5  128.52184101   1-2-6   92.51521847   2-1-3   92.53785886   2-1-4  128.59447576

  3-1-4  115.41900747   5-2-6  115.43682833

 NUCLEAR CHARGE:                   16
 NUMBER OF PRIMITIVE AOS:          72
 NUMBER OF SYMMETRY AOS:           70
 NUMBER OF CONTRACTIONS:           36   (   36A   )
 NUMBER OF CORE ORBITALS:           2   (    2A   )
 NUMBER OF VALENCE ORBITALS:       12   (   12A   )


 NUCLEAR REPULSION ENERGY   30.47803299

 Eigenvalues of metric

         1 0.163E-01 0.209E-01 0.406E-01 0.680E-01 0.830E-01 0.205E+00 0.249E+00 0.264E+00


 Contracted 2-electron integrals neglected if value below      1.0D-11
 AO integral compression algorithm  1   Integral accuracy      1.0D-11

     1.311 MB (compressed) written to integral file ( 67.5%)


 NUMBER OF SORTED TWO-ELECTRON INTEGRALS:     222111.     BUFFER LENGTH:  32768
 NUMBER OF SEGMENTS:   1  SEGMENT LENGTH:     222111      RECORD LENGTH: 524288

 Memory used in sort:       0.78 MW

 SORT1 READ      284735. AND WROTE      212512. INTEGRALS IN      1 RECORDS. CPU TIME:     0.00 SEC, REAL TIME:     0.01 SEC
 SORT2 READ      212512. AND WROTE      222111. INTEGRALS IN      5 RECORDS. CPU TIME:     0.02 SEC, REAL TIME:     0.02 SEC

 FILE SIZES:   FILE 1:    31.4 MBYTE,  FILE 4:     4.2 MBYTE,   TOTAL:     35.6 MBYTE

 OPERATOR DM      FOR CENTER  0  COORDINATES:    0.000000    0.000000    0.000000


 **********************************************************************************************************************************
 DATASETS  * FILE   NREC   LENGTH (MB)   RECORD NAMES
              1      19       31.10       500      610      700      900      950      970     1000      129      960     1100   
                                          VAR    BASINP    GEOM    SYMINP    ZMAT    AOBASIS   BASIS     P2S    ABASIS      S 
                                         1400     1410     1200     1210     1080     1600     1650     1300     1700   
                                           T        V       H0       H01     AOSYM     SMH    MOLCAS    ERIS     OPER   

 PROGRAMS   *        TOTAL       INT
 CPU TIMES  *         0.26      0.17
 REAL TIME  *         0.42 SEC
 DISK USED  *        35.97 MB
 **********************************************************************************************************************************


 PROGRAM * RHF-SCF (CLOSED SHELL)       Authors: W. Meyer, H.-J. Werner


 NUMBER OF ELECTRONS:       8+    8-    SPACE SYMMETRY=1    SPIN SYMMETRY: Singlet 
 CONVERGENCE THRESHOLDS:    1.00E-05 (Density)    1.00E-07 (Energy)
 MAX. NUMBER OF ITERATIONS:       60
 INTERPOLATION TYPE:            DIIS
 INTERPOLATION STEPS:              2 (START)      1 (STEP)
 LEVEL SHIFTS:                  0.00 (CLOSED)  0.00 (OPEN) 



 Orbital guess generated from atomic densities. Full valence occupancy:    8

 Molecular orbital dump at record        2100.2

 Initial occupancy:   8

 ITERATION    DDIFF          GRAD             ENERGY        2-EL.EN.            DIPOLE MOMENTS         DIIS   ORB.
    1      0.000D+00      0.000D+00       -77.81731172    111.728187   -0.00000   -0.00029   -0.00001    0    start
    2      0.000D+00      0.684D-02       -77.83757047    111.140705   -0.00100   -0.00009    0.00090    1    diag
    3      0.752D-02      0.228D-02       -77.84084570    111.408373   -0.00029    0.00007    0.00024    2    diag
    4      0.353D-02      0.885D-03       -77.84160779    111.304291   -0.00128   -0.00000    0.00108    3    diag
    5      0.170D-02      0.488D-03       -77.84207590    111.319053    0.00005    0.00025   -0.00013    4    diag
    6      0.187D-02      0.171D-03       -77.84214158    111.319324   -0.00327   -0.00022    0.00279    5    diag
    7      0.730D-03      0.579D-04       -77.84214447    111.319684    0.00005    0.00026   -0.00014    6    diag
    8      0.104D-03      0.290D-04       -77.84214534    111.320198   -0.00111    0.00009    0.00088    7    diag
    9      0.666D-04      0.708D-05       -77.84214541    111.320274   -0.00102    0.00011    0.00080    8    diag
   10      0.199D-04      0.173D-05       -77.84214541    111.320239   -0.00103    0.00010    0.00081    9    orth
   11      0.448D-05      0.299D-06       -77.84214541    111.320240   -0.00102    0.00010    0.00081    0    orth

 Final occupancy:   8

 !RHF STATE  1.1 Energy               -77.842145412135
 Nuclear energy                        30.47803299
 One-electron energy                 -163.98029832
 Two-electron energy                   55.66011992
 Virial quotient                       -1.00172314
 !RHF STATE  1.1 Dipole moment         -0.00102481     0.00010450     0.00080583
 Dipole moment /Debye                  -0.00260464     0.00026560     0.00204809

 ELECTRON ORBITALS
 =================

  Orbital  Occupation    Energy     Coefficients
    1.1     2.00000   -11.27151     1 1s    0.72840     2 1s    0.67970
    2.1     2.00000   -11.27111     1 1s   -0.67977     2 1s    0.72846
    3.1     2.00000    -0.97612     1 1s    0.28608     1 1s    0.25710     2 1s    0.28571     2 1s    0.25685
    4.1     2.00000    -0.84671     1 1s   -0.25459     2 1s    0.25493
    5.1     2.00000    -0.60265     1 2py   0.32253     2 2py   0.27977
    6.1     2.00000    -0.60208     1 2px  -0.29876     2 2px   0.30777
    7.1     2.00000    -0.42386     1 2py  -0.26205     2 2py   0.26226
    8.1     2.00000    -0.33600     1 2pz   0.31131     1 2pz   0.31331     2 2pz   0.31159     2 2pz   0.31352
    9.1     0.00000     0.07493     1 1s    0.28446     1 2pz   0.35298     1 2pz   0.50096     2 1s    0.28519     2 2pz  -0.35282
                                    2 2pz  -0.50057
   10.1     0.00000     0.24089     1 1s   -1.18293     1 2px   0.39577     1 2py  -0.43801     1 2pz   0.32686     2 1s   -1.18261
                                    2 2px  -0.39488     2 2py   0.43954     2 2pz  -0.32705     3 1s    1.09379     4 1s    0.66591
                                    5 1s    0.66448     6 1s    1.09504
   11.1     0.00000     0.28461     1 1s    1.59171     1 2py  -0.46502     1 2pz  -0.35362     2 1s   -1.59160     2 2py  -0.46361
                                    2 2pz  -0.35566     4 1s   -1.23039     5 1s    1.22980
   12.1     0.00000     0.30974     1 1s   -1.06681     1 2py  -0.65361     1 2pz   0.26497     2 1s    1.06603     2 2py  -0.65127
                                    2 2pz   0.26390     3 1s    1.45618     6 1s   -1.45280
   13.1     0.00000     0.34302     1 1s   -1.12921     1 2px   0.70191     1 2py   1.06748     2 1s   -1.12903     2 2px  -0.70214
                                    2 2py  -1.06897     3 1s   -0.56384     4 1s    2.04102     5 1s    2.04205     6 1s   -0.56613
   14.1     0.00000     0.38428     1 1s    0.25679     1 2px   0.28268     1 2px   1.54434     1 2py   0.36509     1 2pz  -0.45750
                                    2 1s   -0.25896     2 2px   0.28257     2 2px   1.54358     2 2py   0.36339     2 2pz  -0.45581
                                    3 1s   -0.30794     4 1s    1.58456     5 1s   -1.58081     6 1s    0.30683
   15.1     0.00000     0.67574     1 2px  -0.33938     1 2px   1.26384     1 2py   0.56335     2 2px  -0.33969     2 2px   1.26350
                                    2 2py   0.56250     4 1s    0.45043     4 1s    0.53915     5 1s   -0.45023     5 1s   -0.53780
   16.1     0.00000     0.75960     1 1s   -0.46411     1 2px  -0.45860     1 2py   0.43081     1 2px   0.75642     1 2py  -0.53834
                                    2 1s   -0.46357     2 2px   0.45820     2 2py  -0.43072     2 2px  -0.75468     2 2py   0.53788
                                    3 1s    0.28702     4 1s    0.28440     5 1s    0.28331     6 1s    0.28661
   17.1     0.00000     0.80412     1 2pz   0.77491     1 2pz  -0.70869     2 2pz   0.77375     2 2pz  -0.70761
   18.1     0.00000     0.84556     1 1s    0.25497     1 1s   -0.48572     1 2pz   0.75394     1 2py   0.41028     1 2pz  -0.86667
                                    2 1s    0.25490     2 1s   -0.48451     2 2pz  -0.75515     2 2py  -0.40951     2 2pz   0.86720
                                    4 1s    0.26976     5 1s    0.26843
   19.1     0.00000     0.87676     1 1s    0.27919     1 1s   -0.49353     1 2px   0.53353     1 2py  -0.43897     1 2px  -0.85366
                                    1 2py   0.74147     2 1s   -0.27965     2 1s    0.49172     2 2px   0.53531     2 2py  -0.43809
                                    2 2px  -0.85732     2 2py   0.73751     3 1s   -0.33257     3 1s   -0.32035     6 1s    0.33245
                                    6 1s    0.31904
   20.1     0.00000     0.93114     1 1s    0.84871     1 2px   0.42032     1 2py   0.50713     1 2px  -1.22872     1 2py  -1.62362
                                    1 2pz  -0.26460     2 1s    0.85121     2 2px  -0.41884     2 2py  -0.50839     2 2px   1.22301
                                    2 2py   1.62557     2 2pz   0.26766     3 1s    0.37749     4 1s   -0.25817     4 1s   -1.22767
                                    5 1s   -0.25815     5 1s   -1.22504     6 1s    0.37843
   21.1     0.00000     1.02783     1 1s    0.86089     1 1s   -1.54978     1 2px   0.28166     1 2px   0.30083     1 2pz   0.50269
                                    2 1s    0.85938     2 1s   -1.54589     2 2px  -0.28130     2 2px  -0.30182     2 2pz  -0.50244
                                    3 1s    0.45397     4 1s    0.37685     4 1s    0.60448     5 1s    0.37729     5 1s    0.60430
                                    6 1s    0.45289
   22.1     0.00000     1.11190     1 1s    0.36281     1 1s   -0.63425     1 2py   0.50828     1 2px   0.29324     1 2py  -0.75990
                                    2 1s   -0.39780     2 1s    0.70555     2 2py   0.52308     2 2px   0.31350     2 2py  -0.76483
                                    3 1s   -0.69472     3 1s    1.32530     6 1s    0.72515     6 1s   -1.37567
   23.1     0.00000     1.11803     1 1s   -0.78652     1 1s    1.61463     1 2py  -0.33407     1 2px  -0.47688     2 1s   -0.76857
                                    2 1s    1.58255     2 2py   0.31001     2 2px   0.46281     3 1s    0.67092     3 1s   -1.13508
                                    4 1s   -0.44336     5 1s   -0.44522     6 1s    0.63877     6 1s   -1.07238
   24.1     0.00000     1.24575     1 1s    1.11309     1 1s   -3.08794     1 2px   0.33163     1 2py   0.28704     1 2px  -1.50905
                                    1 2py  -0.52429     1 2pz   0.74070     2 1s   -1.11462     2 1s    3.09054     2 2px   0.33191
                                    2 2py   0.28719     2 2px  -1.50865     2 2py  -0.52352     2 2pz   0.74035     3 1s    0.35961
                                    3 1s    0.42772     4 1s    0.36532     4 1s   -0.43132     5 1s   -0.36610     5 1s    0.42998
                                    6 1s   -0.35977     6 1s   -0.42783
   25.1     0.00000     1.33867     1 1s    0.72269     1 1s   -1.76079     1 2px  -0.27703     2 1s   -1.32286     2 1s    2.74439
                                    2 2px  -0.52261     2 2py  -0.38803     2 2px   0.45357     2 2py   0.46602     2 2pz   0.32532
                                    4 1s   -0.27203     4 1s    0.92570     5 1s    0.78353     5 1s   -1.83690
   26.1     0.00000     1.33906     1 1s   -1.18187     1 1s    2.15441     1 2px   0.47739     1 2py   0.41955     1 2px  -0.54592
                                    1 2py  -0.45522     2 1s   -0.41261     2 1s    0.46036     2 2px   0.32806     4 1s    0.87896
                                    4 1s   -1.73104     5 1s    0.48185     5 1s   -0.69219
   27.1     0.00000     1.72321     1 3d0  -0.29864     1 3d2- -0.33376     1 3d1+  0.42924     2 3d0   0.29778     2 3d2-  0.33465
                                    2 3d1+ -0.42917
   28.1     0.00000     1.93010     1 3d2+  0.31719     1 3d1- -0.54173     2 3d2+ -0.31765     2 3d1-  0.54260
   29.1     0.00000     1.97617     1 1s   -0.37775     1 2px  -0.28331     1 2px   0.31911     1 3d1+ -0.40900     1 3d2+  0.38891
                                    2 1s   -0.37754     2 2px   0.28307     2 2px  -0.31808     2 3d1+ -0.41030     2 3d2+  0.38681
   30.1     0.00000     2.03148     1 1s   -0.59914     1 2px   0.31338     1 2py   0.27410     1 3d0   0.38545     1 3d1+  0.27339
                                    1 3d2+  0.37179     1 3d1- -0.37771     2 1s   -0.60270     2 2px  -0.31106     2 2py  -0.27300
                                    2 3d0   0.38553     2 3d1+  0.27316     2 3d2+  0.37194     2 3d1- -0.38027     4 1s    0.38878
                                    5 1s    0.38826
   31.1     0.00000     2.30096     1 2py  -0.37252     1 3d0   0.44607     1 3d1+ -0.29418     1 3d1-  0.42524     2 2py   0.37328
                                    2 3d0   0.44793     2 3d1+ -0.29302     2 3d1-  0.42571     3 1s    0.40161     6 1s    0.40266
   32.1     0.00000     2.33455     1 1s    0.30306     1 1s   -1.17823     1 2px  -0.29428     1 2pz   0.28173     1 3d0   0.60729
                                    1 3d2+  0.28050     2 1s   -0.30338     2 1s    1.17853     2 2px  -0.29400     2 2pz   0.28318
                                    2 3d0  -0.60504     2 3d2+ -0.28318     3 1s    0.45935     4 1s    0.36665     5 1s   -0.36656
                                    6 1s   -0.46095
   33.1     0.00000     2.38833     1 2py  -0.43180     1 3d2- -0.35802     1 3d1+  0.35436     1 3d2+  0.35406     1 3d1-  0.42588
                                    2 2py   0.42953     2 3d2- -0.35985     2 3d1+  0.35325     2 3d2+  0.35206     2 3d1-  0.42193
                                    3 1s    0.35934     6 1s    0.35448
   34.1     0.00000     2.56622     1 1s    0.26174     1 1s   -0.60985     1 2px  -0.61921     1 2py  -0.26936     1 3d2-  0.66061
                                    1 3d1+  0.27919     1 3d1-  0.34766     2 1s   -0.26210     2 1s    0.60967     2 2px  -0.62011
                                    2 2py  -0.27091     2 3d2- -0.65901     2 3d1+ -0.28225     2 3d1- -0.34965     3 1s    0.29714
                                    4 1s   -0.71674     5 1s    0.71727     6 1s   -0.29731
   35.1     0.00000     2.82671     1 1s   -0.25057     1 1s    1.31451     1 2px   0.86549     1 2pz  -0.35335     1 3d1+ -0.57259
                                    1 3d2+  0.63353     2 1s   -1.44617     2 2px   0.75871     2 2pz  -0.35954     2 3d0   0.33500
                                    2 3d1+  0.49154     2 3d2+ -0.71620     5 1s    0.32005
   36.1     0.00000     2.82889     1 1s    0.61279     1 2py  -0.26259     1 3d0  -0.41154     1 3d2-  0.70511     1 3d2+  0.35231
                                    2 2px   0.44301     2 2py   0.25036     2 3d0  -0.31483     2 3d2-  0.69977     2 3d1+  0.32204
                                    4 1s   -0.82564     5 1s   -0.76088


 HOMO      8.1    -0.336004 =      -9.1431eV
 LUMO      9.1     0.074932 =       2.0390eV
 LUMO-HOMO         0.410935 =      11.1821eV


 **********************************************************************************************************************************
 DATASETS  * FILE   NREC   LENGTH (MB)   RECORD NAMES
              1      19       31.10       500      610      700      900      950      970     1000      129      960     1100   
                                          VAR    BASINP    GEOM    SYMINP    ZMAT    AOBASIS   BASIS     P2S    ABASIS      S 
                                         1400     1410     1200     1210     1080     1600     1650     1300     1700   
                                           T        V       H0       H01     AOSYM     SMH    MOLCAS    ERIS     OPER   

              2       4        2.86       700     1000      520     2100   
                                         GEOM     BASIS   MCVARS     RHF  

 PROGRAMS   *        TOTAL    HF-SCF       INT
 CPU TIMES  *         0.35      0.09      0.17
 REAL TIME  *         0.61 SEC
 DISK USED  *        35.97 MB
 **********************************************************************************************************************************


 PROGRAM * MULTI (Direct Multiconfiguration SCF)       Authors: P.J. Knowles, H.-J. Werner (1984)


 Number of closed-shell orbitals:   7 (   7 )
 Number of active  orbitals:        2 (   2 )
 Number of external orbitals:      27 (  27 )

 State symmetry 1

 Number of electrons:     2    Spin symmetry=Singlet   Space symmetry=1
 Number of states:        3
 Number of CSFs:          3   (4 determinants, 4 intermediate states)

 Molecular orbitals read from record     2100.2  Type=RHF/CANONICAL (state 1.1)

 Wavefunction dump at record             2140.2

 Convergence thresholds  0.10E-01 (gradient)  0.10E-05 (energy)  0.10E-02 (step length)

 Weight factors for state symmetry  1:    0.33333   0.33333   0.33333

 Number of orbital rotations:      257   (    14 Core/Active    189 Core/Virtual   0 Active/Active     54 Active/Virtual)
 Total number of variables:        269

 Micro-Iterations solved by the two-step solver

 ITER. MIC  NCI  NEG     ENERGY(VAR)     ENERGY(PROJ)   ENERGY CHANGE     GRAD(0)  GRAD(ORB)   GRAD(CI)     STEP       TIME

   1   12    6    1     -77.64300407     -77.65311078   -0.01010671    0.09371752 0.00060231 0.00000000  0.24D+00      0.35
   2   12    6    0     -77.65833854     -77.66448522   -0.00614668    0.07756318 0.00049646 0.00000000  0.13D+00      0.52
   3   14    6    0     -77.66513218     -77.66591076   -0.00077859    0.01685548 0.00000286 0.00000000  0.91D-01      0.71
   4   18    7    0     -77.66600112     -77.66618601   -0.00018489    0.00708671 0.00000163 0.00000000  0.62D-01      0.94
   5   17    6    0     -77.66620595     -77.66625291   -0.00004696    0.00333700 0.00000170 0.00000000  0.41D-01      1.11
   6   18    6    0     -77.66625681     -77.66626425   -0.00000743    0.00139667 0.00000453 0.00000000  0.19D-01      1.29
   7   14    6    0     -77.66626451     -77.66626468   -0.00000017    0.00026789 0.00000010 0.00000000  0.20D-02      1.41
   8   11    4    0     -77.66626468     -77.66626468   -0.00000000    0.00000181 0.00000000 0.00000000  0.12D-04      1.51

 ** WVFN ****  CONVERGENCE REACHED, FINAL GRADIENT:  0.47D-10



 Results for state 1.1
 =====================

 !MCSCF STATE  1.1 Energy             -77.834889566531
 Nuclear energy                        30.47803299
 Kinetic energy                        77.74335106
 One electron energy                 -164.04077195
 Two electron energy                   55.72784939
 Virial ratio                           2.00117744

 !MCSCF STATE  1.1 Dipole moment       -0.00190616    -0.00083289     0.00438378
 Dipole moment /Debye                  -0.00484466    -0.00211686     0.01114173

 Results for state 2.1
 =====================

 !MCSCF STATE  2.1 Energy             -77.690921910210
 Nuclear energy                        30.47803299
 Kinetic energy                        77.88013515
 One electron energy                 -163.77913875
 Two electron energy                   55.61018385
 Virial ratio                           1.99757046

 !MCSCF STATE  2.1 Dipole moment        0.00023810    -0.00158956    -0.00380248
 Dipole moment /Debye                   0.00060515    -0.00404000    -0.00966431

 Results for state 3.1
 =====================

 !MCSCF STATE  3.1 Energy             -77.472982569098
 Nuclear energy                        30.47803299
 Kinetic energy                        78.01841308
 One electron energy                 -163.51021967
 Two electron energy                   55.55920412
 Virial ratio                           1.99300895

 !MCSCF STATE  3.1 Dipole moment        0.00061958    -0.00205547    -0.01065230
 Dipole moment /Debye                   0.00157472    -0.00522415    -0.02707367

 State-averaged charge density matrix saved on record  2140.2 (density set 1)

 !MCSCF expec         <1.1|DMX|1.1>    -0.001906161387 au =    -0.004844661659 Debye
 !MCSCF trans         <2.1|DMX|1.1>     0.033544312047 au =     0.085255552613 Debye
 !MCSCF expec         <2.1|DMX|2.1>     0.000238098055 au =     0.000605145254 Debye
 !MCSCF trans         <3.1|DMX|1.1>    -0.000380791081 au =    -0.000967810995 Debye
 !MCSCF trans         <3.1|DMX|2.1>     0.035926383764 au =     0.091309778446 Debye
 !MCSCF expec         <3.1|DMX|3.1>     0.000619583630 au =     0.001574721362 Debye

 !MCSCF expec         <1.1|DMY|1.1>    -0.000832891105 au =    -0.002116859375 Debye
 !MCSCF trans         <2.1|DMY|1.1>    -0.005531179677 au =    -0.014057935642 Debye
 !MCSCF expec         <2.1|DMY|2.1>    -0.001589561763 au =    -0.004039998385 Debye
 !MCSCF trans         <3.1|DMY|1.1>     0.000090351192 au =     0.000229634784 Debye
 !MCSCF trans         <3.1|DMY|2.1>    -0.005927501249 au =    -0.015065218625 Debye
 !MCSCF expec         <3.1|DMY|3.1>    -0.002055472865 au =    -0.005224148724 Debye

 !MCSCF expec         <1.1|DMZ|1.1>     0.004383781355 au =     0.011141731016 Debye
 !MCSCF trans         <2.1|DMZ|1.1>    -0.025402818337 au =    -0.064563295030 Debye
 !MCSCF expec         <2.1|DMZ|2.1>    -0.003802479558 au =    -0.009664305994 Debye
 !MCSCF trans         <3.1|DMZ|1.1>     0.000737074917 au =     0.001873334868 Debye
 !MCSCF trans         <3.1|DMZ|2.1>    -0.027264333240 au =    -0.069294484076 Debye
 !MCSCF expec         <3.1|DMZ|3.1>    -0.010652297530 au =    -0.027073666357 Debye


 NATURAL ORBITALS (state averaged)
 =================================

  Orbital  Occupation    Energy     Coefficients
    1.1     2.00000   -11.26044     2 1s    0.97827
    2.1     2.00000   -11.25967     1 1s   -0.97828
    3.1     2.00000    -0.97885     1 1s    0.28089     1 1s    0.25434     2 1s    0.28076     2 1s    0.25406
    4.1     2.00000    -0.83937     1 1s   -0.25432     1 1s   -0.26381     2 1s    0.25462     2 1s    0.26371
    5.1     2.00000    -0.60560     1 2py   0.28683     2 2py   0.29672
    6.1     2.00000    -0.60102     1 2px  -0.26633     2 2px   0.26368
    7.1     2.00000    -0.36887     1 2pz   0.33635     1 2pz   0.31317     2 2pz   0.33723     2 2pz   0.31276
    8.1     1.00000    -0.08328     1 2pz   0.42483     1 2pz   0.43389     2 2pz  -0.42633     2 2pz  -0.43435
    9.1     1.00000    -0.26254     1 2px  -0.28552     2 2px   0.29079
   10.1    -0.00000     0.22976     1 1s   -1.15475     1 2px   0.37705     1 2py  -0.48519     1 2pz   0.28670     2 1s   -1.15445
                                    2 2px  -0.37664     2 2py   0.48866     2 2pz  -0.28753     3 1s    1.11508     4 1s    0.58536
                                    5 1s    0.58256     6 1s    1.11929
   11.1    -0.00000     0.28227     1 1s    1.90586     1 2pz  -0.43042     2 1s   -1.90705     2 2pz  -0.42923     3 1s   -0.66149
                                    4 1s   -1.09884     5 1s    1.10115     6 1s    0.66053
   12.1    -0.00000     0.30026     1 2py  -0.25822     1 2py  -0.84698     2 2py  -0.25819     2 2py  -0.84787     3 1s    1.33582
                                    4 1s   -0.59306     5 1s    0.60278     6 1s   -1.33257
   13.1    -0.00000     0.34543     1 1s   -1.19870     1 2px   0.71694     1 2py   1.04731     2 1s   -1.19806     2 2px  -0.72119
                                    2 2py  -1.04482     3 1s   -0.51241     4 1s    2.07450     5 1s    2.07486     6 1s   -0.50826
   14.1    -0.00000     0.38814     1 2px   0.29410     1 2px   1.55971     1 2py   0.26131     1 2pz  -0.40442     2 2px   0.29327
                                    2 2px   1.55780     2 2py   0.25846     2 2pz  -0.39903     4 1s    1.58724     5 1s   -1.57953
   15.1    -0.00000     0.67735     1 2px  -0.33667     1 2px   1.25841     1 2py   0.56808     2 2px  -0.33862     2 2py  -0.25012
                                    2 2px   1.26047     2 2py   0.56949     4 1s    0.45036     4 1s    0.52243     5 1s   -0.45057
                                    5 1s   -0.52226
   16.1    -0.00000     0.75732     1 1s   -0.44362     1 2px  -0.44860     1 2py   0.40547     1 2px   0.74757     1 2py  -0.50401
                                    2 1s   -0.43728     2 2px   0.44992     2 2py  -0.40762     2 2px  -0.74923     2 2py   0.50722
                                    3 1s    0.32091     4 1s    0.28670     5 1s    0.28398     6 1s    0.32147
   17.1    -0.00000     0.79754     1 1s    0.30481     1 2pz   0.76325     1 2pz  -0.75119     2 1s   -0.30214     2 2pz   0.77121
                                    2 2pz  -0.76488
   18.1    -0.00000     0.84107     1 1s   -0.33454     1 2pz   0.73059     1 2py   0.35679     1 2pz  -0.94880     2 1s   -0.33898
                                    2 2pz  -0.71991     2 2py  -0.35234     2 2pz   0.93785
   19.1    -0.00000     0.87679     1 1s    0.29742     1 1s   -0.49513     1 2px   0.52605     1 2py  -0.40695     1 2px  -0.77223
                                    1 2py   0.67885     2 1s   -0.30137     2 1s    0.50227     2 2px   0.52614     2 2py  -0.40610
                                    2 2px  -0.76989     2 2py   0.67804     3 1s   -0.39661     6 1s    0.39527
   20.1    -0.00000     0.93325     1 1s    0.78379     1 2px   0.41696     1 2py   0.51835     1 2px  -1.20418     1 2py  -1.63873
                                    2 1s    0.78071     2 2px  -0.41646     2 2py  -0.51922     2 2px   1.19908     2 2py   1.63996
                                    3 1s    0.40762     4 1s   -1.20907     5 1s   -1.20581     6 1s    0.41048
   21.1    -0.00000     1.01462     1 1s    0.78054     1 1s   -1.40120     1 2px   0.29303     1 2px   0.26296     1 2py   0.30227
                                    1 2pz   0.46009     2 1s    0.77798     2 1s   -1.39747     2 2px  -0.29239     2 2px  -0.26268
                                    2 2py  -0.30511     2 2pz  -0.46057     3 1s    0.51207     4 1s    0.35825     4 1s    0.58688
                                    5 1s    0.35929     5 1s    0.58684     6 1s    0.51509
   22.1    -0.00000     1.08563     1 1s    0.30291     1 1s   -0.48987     1 2py   0.53784     1 2px   0.39597     1 2py  -0.79589
                                    2 1s   -0.34952     2 1s    0.58643     2 2py   0.55341     2 2px   0.42539     2 2py  -0.79556
                                    3 1s   -0.68088     3 1s    1.32612     6 1s    0.71035     6 1s   -1.38182
   23.1    -0.00000     1.09836     1 1s   -0.87190     1 1s    1.79767     1 2py  -0.33082     1 2px  -0.55825     1 2pz  -0.27269
                                    2 1s   -0.85325     2 1s    1.76633     2 2py   0.30237     2 2px   0.53708     2 2pz   0.26637
                                    3 1s    0.61658     3 1s   -1.12138     4 1s   -0.53505     5 1s   -0.53518     6 1s    0.58025
                                    6 1s   -1.05011
   24.1    -0.00000     1.23929     1 1s    1.13441     1 1s   -3.12256     1 2px   0.33033     1 2py   0.28950     1 2px  -1.50819
                                    1 2py  -0.53265     1 2pz   0.73682     2 1s   -1.13464     2 1s    3.12393     2 2px   0.32980
                                    2 2py   0.28937     2 2px  -1.50680     2 2py  -0.53062     2 2pz   0.73726     3 1s    0.33687
                                    3 1s    0.45892     4 1s    0.36139     4 1s   -0.42350     5 1s   -0.36207     5 1s    0.42172
                                    6 1s   -0.33671     6 1s   -0.45854
   25.1    -0.00000     1.34423     1 1s    0.34871     1 1s   -1.05385     2 1s   -1.38483     2 1s    2.74787     2 2px  -0.55637
                                    2 2py  -0.42494     2 2px   0.54578     2 2py   0.49992     2 2pz   0.29992     4 1s    0.40418
                                    5 1s    0.88209     5 1s   -1.95797
   26.1    -0.00000     1.34479     1 1s   -1.33954     1 1s    2.55372     1 2px   0.53923     1 2py   0.43706     1 2px  -0.57229
                                    1 2py  -0.49665     1 2pz  -0.26722     2 1s   -0.30378     4 1s    0.91509     4 1s   -1.92087
   27.1    -0.00000     1.71660     1 3d0  -0.29820     1 3d2- -0.33536     1 3d1+  0.42619     2 3d0   0.29738     2 3d2-  0.33684
                                    2 3d1+ -0.42677
   28.1    -0.00000     1.92783     1 3d2+  0.31746     1 3d1- -0.53848     2 3d2+ -0.32004     2 3d1-  0.54117
   29.1    -0.00000     1.97291     1 1s   -0.36043     1 2px  -0.28983     1 2px   0.33928     1 3d1+ -0.39063     1 3d2+  0.41885
                                    2 1s   -0.36030     2 2px   0.28931     2 2px  -0.33852     2 3d1+ -0.39258     2 3d2+  0.41652
   30.1    -0.00000     2.02957     1 1s   -0.60618     1 2px   0.29379     1 2py   0.26184     1 3d0   0.39802     1 3d1+  0.30010
                                    1 3d2+  0.35092     1 3d1- -0.36279     2 1s   -0.61331     2 2px  -0.29105     2 2py  -0.26071
                                    2 3d0   0.39938     2 3d1+  0.29876     2 3d2+  0.35007     2 3d1- -0.36286     4 1s    0.38012
                                    5 1s    0.37989
   31.1    -0.00000     2.29395     1 2py  -0.39178     1 3d0   0.43816     1 3d1+ -0.27868     1 3d1-  0.44017     2 2py   0.39362
                                    2 3d0   0.44265     2 3d1+ -0.27609     2 3d1-  0.44235     3 1s    0.40008     6 1s    0.40378
   32.1    -0.00000     2.33209     1 1s    0.30664     1 1s   -1.16585     1 2px  -0.28649     1 2pz   0.27557     1 3d0   0.60446
                                    1 3d2+  0.29174     1 3d1-  0.25446     2 1s   -0.30696     2 1s    1.16618     2 2px  -0.28579
                                    2 2pz   0.27928     2 3d0  -0.59703     2 3d2+ -0.29691     2 3d1- -0.25837     3 1s    0.45518
                                    4 1s    0.35568     5 1s   -0.35556     6 1s   -0.45845
   33.1    -0.00000     2.37951     1 2py  -0.43022     1 3d2- -0.36606     1 3d1+  0.36520     1 3d2+  0.34431     1 3d1-  0.42235
                                    2 2py   0.42607     2 3d2- -0.36654     2 3d1+  0.36184     2 3d2+  0.33899     2 3d1-  0.41539
                                    3 1s    0.34441     6 1s    0.33429
   34.1    -0.00000     2.55979     1 1s    0.26405     1 1s   -0.60091     1 2px  -0.61285     1 2py  -0.26640     1 3d2-  0.65912
                                    1 3d1+  0.27601     1 3d1-  0.34785     2 1s   -0.26459     2 1s    0.60003     2 2px  -0.61413
                                    2 2py  -0.26779     2 3d2- -0.65852     2 3d1+ -0.28033     2 3d1- -0.34915     3 1s    0.28769
                                    4 1s   -0.72419     5 1s    0.72652     6 1s   -0.28750
   35.1    -0.00000     2.81833     1 1s   -0.25819     1 1s    1.39850     1 2px   0.86287     1 2pz  -0.36752     1 3d0  -0.25034
                                    1 3d1+ -0.56322     1 3d2+  0.65753     2 1s   -1.46345     2 2px   0.81032     2 2pz  -0.37036
                                    2 3d0   0.31502     2 3d1+  0.52244     2 3d2+ -0.69762     5 1s    0.25556
   36.1    -0.00000     2.82565     1 1s    0.49476     1 2py  -0.26057     1 3d0  -0.40038     1 3d2-  0.70754     1 3d2+  0.29223
                                    2 1s    0.25163     2 2px   0.37255     2 2py   0.25437     2 3d0  -0.35055     2 3d2-  0.70297
                                    2 3d1+  0.28087     4 1s   -0.82303     5 1s   -0.78832


 Natural orbital dump (state averaged) at molpro section  2140.2    (Orbital set 2)



 **********************************************************************************************************************************
 DATASETS  * FILE   NREC   LENGTH (MB)   RECORD NAMES
              1      20       31.83       500      610      700      900      950      970     1000      129      960     1100   
                                          VAR    BASINP    GEOM    SYMINP    ZMAT    AOBASIS   BASIS     P2S    ABASIS      S 
                                         1400     1410     1200     1210     1080     1600     1650     1300     1700     1380   
                                           T        V       H0       H01     AOSYM     SMH    MOLCAS    ERIS     OPER     JKOP   

              2       5        5.42       700     1000      520     2100     2140   
                                         GEOM     BASIS   MCVARS     RHF     MCSCF   

 PROGRAMS   *        TOTAL     MULTI    HF-SCF       INT
 CPU TIMES  *         1.89      1.54      0.09      0.17
 REAL TIME  *         2.23 SEC
 DISK USED  *        39.02 MB
 **********************************************************************************************************************************
 Molecular orbitals read from record     2140.2  Type=MCSCF/NATURAL (state averaged)
 Occupation numbers read from record     2140.2  Type=MCSCF/NATURAL (state averaged)
 Orbital energies read from record       2140.2  Type=MCSCF/NATURAL (state averaged)
 Redundancy group numbers read from rec  2140.2  Type=MCSCF/NATURAL (state averaged)

 MULTI/6-31G* energy=    -77.472982569098

           MULTI          HF-SCF
    -77.47298257    -77.84214541
 **********************************************************************************************************************************
 Molpro calculation terminated
