
 Primary working directories    : /scratch.local/johan406.molpro_temp/molpro.YmtH7m3eEc
 Secondary working directories  : /scratch.local/johan406.molpro_temp/molpro.YmtH7m3eEc
 Wavefunction directory         : /home/goodpast/johan406/wfu/
 Main file repository           : /scratch.local/johan406.molpro_temp/molpro.YmtH7m3eEc/

 id        : roweumn

 Nodes     nprocs
 acn06        1

 Using customized tuning parameters: mindgm=1; mindgv=20; mindgc=4; mindgr=1; noblas=0; minvec=7
 default implementation of scratch files=df  


 Variables initialized (934), CPU time= 0.01 sec
                                                                                 !leave this line blank
 
 gprint, orbitals=30
 memory, 125., m
 symmetry, nosym
 nelect=16
 basis=6-31g*
 
 geometry={
 C -0.732 0.064 0.294
 C 0.741 -0.114 -0.354
 H -1.083 1.150 -0.048
 H -1.461 -0.602 0.103
 H 1.470 0.552 -0.161
 H 1.090 -1.201 -0.013
 }
 
 hf
 {multi,
 closed 7
 occ 9
 wf,spin=0;STATE,3
 }
 
 Commands  initialized (763), CPU time= 0.01 sec, 617 directives.
 Default parameters read. Elapsed time= 0.05 sec

 Checking input...
 Passed
1


                                         ***  PROGRAM SYSTEM MOLPRO  ***
                                       Copyright, TTI GmbH Stuttgart, 2015
                                    Version 2019.2 linked Oct 25 2019 22:50:27


 **********************************************************************************************************************************
 LABEL *                                                                                 
  64 bit serial version                                                                  DATE: 15-Mar-23          TIME: 16:47:23  
 **********************************************************************************************************************************

 SHA1:             8dbd9ae1082e4ce945b0f27595c9eb2d4aa09004
 **********************************************************************************************************************************


 Variable memory set to  125000000 words,  buffer space 

 SETTING NELECT         =        16.00000000                                  
 SETTING BASIS          =    6-31G*
 ZSYMEL=NOSYM


Geometry recognized as XYZ



 Recomputing integrals since basis changed


 Using spherical harmonics

 Library entry C      S 6-31G                selected for orbital group  1
 Library entry C      P 6-31G                selected for orbital group  1
 Library entry C      D 6-31G*               selected for orbital group  1
 Library entry H      S 6-31G                selected for orbital group  2


 PROGRAM * SEWARD (Integral evaluation for generally contracted gaussian basis sets)     Author: Roland Lindh, 1990

 Geometry written to block  1 of record 700


 Point group  C1  



 ATOMIC COORDINATES

 NR  ATOM    CHARGE       X              Y              Z

   1  C       6.00   -1.383279523    0.120942472    0.555579481
   2  C       6.00    1.400287058   -0.215428778   -0.668963048
   3  H       1.00   -2.046573393    2.173185043   -0.090706854
   4  H       1.00   -2.760889868   -1.137615127    0.194641791
   5  H       1.00    2.777897403    1.043128821   -0.304245906
   6  H       1.00    2.059801476   -2.269561076   -0.024566440

 Bond lengths in Bohr (Angstrom)

 1-2  3.059557637  1-3  2.251520454  1-4  1.900540320  2-5  1.901261709  2-6  2.251591826
     ( 1.619048177)     ( 1.191453314)     ( 1.005722626)     ( 1.006104368)     ( 1.191491083)

 Bond angles

  1-2-5  120.64134054   1-2-6  104.61021068   2-1-3  104.67576634   2-1-4  120.70724900

  3-1-4  109.60573179   5-2-6  109.68021275

 NUCLEAR CHARGE:                   16
 NUMBER OF PRIMITIVE AOS:          72
 NUMBER OF SYMMETRY AOS:           70
 NUMBER OF CONTRACTIONS:           36   (   36A   )
 NUMBER OF CORE ORBITALS:           2   (    2A   )
 NUMBER OF VALENCE ORBITALS:       12   (   12A   )


 NUCLEAR REPULSION ENERGY   30.32805606

 Eigenvalues of metric

         1 0.151E-01 0.263E-01 0.509E-01 0.606E-01 0.855E-01 0.221E+00 0.251E+00 0.280E+00


 Contracted 2-electron integrals neglected if value below      1.0D-11
 AO integral compression algorithm  1   Integral accuracy      1.0D-11

     1.311 MB (compressed) written to integral file ( 67.8%)


 NUMBER OF SORTED TWO-ELECTRON INTEGRALS:     222111.     BUFFER LENGTH:  32768
 NUMBER OF SEGMENTS:   1  SEGMENT LENGTH:     222111      RECORD LENGTH: 524288

 Memory used in sort:       0.78 MW

 SORT1 READ      284735. AND WROTE      212522. INTEGRALS IN      1 RECORDS. CPU TIME:     0.00 SEC, REAL TIME:     0.01 SEC
 SORT2 READ      212522. AND WROTE      222111. INTEGRALS IN      5 RECORDS. CPU TIME:     0.02 SEC, REAL TIME:     0.02 SEC

 FILE SIZES:   FILE 1:    31.4 MBYTE,  FILE 4:     4.2 MBYTE,   TOTAL:     35.6 MBYTE

 OPERATOR DM      FOR CENTER  0  COORDINATES:    0.000000    0.000000    0.000000


 **********************************************************************************************************************************
 DATASETS  * FILE   NREC   LENGTH (MB)   RECORD NAMES
              1      19       31.11       500      610      700      900      950      970     1000      129      960     1100   
                                          VAR    BASINP    GEOM    SYMINP    ZMAT    AOBASIS   BASIS     P2S    ABASIS      S 
                                         1400     1410     1200     1210     1080     1600     1650     1300     1700   
                                           T        V       H0       H01     AOSYM     SMH    MOLCAS    ERIS     OPER   

 PROGRAMS   *        TOTAL       INT
 CPU TIMES  *         0.29      0.18
 REAL TIME  *         0.44 SEC
 DISK USED  *        35.97 MB
 **********************************************************************************************************************************


 PROGRAM * RHF-SCF (CLOSED SHELL)       Authors: W. Meyer, H.-J. Werner


 NUMBER OF ELECTRONS:       8+    8-    SPACE SYMMETRY=1    SPIN SYMMETRY: Singlet 
 CONVERGENCE THRESHOLDS:    1.00E-05 (Density)    1.00E-07 (Energy)
 MAX. NUMBER OF ITERATIONS:       60
 INTERPOLATION TYPE:            DIIS
 INTERPOLATION STEPS:              2 (START)      1 (STEP)
 LEVEL SHIFTS:                  0.00 (CLOSED)  0.00 (OPEN) 



 Orbital guess generated from atomic densities. Full valence occupancy:    8

 Molecular orbital dump at record        2100.2

 Initial occupancy:   8

 ITERATION    DDIFF          GRAD             ENERGY        2-EL.EN.            DIPOLE MOMENTS         DIIS   ORB.
    1      0.000D+00      0.000D+00       -77.87655750    111.689095   -0.00015   -0.00030    0.00005    0    start
    2      0.000D+00      0.688D-02       -77.89639594    110.998359   -0.00078   -0.00027    0.00074    1    diag
    3      0.709D-02      0.228D-02       -77.89921138    111.309814   -0.00028   -0.00026    0.00024    2    diag
    4      0.321D-02      0.857D-03       -77.89981604    111.193197   -0.00089   -0.00026    0.00081    3    diag
    5      0.154D-02      0.409D-03       -77.90008888    111.204735   -0.00016   -0.00023    0.00008    4    diag
    6      0.144D-02      0.116D-03       -77.90011204    111.203454   -0.00174   -0.00027    0.00158    5    diag
    7      0.394D-03      0.304D-04       -77.90011277    111.203862   -0.00006   -0.00022   -0.00003    6    diag
    8      0.534D-04      0.167D-04       -77.90011293    111.204105   -0.00081   -0.00024    0.00069    7    diag
    9      0.233D-04      0.395D-05       -77.90011295    111.204095   -0.00075   -0.00024    0.00063    8    diag
   10      0.101D-04      0.993D-06       -77.90011295    111.204098   -0.00075   -0.00024    0.00063    9    orth
   11      0.228D-05      0.171D-06       -77.90011295    111.204095   -0.00075   -0.00024    0.00063    0    orth

 Final occupancy:   8

 !RHF STATE  1.1 Energy               -77.900112953996
 Nuclear energy                        30.32805606
 One-electron energy                 -163.83021652
 Two-electron energy                   55.60204751
 Virial quotient                       -1.00470544
 !RHF STATE  1.1 Dipole moment         -0.00075008    -0.00024064     0.00063280
 Dipole moment /Debye                  -0.00190639    -0.00061160     0.00160831

 ELECTRON ORBITALS
 =================

  Orbital  Occupation    Energy     Coefficients
    1.1     2.00000   -11.27283     1 1s    0.71079     2 1s    0.69812
    2.1     2.00000   -11.27236     1 1s   -0.69821     2 1s    0.71088
    3.1     2.00000    -0.97358     1 1s    0.28795     1 1s    0.26328     2 1s    0.28770     2 1s    0.26314
    4.1     2.00000    -0.82663     2 1s    0.25012     2 1s    0.25017
    5.1     2.00000    -0.59583     1 2py   0.30754     2 2py   0.30764
    6.1     2.00000    -0.56179     1 2px  -0.31903     2 2px   0.31923
    7.1     2.00000    -0.46711     1 2py   0.26059     2 2py  -0.26061
    8.1     2.00000    -0.34293     1 2pz   0.31562     1 2pz   0.31320     2 2pz   0.31578     2 2pz   0.31332
    9.1     0.00000     0.07653     1 1s    0.31144     1 2pz   0.35029     1 2pz   0.50045     2 1s    0.31158     2 2pz  -0.35019
                                    2 2pz  -0.50025
   10.1     0.00000     0.25132     1 1s   -1.28177     1 2px   0.55506     1 2py  -0.33587     1 2pz   0.38409     2 1s   -1.28206
                                    2 2px  -0.55379     2 2py   0.33778     2 2pz  -0.38464     3 1s    1.08341     4 1s    0.84893
                                    5 1s    0.84726     6 1s    1.08508
   11.1     0.00000     0.28524     1 1s   -1.56236     1 2py  -0.36803     1 2pz   0.36386     2 1s    1.56184     2 2py  -0.36606
                                    2 2pz   0.36320     3 1s    1.26142     4 1s    0.53722     5 1s   -0.53887     6 1s   -1.25887
   12.1     0.00000     0.30497     1 1s    1.15230     1 2py  -0.72112     2 1s   -1.15353     2 2py  -0.72067     2 2pz  -0.25094
                                    3 1s    0.54528     4 1s   -1.34888     5 1s    1.35032     6 1s   -0.54390
   13.1     0.00000     0.34225     1 1s   -0.75163     1 2px   0.51622     1 2py   1.17918     2 1s   -0.74655     2 2px  -0.51882
                                    2 2py  -1.17998     3 1s   -0.76413     4 1s    1.74391     5 1s    1.74322     6 1s   -0.76672
   14.1     0.00000     0.39357     1 1s    0.64494     1 2px   0.29455     1 2px   1.60064     1 2pz  -0.47887     2 1s   -0.64804
                                    2 2px   0.29436     2 2px   1.59934     2 2pz  -0.47806     4 1s    1.10220     5 1s   -1.09706
   15.1     0.00000     0.70294     1 2px  -0.26412     1 2py  -0.33924     1 2px   0.78674     1 2py   0.59416     2 2px  -0.26406
                                    2 2py  -0.33894     2 2px   0.78568     2 2py   0.59293     4 1s    0.44105     4 1s    0.27492
                                    5 1s   -0.44056     5 1s   -0.27379
   16.1     0.00000     0.75598     1 1s    0.50360     1 2px   0.57411     1 2px  -0.95708     2 1s    0.50415     2 2px  -0.57528
                                    2 2px   0.95618     4 1s   -0.29565     5 1s   -0.29430
   17.1     0.00000     0.80577     1 2pz   0.76786     1 2pz  -0.67335     2 2pz   0.76791     2 2pz  -0.67346
   18.1     0.00000     0.84920     1 1s    0.29505     1 1s   -0.33134     1 2pz   0.73719     1 2py   0.34059     1 2pz  -0.87904
                                    2 1s    0.29696     2 1s   -0.33546     2 2pz  -0.73601     2 2py  -0.34573     2 2pz   0.87711
   19.1     0.00000     0.85371     1 1s    0.50302     1 2px  -0.60706     1 2py   0.31356     1 2px   1.14886     1 2py  -0.46502
                                    2 1s   -0.49923     2 2px  -0.60537     2 2py   0.30855     2 2px   1.14775     2 2py  -0.45321
                                    3 1s    0.36529     6 1s   -0.36379
   20.1     0.00000     0.89474     1 1s    0.46314     1 2py   0.62345     1 2px  -0.73085     1 2py  -1.74625     2 1s    0.46648
                                    2 2py  -0.62542     2 2px   0.72366     2 2py   1.74955     3 1s    0.34832     4 1s   -0.82159
                                    5 1s   -0.81916     6 1s    0.34985
   21.1     0.00000     1.05080     1 1s    0.85743     1 1s   -1.50934     1 2px   0.40391     1 2pz   0.58765     2 1s    0.85682
                                    2 1s   -1.50885     2 2px  -0.40153     2 2pz  -0.58850     3 1s    0.52842     4 1s    0.37616
                                    4 1s    0.55453     5 1s    0.37701     5 1s    0.55207     6 1s    0.52726
   22.1     0.00000     1.10071     1 1s    0.34463     1 1s   -0.57013     1 2py   0.57213     1 2px   0.31708     1 2py  -0.84731
                                    2 1s   -0.34335     2 1s    0.56765     2 2py   0.57157     2 2px   0.31549     2 2py  -0.84676
                                    3 1s   -0.65903     3 1s    1.33470     6 1s    0.65911     6 1s   -1.33332
   23.1     0.00000     1.11178     1 1s   -0.79814     1 1s    1.43873     1 2py  -0.34597     1 2px  -0.37781     2 1s   -0.79859
                                    2 1s    1.43931     2 2py   0.34630     2 2px   0.37748     3 1s    0.64084     3 1s   -1.12020
                                    6 1s    0.64200     6 1s   -1.12118
   24.1     0.00000     1.25100     1 1s    0.90622     1 2px  -0.49031     1 2py  -0.35394     1 2px   1.23168     1 2py   0.45767
                                    1 2pz  -0.30116     2 1s   -0.88580     2 2px  -0.49555     2 2py  -0.35848     2 2px   1.23947
                                    2 2py   0.46221     2 2pz  -0.29684     3 1s   -0.25018     4 1s   -0.66213     4 1s    1.12790
                                    5 1s    0.67254     5 1s   -1.14682
   25.1     0.00000     1.27916     1 1s   -0.80592     1 1s    1.32825     1 2px   0.34891     1 2py   0.33040     1 2px  -0.47323
                                    1 2py  -0.32809     2 1s   -0.81814     2 1s    1.36665     2 2px  -0.34206     2 2py  -0.32591
                                    2 2px   0.45057     2 2py   0.32291     4 1s    0.71861     4 1s   -1.25439     5 1s    0.70959
                                    5 1s   -1.24407
   26.1     0.00000     1.29980     1 1s   -1.58686     1 1s    3.99070     1 2px   0.62149     1 2pz  -0.71264     2 1s    1.58249
                                    2 1s   -3.98166     2 2px   0.62641     2 2pz  -0.71245     3 1s   -0.35845     4 1s   -0.99353
                                    5 1s    0.98407     6 1s    0.35825
   27.1     0.00000     1.75796     1 1s    0.60668     1 3d2- -0.31057     1 3d1+  0.45794     2 1s   -0.60611     2 3d2-  0.31159
                                    2 3d1+ -0.45782
   28.1     0.00000     1.88318     1 1s    0.36338     1 3d2+  0.30574     1 3d1- -0.53911     2 1s   -0.36493     2 3d2+ -0.30452
                                    2 3d1-  0.53950
   29.1     0.00000     2.01402     1 1s    0.43896     1 1s   -0.54113     1 3d0   0.45064     1 3d1+  0.47804     2 1s    0.43945
                                    2 1s   -0.54228     2 3d0   0.45106     2 3d1+  0.47833
   30.1     0.00000     2.10924     1 1s   -0.38646     1 2px   0.46571     1 2py   0.31318     1 3d2+  0.58744     1 3d1- -0.36189
                                    2 1s   -0.38850     2 2px  -0.46332     2 2py  -0.31261     2 3d2+  0.58694     2 3d1- -0.36324
                                    4 1s    0.28847     4 1s    0.32789     5 1s    0.28776     5 1s    0.32685
   31.1     0.00000     2.26148     1 2py  -0.64823     1 3d2+  0.31360     1 3d1-  0.63514     2 2py   0.64796     2 3d2+  0.31316
                                    2 3d1-  0.63258     3 1s    0.43672     6 1s    0.43396
   32.1     0.00000     2.32213     1 1s   -0.40348     1 1s    1.43260     1 2px   0.29726     1 2pz  -0.31490     1 3d0  -0.64553
                                    1 3d2+ -0.26382     2 1s    0.40336     2 1s   -1.43233     2 2px   0.29803     2 2pz  -0.31498
                                    2 3d0   0.64738     2 3d2+  0.26589     3 1s   -0.43785     4 1s   -0.31540     5 1s    0.31532
                                    6 1s    0.44059
   33.1     0.00000     2.41650     1 3d0   0.48543     1 3d2-  0.36913     1 3d1+ -0.48438     2 3d0   0.48391     2 3d2-  0.37183
                                    2 3d1+ -0.48381
   34.1     0.00000     2.56981     1 3d2-  0.64130     1 3d1-  0.40080     2 3d2- -0.64135     2 3d1- -0.40315     3 1s    0.29909
                                    4 1s   -0.66756     5 1s    0.67006     6 1s   -0.29939
   35.1     0.00000     2.74234     1 2py  -0.26099     1 3d0  -0.30158     1 3d2-  0.72435     2 2py   0.26075     2 3d0  -0.30025
                                    2 3d2-  0.72093     4 1s   -0.68890     5 1s   -0.68539
   36.1     0.00000     2.85492     1 1s    1.47838     1 2px   0.87548     1 2pz  -0.37207     1 3d1+ -0.59638     1 3d2+  0.67560
                                    2 1s   -1.47828     2 2px   0.87599     2 2pz  -0.37199     2 3d1+  0.59707     2 3d2+ -0.67520


 HOMO      8.1    -0.342929 =      -9.3316eV
 LUMO      9.1     0.076528 =       2.0824eV
 LUMO-HOMO         0.419457 =      11.4140eV


 **********************************************************************************************************************************
 DATASETS  * FILE   NREC   LENGTH (MB)   RECORD NAMES
              1      19       31.11       500      610      700      900      950      970     1000      129      960     1100   
                                          VAR    BASINP    GEOM    SYMINP    ZMAT    AOBASIS   BASIS     P2S    ABASIS      S 
                                         1400     1410     1200     1210     1080     1600     1650     1300     1700   
                                           T        V       H0       H01     AOSYM     SMH    MOLCAS    ERIS     OPER   

              2       4        2.86       700     1000      520     2100   
                                         GEOM     BASIS   MCVARS     RHF  

 PROGRAMS   *        TOTAL    HF-SCF       INT
 CPU TIMES  *         0.39      0.10      0.18
 REAL TIME  *         0.59 SEC
 DISK USED  *        35.97 MB
 **********************************************************************************************************************************


 PROGRAM * MULTI (Direct Multiconfiguration SCF)       Authors: P.J. Knowles, H.-J. Werner (1984)


 Number of closed-shell orbitals:   7 (   7 )
 Number of active  orbitals:        2 (   2 )
 Number of external orbitals:      27 (  27 )

 State symmetry 1

 Number of electrons:     2    Spin symmetry=Singlet   Space symmetry=1
 Number of states:        3
 Number of CSFs:          3   (4 determinants, 4 intermediate states)

 Molecular orbitals read from record     2100.2  Type=RHF/CANONICAL (state 1.1)

 Wavefunction dump at record             2140.2

 Convergence thresholds  0.10E-01 (gradient)  0.10E-05 (energy)  0.10E-02 (step length)

 Weight factors for state symmetry  1:    0.33333   0.33333   0.33333

 Number of orbital rotations:      257   (    14 Core/Active    189 Core/Virtual   0 Active/Active     54 Active/Virtual)
 Total number of variables:        269

 Micro-Iterations solved by the two-step solver

 ITER. MIC  NCI  NEG     ENERGY(VAR)     ENERGY(PROJ)   ENERGY CHANGE     GRAD(0)  GRAD(ORB)   GRAD(CI)     STEP       TIME

   1   10    5    0     -77.69423166     -77.70030967   -0.00607801    0.09747512 0.00058213 0.00000000  0.13D+00      0.13
   2   10    6    0     -77.70007500     -77.70015600   -0.00008100    0.01088880 0.00000116 0.00000000  0.31D-01      0.26
   3   15    7    0     -77.70016174     -77.70017001   -0.00000827    0.00105820 0.00000979 0.00000000  0.18D-01      0.43
   4    9    6    0     -77.70017013     -77.70017017   -0.00000004    0.00018680 0.00000000 0.00000000  0.96D-03      0.54
   5    5    4    0     -77.70017017     -77.70017017   -0.00000000    0.00000040 0.00000000 0.00000000  0.64D-05      0.62

 ** WVFN ****  CONVERGENCE REACHED, FINAL GRADIENT:  0.34D-10



 Results for state 1.1
 =====================

 !MCSCF STATE  1.1 Energy             -77.930133485023
 Nuclear energy                        30.32805606
 Kinetic energy                        77.58898299
 One electron energy                 -163.76982690
 Two electron energy                   55.51163736
 Virial ratio                           2.00439689

 !MCSCF STATE  1.1 Dipole moment        0.00295624    -0.00172845    -0.00104226
 Dipole moment /Debye                   0.00751351    -0.00439301    -0.00264899

 Results for state 2.1
 =====================

 !MCSCF STATE  2.1 Energy             -77.632580850444
 Nuclear energy                        30.32805606
 Kinetic energy                        77.73571614
 One electron energy                 -163.59549380
 Two electron energy                   55.63485689
 Virial ratio                           1.99867326

 !MCSCF STATE  2.1 Dipole moment       -0.01027161     0.00004176     0.00599928
 Dipole moment /Debye                  -0.02610612     0.00010613     0.01524764

 Results for state 3.1
 =====================

 !MCSCF STATE  3.1 Energy             -77.537796186089
 Nuclear energy                        30.32805606
 Kinetic energy                        77.88247941
 One electron energy                 -163.42126667
 Two electron energy                   55.55541442
 Virial ratio                           1.99557432

 !MCSCF STATE  3.1 Dipole moment        0.00905139    -0.00287174    -0.01047669
 Dipole moment /Debye                   0.02300484    -0.00729875    -0.02662734

 State-averaged charge density matrix saved on record  2140.2 (density set 1)

 !MCSCF expec         <1.1|DMX|1.1>     0.002956237053 au =     0.007513512968 Debye
 !MCSCF trans         <2.1|DMX|1.1>     1.167328443054 au =     2.966858624298 Debye
 !MCSCF expec         <2.1|DMX|2.1>    -0.010271609235 au =    -0.026106116601 Debye
 !MCSCF trans         <3.1|DMX|1.1>     0.004491515706 au =     0.011415546487 Debye
 !MCSCF trans         <3.1|DMX|2.1>     2.289249441534 au =     5.818310595614 Debye
 !MCSCF expec         <3.1|DMX|3.1>     0.009051392036 au =     0.023004836970 Debye

 !MCSCF expec         <1.1|DMY|1.1>    -0.001728454667 au =    -0.004393005812 Debye
 !MCSCF trans         <2.1|DMY|1.1>    -0.167966080848 au =    -0.426899231761 Debye
 !MCSCF expec         <2.1|DMY|2.1>     0.000041759430 au =     0.000106134931 Debye
 !MCSCF trans         <3.1|DMY|1.1>    -0.000549683322 au =    -0.001397064137 Debye
 !MCSCF trans         <3.1|DMY|2.1>    -0.329397751539 au =    -0.837190737356 Debye
 !MCSCF expec         <3.1|DMY|3.1>    -0.002871736749 au =    -0.007298748686 Debye

 !MCSCF expec         <1.1|DMZ|1.1>    -0.001042262699 au =    -0.002648994029 Debye
 !MCSCF trans         <2.1|DMZ|1.1>    -0.843383289737 au =    -2.143526101529 Debye
 !MCSCF expec         <2.1|DMZ|2.1>     0.005999276827 au =     0.015247641998 Debye
 !MCSCF trans         <3.1|DMZ|1.1>    -0.001419912977 au =    -0.003608822423 Debye
 !MCSCF trans         <3.1|DMZ|2.1>    -1.653945705216 au =    -4.203635325463 Debye
 !MCSCF expec         <3.1|DMZ|3.1>    -0.010476687054 au =    -0.026627338282 Debye


 NATURAL ORBITALS (state averaged)
 =================================

  Orbital  Occupation    Energy     Coefficients
    1.1     2.00000   -11.27612     1 1s    0.30592     2 1s    0.94817
    2.1     2.00000   -11.27551     1 1s   -0.94819     2 1s    0.30597
    3.1     2.00000    -0.97630     1 1s    0.29245     1 1s    0.26678     2 1s    0.29246     2 1s    0.26659
    4.1     2.00000    -0.83010     1 1s   -0.25265     1 1s   -0.27945     2 1s    0.25281     2 1s    0.27923
    5.1     2.00000    -0.60195     1 2py   0.30777     2 2py   0.30955
    6.1     2.00000    -0.56611     1 2px  -0.32104     2 2px   0.32023
    7.1     2.00000    -0.47104     1 2py   0.26118     2 2py  -0.26110
    8.1     1.00000    -0.21353     1 2pz   0.29098     1 2pz   0.30894     2 2pz   0.29339     2 2pz   0.31254
    9.1     1.00000    -0.05476     1 1s    0.25971     1 2pz   0.37684     1 2pz   0.48157     2 1s    0.25324     2 2pz  -0.37757
                                    2 2pz  -0.48221
   10.1    -0.00000     0.24854     1 1s   -1.27826     1 2px   0.55697     1 2py  -0.34369     1 2pz   0.37308     2 1s   -1.28192
                                    2 2px  -0.55711     2 2py   0.34919     2 2pz  -0.37434     3 1s    1.08609     4 1s    0.83687
                                    5 1s    0.83464     6 1s    1.09486
   11.1    -0.00000     0.28128     1 1s   -1.50250     1 2py  -0.41295     1 2pz   0.35709     2 1s    1.49418     2 2py  -0.41185
                                    2 2pz   0.35492     3 1s    1.29183     4 1s    0.43483     5 1s   -0.42888     6 1s   -1.28580
   12.1    -0.00000     0.29848     1 1s    1.24570     1 2py  -0.69150     1 2pz  -0.28449     2 1s   -1.25497     2 2py  -0.69510
                                    2 2pz  -0.28523     3 1s    0.46592     4 1s   -1.34117     5 1s    1.35310     6 1s   -0.46509
   13.1    -0.00000     0.34034     1 1s   -0.76842     1 2px   0.52074     1 2py   1.17411     2 1s   -0.76018     2 2px  -0.52662
                                    2 2py  -1.17116     3 1s   -0.75566     4 1s    1.75303     5 1s    1.74911     6 1s   -0.75322
   14.1    -0.00000     0.38614     1 1s    0.54853     1 2px   0.30332     1 2px   1.56947     1 2pz  -0.46208     2 1s   -0.55561
                                    2 2px   0.30241     2 2px   1.56680     2 2pz  -0.45731     4 1s    1.15182     5 1s   -1.14287
   15.1    -0.00000     0.69681     1 2px  -0.25767     1 2py  -0.34742     1 2px   0.78292     1 2py   0.59391     2 2px  -0.25939
                                    2 2py  -0.34763     2 2px   0.78469     2 2py   0.59492     4 1s    0.43995     4 1s    0.26669
                                    5 1s   -0.43995     5 1s   -0.26662
   16.1    -0.00000     0.75033     1 1s    0.44045     1 2px   0.57342     1 2px  -0.93807     2 1s    0.43640     2 2px  -0.57668
                                    2 2px   0.94185     4 1s   -0.26591     5 1s   -0.26453
   17.1    -0.00000     0.79953     1 2pz   0.76954     1 2pz  -0.67629     2 2pz   0.77694     2 2pz  -0.68688
   18.1    -0.00000     0.84113     1 1s    0.28672     1 1s   -0.31070     1 2pz   0.73496     1 2py   0.30124     1 2pz  -0.90377
                                    2 1s    0.27999     2 1s   -0.29806     2 2pz  -0.73025     2 2py  -0.28861     2 2pz   0.90232
   19.1    -0.00000     0.84552     1 1s    0.56898     1 2px  -0.59978     1 2py   0.30568     1 2px   1.18393     1 2py  -0.44913
                                    2 1s   -0.58196     2 2px  -0.60124     2 2py   0.30655     2 2px   1.18266     2 2py  -0.45360
                                    3 1s    0.36502     6 1s   -0.36317
   20.1    -0.00000     0.89186     1 1s    0.45799     1 2py   0.63173     1 2px  -0.71894     1 2py  -1.76123     2 1s    0.45873
                                    2 2py  -0.63291     2 2px   0.71391     2 2py   1.76335     3 1s    0.36210     4 1s   -0.82566
                                    5 1s   -0.82391     6 1s    0.36492
   21.1    -0.00000     1.04500     1 1s    0.88465     1 1s   -1.57342     1 2px   0.43906     1 2pz   0.58865     2 1s    0.88269
                                    2 1s   -1.57223     2 2px  -0.43442     2 2pz  -0.58978     3 1s    0.51462     4 1s    0.38016
                                    4 1s    0.57878     5 1s    0.38154     5 1s    0.57698     6 1s    0.51720
   22.1    -0.00000     1.09584     1 1s    0.31506     1 1s   -0.51061     1 2py   0.57065     1 2px   0.30855     1 2py  -0.85600
                                    2 1s   -0.34285     2 1s    0.56152     2 2py   0.58109     2 2px   0.32177     2 2py  -0.86099
                                    3 1s   -0.64601     3 1s    1.31730     6 1s    0.66532     6 1s   -1.35286
   23.1    -0.00000     1.10838     1 1s   -0.77572     1 1s    1.40900     1 2py  -0.35396     1 2px  -0.38176     2 1s   -0.76439
                                    2 1s    1.38986     2 2py   0.33543     2 2px   0.37192     3 1s    0.66402     3 1s   -1.13586
                                    6 1s    0.64314     6 1s   -1.09269
   24.1    -0.00000     1.24366     1 1s   -0.36182     1 1s    1.37951     1 2px  -0.47163     1 2py  -0.33114     1 2px   1.30306
                                    1 2py   0.42035     1 2pz  -0.37743     2 1s    0.34738     2 1s   -1.35494     2 2px  -0.47713
                                    2 2py  -0.33594     2 2px   1.31201     2 2py   0.42496     2 2pz  -0.37311     3 1s   -0.28223
                                    4 1s   -0.63657     4 1s    0.99603     5 1s    0.64792     5 1s   -1.01755     6 1s    0.28061
   25.1    -0.00000     1.27672     1 1s   -0.79545     1 1s    1.30003     1 2px   0.35134     1 2py   0.32156     1 2px  -0.48108
                                    1 2py  -0.31799     2 1s   -0.83641     2 1s    1.40977     2 2px  -0.34752     2 2py  -0.31835
                                    2 2px   0.44959     2 2py   0.31608     4 1s    0.71629     4 1s   -1.24289     5 1s    0.71040
                                    5 1s   -1.25183
   26.1    -0.00000     1.29048     1 1s   -1.56414     1 1s    3.86065     1 2px   0.44638     1 2py  -0.25246     1 2pz  -0.66163
                                    2 1s    1.54651     2 1s   -3.82991     2 2px   0.45841     2 2pz  -0.65980     3 1s   -0.36374
                                    4 1s   -1.13610     5 1s    1.10648     6 1s    0.36263
   27.1    -0.00000     1.74740     1 1s    0.60360     1 3d2- -0.30964     1 3d1+  0.45758     2 1s   -0.60201     2 3d2-  0.31106
                                    2 3d1+ -0.45807
   28.1    -0.00000     1.87278     1 1s    0.35274     1 3d2+  0.30499     1 3d1- -0.53999     2 1s   -0.35330     2 3d2+ -0.30432
                                    2 3d1-  0.54091
   29.1    -0.00000     2.00363     1 1s    0.43352     1 1s   -0.52503     1 3d0   0.44582     1 3d1+  0.48102     2 1s    0.43470
                                    2 1s   -0.52932     2 3d0   0.44728     2 3d1+  0.48111
   30.1    -0.00000     2.10065     1 1s   -0.39262     1 2px   0.46759     1 2py   0.30778     1 3d2+  0.58932     1 3d1- -0.35854
                                    2 1s   -0.39710     2 2px  -0.46490     2 2py  -0.30714     2 3d2+  0.58881     2 3d1- -0.35928
                                    4 1s    0.28701     4 1s    0.32953     5 1s    0.28707     5 1s    0.32869
   31.1    -0.00000     2.25404     1 2py  -0.65119     1 3d2+  0.30880     1 3d1-  0.63711     2 2py   0.65131     2 3d2+  0.30992
                                    2 3d1-  0.63555     3 1s    0.43380     6 1s    0.43334
   32.1    -0.00000     2.31263     1 1s   -0.40683     1 1s    1.44476     1 2px   0.29959     1 2pz  -0.31853     1 3d0  -0.64624
                                    1 3d2+ -0.26275     2 1s    0.40643     2 1s   -1.44309     2 2px   0.30098     2 2pz  -0.31788
                                    2 3d0   0.64673     2 3d2+  0.26265     3 1s   -0.44152     4 1s   -0.31665     5 1s    0.31626
                                    6 1s    0.44186
   33.1    -0.00000     2.40405     1 3d0   0.49039     1 3d2-  0.36463     1 3d1+ -0.48356     2 3d0   0.48856     2 3d2-  0.36842
                                    2 3d1+ -0.48204
   34.1    -0.00000     2.55948     1 3d2-  0.64045     1 3d1-  0.39917     2 3d2- -0.64232     2 3d1- -0.40106     3 1s    0.29986
                                    4 1s   -0.66960     5 1s    0.67443     6 1s   -0.30010
   35.1    -0.00000     2.73385     1 2py  -0.25955     1 3d0  -0.30019     1 3d2-  0.72688     2 2py   0.25875     2 3d0  -0.29878
                                    2 3d2-  0.72105     4 1s   -0.69232     5 1s   -0.68668
   36.1    -0.00000     2.84690     1 1s    1.48390     1 2px   0.87961     1 2pz  -0.37430     1 3d1+ -0.59679     1 3d2+  0.67634
                                    2 1s   -1.48328     2 2px   0.88043     2 2pz  -0.37431     2 3d1+  0.59804     2 3d2+ -0.67527


 Natural orbital dump (state averaged) at molpro section  2140.2    (Orbital set 2)



 **********************************************************************************************************************************
 DATASETS  * FILE   NREC   LENGTH (MB)   RECORD NAMES
              1      20       31.83       500      610      700      900      950      970     1000      129      960     1100   
                                          VAR    BASINP    GEOM    SYMINP    ZMAT    AOBASIS   BASIS     P2S    ABASIS      S 
                                         1400     1410     1200     1210     1080     1600     1650     1300     1700     1380   
                                           T        V       H0       H01     AOSYM     SMH    MOLCAS    ERIS     OPER     JKOP   

              2       5        5.42       700     1000      520     2100     2140   
                                         GEOM     BASIS   MCVARS     RHF     MCSCF   

 PROGRAMS   *        TOTAL     MULTI    HF-SCF       INT
 CPU TIMES  *         1.05      0.66      0.10      0.18
 REAL TIME  *         1.35 SEC
 DISK USED  *        39.02 MB
 **********************************************************************************************************************************
 Molecular orbitals read from record     2140.2  Type=MCSCF/NATURAL (state averaged)
 Occupation numbers read from record     2140.2  Type=MCSCF/NATURAL (state averaged)
 Orbital energies read from record       2140.2  Type=MCSCF/NATURAL (state averaged)
 Redundancy group numbers read from rec  2140.2  Type=MCSCF/NATURAL (state averaged)

 MULTI/6-31G* energy=    -77.537796186089

           MULTI          HF-SCF
    -77.53779619    -77.90011295
 **********************************************************************************************************************************
 Molpro calculation terminated
