
 Primary working directories    : /scratch.local/johan406.molpro_temp/molpro.L1zlSmrVSG
 Secondary working directories  : /scratch.local/johan406.molpro_temp/molpro.L1zlSmrVSG
 Wavefunction directory         : /home/goodpast/johan406/wfu/
 Main file repository           : /scratch.local/johan406.molpro_temp/molpro.L1zlSmrVSG/

 id        : roweumn

 Nodes     nprocs
 acn06        1

 Using customized tuning parameters: mindgm=1; mindgv=20; mindgc=4; mindgr=1; noblas=0; minvec=7
 default implementation of scratch files=df  


 Variables initialized (934), CPU time= 0.01 sec
                                                                                 !leave this line blank
 
 gprint, orbitals=30
 memory, 125., m
 symmetry, nosym
 nelect=16
 basis=6-31g*
 
 geometry={
 C -0.720 0.085 0.291
 C 0.729 -0.134 -0.351
 H -1.175 1.160 -0.007
 H -1.444 -0.658 0.058
 H 1.453 0.607 -0.116
 H 1.183 -1.211 -0.054
 }
 
 hf
 {multi,
 closed 7
 occ 9
 wf,spin=0;STATE,3
 }
 
 Commands  initialized (763), CPU time= 0.01 sec, 617 directives.
 Default parameters read. Elapsed time= 0.08 sec

 Checking input...
 Passed
1


                                         ***  PROGRAM SYSTEM MOLPRO  ***
                                       Copyright, TTI GmbH Stuttgart, 2015
                                    Version 2019.2 linked Oct 25 2019 22:50:27


 **********************************************************************************************************************************
 LABEL *                                                                                 
  64 bit serial version                                                                  DATE: 15-Mar-23          TIME: 16:48:07  
 **********************************************************************************************************************************

 SHA1:             8dbd9ae1082e4ce945b0f27595c9eb2d4aa09004
 **********************************************************************************************************************************


 Variable memory set to  125000000 words,  buffer space 

 SETTING NELECT         =        16.00000000                                  
 SETTING BASIS          =    6-31G*
 ZSYMEL=NOSYM


Geometry recognized as XYZ



 Recomputing integrals since basis changed


 Using spherical harmonics

 Library entry C      S 6-31G                selected for orbital group  1
 Library entry C      P 6-31G                selected for orbital group  1
 Library entry C      D 6-31G*               selected for orbital group  1
 Library entry H      S 6-31G                selected for orbital group  2


 PROGRAM * SEWARD (Integral evaluation for generally contracted gaussian basis sets)     Author: Roland Lindh, 1990

 Geometry written to block  1 of record 700


 Point group  C1  



 ATOMIC COORDINATES

 NR  ATOM    CHARGE       X              Y              Z

   1  C       6.00   -1.360602810    0.160626721    0.549910302
   2  C       6.00    1.377610345   -0.253223301   -0.663293870
   3  H       1.00   -2.220428196    2.192082304   -0.013228083
   4  H       1.00   -2.728764524   -1.243439790    0.109604115
   5  H       1.00    2.745772059    1.147063758   -0.219208230
   6  H       1.00    2.235546005   -2.288458337   -0.102045211

 Bond lengths in Bohr (Angstrom)

 1-2  3.023399987  1-3  2.276672204  1-4  2.009263243  2-5  2.007456694  2-6  2.278867110
     ( 1.599914373)     ( 1.204763047)     ( 1.063256319)     ( 1.062300334)     ( 1.205924542)

 Bond angles

  1-2-5  115.65827523   1-2-6  111.36971790   2-1-3  111.40311395   2-1-4  115.66514045

  3-1-4  108.18958248   5-2-6  108.17401753

 NUCLEAR CHARGE:                   16
 NUMBER OF PRIMITIVE AOS:          72
 NUMBER OF SYMMETRY AOS:           70
 NUMBER OF CONTRACTIONS:           36   (   36A   )
 NUMBER OF CORE ORBITALS:           2   (    2A   )
 NUMBER OF VALENCE ORBITALS:       12   (   12A   )


 NUCLEAR REPULSION ENERGY   29.96801841

 Eigenvalues of metric

         1 0.151E-01 0.323E-01 0.580E-01 0.589E-01 0.885E-01 0.235E+00 0.249E+00 0.304E+00


 Contracted 2-electron integrals neglected if value below      1.0D-11
 AO integral compression algorithm  1   Integral accuracy      1.0D-11

     1.311 MB (compressed) written to integral file ( 67.7%)


 NUMBER OF SORTED TWO-ELECTRON INTEGRALS:     222111.     BUFFER LENGTH:  32768
 NUMBER OF SEGMENTS:   1  SEGMENT LENGTH:     222111      RECORD LENGTH: 524288

 Memory used in sort:       0.78 MW

 SORT1 READ      284735. AND WROTE      212523. INTEGRALS IN      1 RECORDS. CPU TIME:     0.00 SEC, REAL TIME:     0.01 SEC
 SORT2 READ      212523. AND WROTE      222111. INTEGRALS IN      5 RECORDS. CPU TIME:     0.03 SEC, REAL TIME:     0.04 SEC

 FILE SIZES:   FILE 1:    31.4 MBYTE,  FILE 4:     4.2 MBYTE,   TOTAL:     35.6 MBYTE

 OPERATOR DM      FOR CENTER  0  COORDINATES:    0.000000    0.000000    0.000000


 **********************************************************************************************************************************
 DATASETS  * FILE   NREC   LENGTH (MB)   RECORD NAMES
              1      19       31.10       500      610      700      900      950      970     1000      129      960     1100   
                                          VAR    BASINP    GEOM    SYMINP    ZMAT    AOBASIS   BASIS     P2S    ABASIS      S 
                                         1400     1410     1200     1210     1080     1600     1650     1300     1700   
                                           T        V       H0       H01     AOSYM     SMH    MOLCAS    ERIS     OPER   

 PROGRAMS   *        TOTAL       INT
 CPU TIMES  *         0.38      0.23
 REAL TIME  *         0.54 SEC
 DISK USED  *        35.97 MB
 **********************************************************************************************************************************


 PROGRAM * RHF-SCF (CLOSED SHELL)       Authors: W. Meyer, H.-J. Werner


 NUMBER OF ELECTRONS:       8+    8-    SPACE SYMMETRY=1    SPIN SYMMETRY: Singlet 
 CONVERGENCE THRESHOLDS:    1.00E-05 (Density)    1.00E-07 (Energy)
 MAX. NUMBER OF ITERATIONS:       60
 INTERPOLATION TYPE:            DIIS
 INTERPOLATION STEPS:              2 (START)      1 (STEP)
 LEVEL SHIFTS:                  0.00 (CLOSED)  0.00 (OPEN) 



 Orbital guess generated from atomic densities. Full valence occupancy:    8

 Molecular orbital dump at record        2100.2

 Initial occupancy:   8

 ITERATION    DDIFF          GRAD             ENERGY        2-EL.EN.            DIPOLE MOMENTS         DIIS   ORB.
    1      0.000D+00      0.000D+00       -77.89391932    111.117250   -0.00096   -0.00084    0.00069    0    start
    2      0.000D+00      0.675D-02       -77.91289690    110.415655   -0.00036    0.00013    0.00024    1    diag
    3      0.677D-02      0.224D-02       -77.91545893    110.742288   -0.00097    0.00023    0.00082    2    diag
    4      0.310D-02      0.834D-03       -77.91599301    110.618557   -0.00050    0.00032    0.00036    3    diag
    5      0.148D-02      0.375D-03       -77.91620727    110.630094   -0.00117    0.00039    0.00101    4    diag
    6      0.128D-02      0.106D-03       -77.91622528    110.628094   -0.00005    0.00030   -0.00012    5    diag
    7      0.341D-03      0.256D-04       -77.91622585    110.628540   -0.00133    0.00039    0.00116    6    diag
    8      0.497D-04      0.141D-04       -77.91622593    110.628705   -0.00069    0.00035    0.00052    7    diag
    9      0.160D-04      0.279D-05       -77.91622594    110.628700   -0.00074    0.00035    0.00058    8    diag
   10      0.815D-05      0.562D-06       -77.91622594    110.628704   -0.00074    0.00035    0.00057    0    orth

 Final occupancy:   8

 !RHF STATE  1.1 Energy               -77.916225939829
 Nuclear energy                        29.96801841
 One-electron energy                 -163.19859652
 Two-electron energy                   55.31435218
 Virial quotient                       -1.00753039
 !RHF STATE  1.1 Dipole moment         -0.00073742     0.00034825     0.00057450
 Dipole moment /Debye                  -0.00187421     0.00088510     0.00146014

 ELECTRON ORBITALS
 =================

  Orbital  Occupation    Energy     Coefficients
    1.1     2.00000   -11.27879     1 1s    0.73759     2 1s    0.66978
    2.1     2.00000   -11.27829     1 1s    0.66988     2 1s   -0.73768
    3.1     2.00000    -0.96803     1 1s    0.28845     1 1s    0.26881     2 1s    0.28847     2 1s    0.26882
    4.1     2.00000    -0.80642     1 1s    0.26495     2 1s   -0.26477
    5.1     2.00000    -0.58863     1 2py   0.30727     2 2py   0.30657
    6.1     2.00000    -0.53320     1 2px   0.34439     2 2px  -0.34450
    7.1     2.00000    -0.48585     1 2py  -0.27531     2 2py   0.27606
    8.1     2.00000    -0.34574     1 2pz   0.31714     1 2pz   0.31179     2 2pz   0.31727     2 2pz   0.31188
    9.1     0.00000     0.07766     1 1s    0.32972     1 2pz   0.34829     1 2pz   0.49652     2 1s    0.32984     2 2pz  -0.34820
                                    2 2pz  -0.49631
   10.1     0.00000     0.25255     1 1s   -1.25738     1 2px   0.60974     1 2pz   0.40338     2 1s   -1.26915     2 2px  -0.60894
                                    2 2pz  -0.40654     3 1s    1.01915     4 1s    0.91331     5 1s    0.91046     6 1s    1.03648
   11.1     0.00000     0.26752     1 1s   -1.37128     1 2py  -0.39397     1 2pz   0.31303     2 1s    1.35189     2 2py  -0.39131
                                    2 2pz   0.30647     3 1s    1.24103     4 1s    0.34090     5 1s   -0.32772     6 1s   -1.22502
   12.1     0.00000     0.30381     1 1s    1.20190     1 2py  -0.68486     1 2pz  -0.26323     2 1s   -1.21231     2 2py  -0.68096
                                    2 2pz  -0.26832     3 1s    0.36082     4 1s   -1.44995     5 1s    1.45630     6 1s   -0.35187
   13.1     0.00000     0.33745     1 1s   -0.44234     1 2px   0.36816     1 2py   1.19945     2 1s   -0.44832     2 2px  -0.36825
                                    2 2py  -1.19977     3 1s   -0.89227     4 1s    1.46896     5 1s    1.47199     6 1s   -0.89116
   14.1     0.00000     0.39548     1 1s    0.94008     1 2px   0.28996     1 2px   1.60613     1 2pz  -0.52229     2 1s   -0.93903
                                    2 2px   0.29007     2 2px   1.60690     2 2pz  -0.52134     3 1s    0.25430     4 1s    0.71388
                                    5 1s   -0.71655     6 1s   -0.25299
   15.1     0.00000     0.72653     1 2py  -0.40007     1 2px   0.40723     1 2py   0.63141     2 2py  -0.39961     2 2px   0.41630
                                    2 2py   0.63134     3 1s   -0.29381     4 1s    0.41636     5 1s   -0.41724     6 1s    0.29325
   16.1     0.00000     0.75065     1 1s   -0.43022     1 2px  -0.60921     1 2px   0.98124     2 1s   -0.42985     2 2px   0.60757
                                    2 2px  -0.97766
   17.1     0.00000     0.80541     1 2pz   0.76316     1 2pz  -0.65085     2 2pz   0.76282     2 2pz  -0.65053
   18.1     0.00000     0.84744     1 1s    0.56225     1 2px  -0.64655     1 2px   1.25610     1 2py  -0.29819     1 2pz  -0.26024
                                    2 1s   -0.56509     2 2px  -0.65034     2 2px   1.26282     2 2py  -0.28459     3 1s    0.34369
                                    6 1s   -0.34134
   19.1     0.00000     0.84895     1 1s    0.31747     1 1s   -0.27205     1 2pz   0.73494     1 2px  -0.30938     1 2pz  -0.88942
                                    2 1s    0.31492     2 1s   -0.26370     2 2pz  -0.73749     2 2px   0.29176     2 2pz   0.89329
   20.1     0.00000     0.90146     1 1s    0.31174     1 2py   0.69702     1 2px  -0.38918     1 2py  -1.80150     2 1s    0.32227
                                    2 2py  -0.69892     2 2px   0.37751     2 2py   1.80414     3 1s    0.44375     4 1s   -0.64479
                                    5 1s   -0.64353     6 1s    0.44504
   21.1     0.00000     1.05130     1 1s    0.75237     1 1s   -1.24610     1 2px   0.35567     1 2pz   0.58073     2 1s    0.74948
                                    2 1s   -1.23954     2 2px  -0.35974     2 2pz  -0.57973     3 1s    0.60134     4 1s    0.37396
                                    4 1s    0.32374     5 1s    0.37312     5 1s    0.32804     6 1s    0.60234
   22.1     0.00000     1.08900     1 1s    0.30715     1 1s   -0.47274     1 2py   0.57584     1 2px   0.34771     1 2py  -0.85401
                                    2 1s   -0.34379     2 1s    0.53313     2 2py   0.58722     2 2px   0.36265     2 2py  -0.86052
                                    3 1s   -0.62625     3 1s    1.28117     4 1s   -0.26643     5 1s    0.25593     6 1s    0.64937
                                    6 1s   -1.32378
   23.1     0.00000     1.10453     1 1s   -0.86939     1 1s    1.45950     1 2py  -0.33468     1 2px  -0.38547     1 2pz  -0.27093
                                    2 1s   -0.85811     2 1s    1.44468     2 2py   0.31153     2 2px   0.37015     2 2pz   0.26907
                                    3 1s    0.61836     3 1s   -1.13306     6 1s    0.59288     6 1s   -1.08092
   24.1     0.00000     1.19759     1 1s   -0.30667     1 1s    0.31268     1 2px   0.48689     1 2py   0.35816     1 2px  -0.96853
                                    1 2py  -0.45631     2 1s    0.27090     2 1s   -0.25476     2 2px   0.47412     2 2py   0.34587
                                    2 2px  -0.95006     2 2py  -0.44604     4 1s    0.69666     4 1s   -1.34460     5 1s   -0.66745
                                    5 1s    1.29401
   25.1     0.00000     1.21785     1 1s   -0.81243     1 1s    1.34856     1 2px   0.30991     1 2py   0.28997     1 2px  -0.42998
                                    1 2py  -0.25104     2 1s   -0.81674     2 1s    1.34017     2 2px  -0.33082     2 2py  -0.30548
                                    2 2px   0.47552     2 2py   0.27041     4 1s    0.67690     4 1s   -1.17712     5 1s    0.70674
                                    5 1s   -1.23188
   26.1     0.00000     1.29690     1 1s    1.56310     1 1s   -4.05118     1 2px  -0.93850     1 2pz   0.76067     2 1s   -1.56749
                                    2 1s    4.05818     2 2px  -0.93680     2 2pz   0.76278     3 1s    0.30376     4 1s    0.61123
                                    5 1s   -0.61746     6 1s   -0.30322
   27.1     0.00000     1.78636     1 1s   -0.26018     1 1s    0.79109     1 3d1+  0.49381     1 3d2+  0.30454     2 1s    0.26035
                                    2 1s   -0.79112     2 3d1+ -0.49362     2 3d2+ -0.30463
   28.1     0.00000     1.85272     1 1s    0.27148     1 3d2-  0.29112     1 3d1- -0.55450     2 1s   -0.27351     2 3d2- -0.29132
                                    2 3d1-  0.55482
   29.1     0.00000     2.02010     1 1s    0.43303     1 1s   -0.56654     1 3d0   0.47316     1 3d1+  0.47331     2 1s    0.43343
                                    2 1s   -0.56757     2 3d0   0.47407     2 3d1+  0.47331
   30.1     0.00000     2.15474     1 1s   -0.28836     1 2px   0.43570     1 3d2+  0.66949     2 1s   -0.29253     2 2px  -0.43453
                                    2 3d2+  0.67050     3 1s    0.29098     4 1s    0.25453     5 1s    0.25426     6 1s    0.29276
   31.1     0.00000     2.21389     1 2py  -0.73789     1 3d1-  0.72904     2 2py   0.73734     2 3d1-  0.72856     4 1s   -0.26125
                                    5 1s   -0.26166
   32.1     0.00000     2.29669     1 1s   -0.40864     1 1s    1.34649     1 2pz  -0.28753     1 3d0  -0.63603     1 3d2+ -0.29046
                                    2 1s    0.40859     2 1s   -1.34464     2 2pz  -0.28635     2 3d0   0.63649     2 3d2+  0.28811
                                    3 1s   -0.42743     4 1s   -0.25551     5 1s    0.25436     6 1s    0.42616
   33.1     0.00000     2.45947     1 3d0   0.52902     1 3d2-  0.26862     1 3d1+ -0.51560     2 3d0   0.52432     2 3d2-  0.27783
                                    2 3d1+ -0.51497
   34.1     0.00000     2.52615     1 1s    0.46160     1 3d2-  0.60581     1 3d1-  0.42625     2 1s   -0.46303     2 3d2- -0.59783
                                    2 3d1- -0.42677     3 1s    0.27437     4 1s   -0.60475     5 1s    0.60534     6 1s   -0.26867
   35.1     0.00000     2.65327     1 3d2-  0.74617     2 3d2-  0.74824     4 1s   -0.56139     5 1s   -0.56546
   36.1     0.00000     2.87167     1 1s    1.48671     1 2px   0.26765     1 2px   0.87316     1 2pz  -0.36995     1 3d1+ -0.60705
                                    1 3d2+  0.66242     2 1s   -1.48660     2 2px   0.26777     2 2px   0.87341     2 2pz  -0.36986
                                    2 3d1+  0.60745     2 3d2+ -0.66202


 HOMO      8.1    -0.345739 =      -9.4080eV
 LUMO      9.1     0.077663 =       2.1133eV
 LUMO-HOMO         0.423402 =      11.5213eV


 **********************************************************************************************************************************
 DATASETS  * FILE   NREC   LENGTH (MB)   RECORD NAMES
              1      19       31.10       500      610      700      900      950      970     1000      129      960     1100   
                                          VAR    BASINP    GEOM    SYMINP    ZMAT    AOBASIS   BASIS     P2S    ABASIS      S 
                                         1400     1410     1200     1210     1080     1600     1650     1300     1700   
                                           T        V       H0       H01     AOSYM     SMH    MOLCAS    ERIS     OPER   

              2       4        2.86       700     1000      520     2100   
                                         GEOM     BASIS   MCVARS     RHF  

 PROGRAMS   *        TOTAL    HF-SCF       INT
 CPU TIMES  *         0.50      0.13      0.23
 REAL TIME  *         0.74 SEC
 DISK USED  *        35.97 MB
 **********************************************************************************************************************************


 PROGRAM * MULTI (Direct Multiconfiguration SCF)       Authors: P.J. Knowles, H.-J. Werner (1984)


 Number of closed-shell orbitals:   7 (   7 )
 Number of active  orbitals:        2 (   2 )
 Number of external orbitals:      27 (  27 )

 State symmetry 1

 Number of electrons:     2    Spin symmetry=Singlet   Space symmetry=1
 Number of states:        3
 Number of CSFs:          3   (4 determinants, 4 intermediate states)

 Molecular orbitals read from record     2100.2  Type=RHF/CANONICAL (state 1.1)

 Wavefunction dump at record             2140.2

 Convergence thresholds  0.10E-01 (gradient)  0.10E-05 (energy)  0.10E-02 (step length)

 Weight factors for state symmetry  1:    0.33333   0.33333   0.33333

 Number of orbital rotations:      257   (    14 Core/Active    189 Core/Virtual   0 Active/Active     54 Active/Virtual)
 Total number of variables:        269

 Micro-Iterations solved by the two-step solver

 ITER. MIC  NCI  NEG     ENERGY(VAR)     ENERGY(PROJ)   ENERGY CHANGE     GRAD(0)  GRAD(ORB)   GRAD(CI)     STEP       TIME

   1    8    5    0     -77.70735711     -77.71334057   -0.00598346    0.09986898 0.00028012 0.00000000  0.72D-01      0.16
   2    8    6    0     -77.71328641     -77.71328921   -0.00000281    0.00236883 0.00000001 0.00000000  0.22D-02      0.29
   3    8    5    0     -77.71328922     -77.71328922   -0.00000000    0.00000358 0.00000000 0.00000000  0.12D-04      0.41

 ** WVFN ****  CONVERGENCE REACHED, FINAL GRADIENT:  0.58D-10



 Results for state 1.1
 =====================

 !MCSCF STATE  1.1 Energy             -77.945863541306
 Nuclear energy                        29.96801841
 Kinetic energy                        77.38608842
 One electron energy                 -163.15269232
 Two electron energy                   55.23881037
 Virial ratio                           2.00723354

 !MCSCF STATE  1.1 Dipole moment       -0.00026560     0.00005487     0.00025626
 Dipole moment /Debye                  -0.00067504     0.00013945     0.00065131

 Results for state 2.1
 =====================

 !MCSCF STATE  2.1 Energy             -77.646025288050
 Nuclear energy                        29.96801841
 Kinetic energy                        77.53809257
 One electron energy                 -162.95181117
 Two electron energy                   55.33776748
 Virial ratio                           2.00139200

 !MCSCF STATE  2.1 Dipole moment       -0.00261194     0.00004606     0.00224878
 Dipole moment /Debye                  -0.00663844     0.00011707     0.00571545

 Results for state 3.1
 =====================

 !MCSCF STATE  3.1 Energy             -77.547978824814
 Nuclear energy                        29.96801841
 Kinetic energy                        77.69009673
 One electron energy                 -162.75093239
 Two electron energy                   55.23493516
 Virial ratio                           1.99817071

 !MCSCF STATE  3.1 Dipole moment        0.00310198    -0.00133811    -0.00152440
 Dipole moment /Debye                   0.00788392    -0.00340090    -0.00387438

 State-averaged charge density matrix saved on record  2140.2 (density set 1)

 !MCSCF expec         <1.1|DMX|1.1>    -0.000265597975 au =    -0.000675038502 Debye
 !MCSCF trans         <2.1|DMX|1.1>     1.177439116804 au =     2.992555710488 Debye
 !MCSCF expec         <2.1|DMX|2.1>    -0.002611935242 au =    -0.006638442373 Debye
 !MCSCF trans         <3.1|DMX|1.1>     0.000454788857 au =     0.001155882263 Debye
 !MCSCF trans         <3.1|DMX|2.1>     2.274401330267 au =     5.780572932981 Debye
 !MCSCF expec         <3.1|DMX|3.1>     0.003101977726 au =     0.007883924550 Debye

 !MCSCF expec         <1.1|DMY|1.1>     0.000054865942 au =     0.000139446180 Debye
 !MCSCF trans         <2.1|DMY|1.1>    -0.200913365366 au =    -0.510637391146 Debye
 !MCSCF expec         <2.1|DMY|2.1>     0.000046063240 au =     0.000117073410 Debye
 !MCSCF trans         <3.1|DMY|1.1>     0.000211672987 au =     0.000537983830 Debye
 !MCSCF trans         <3.1|DMY|2.1>    -0.388093911412 au =    -0.986371723365 Debye
 !MCSCF expec         <3.1|DMY|3.1>    -0.001338105793 au =    -0.003400902922 Debye

 !MCSCF expec         <1.1|DMZ|1.1>     0.000256259922 au =     0.000651305092 Debye
 !MCSCF trans         <2.1|DMZ|1.1>    -0.842250674637 au =    -2.140647469645 Debye
 !MCSCF expec         <2.1|DMZ|2.1>     0.002248776726 au =     0.005715445952 Debye
 !MCSCF trans         <3.1|DMZ|1.1>    -0.000547401447 au =    -0.001391264571 Debye
 !MCSCF trans         <3.1|DMZ|2.1>    -1.626934713031 au =    -4.134984727946 Debye
 !MCSCF expec         <3.1|DMZ|3.1>    -0.001524399613 au =    -0.003874383569 Debye


 NATURAL ORBITALS (state averaged)
 =================================

  Orbital  Occupation    Energy     Coefficients
    1.1     2.00000   -11.28283     1 1s    0.65031     2 1s    0.75481
    2.1     2.00000   -11.28244     1 1s    0.75486     2 1s   -0.65035
    3.1     2.00000    -0.97216     1 1s    0.29344     1 1s    0.27238     2 1s    0.29358     2 1s    0.27252
    4.1     2.00000    -0.81075     1 1s    0.29600     2 1s   -0.29571
    5.1     2.00000    -0.59504     1 2py   0.30845     2 2py   0.30804
    6.1     2.00000    -0.53876     1 2px   0.34702     2 2px  -0.34722
    7.1     2.00000    -0.48968     1 2py  -0.27897     2 2py   0.27952
    8.1     1.00000    -0.05345     1 1s    0.27743     1 2pz   0.37552     1 2pz   0.47882     2 1s    0.27748     2 2pz  -0.37551
                                    2 2pz  -0.47869
    9.1     1.00000    -0.21590     1 2pz   0.29417     1 2pz   0.31133     2 2pz   0.29434     2 2pz   0.31154
   10.1    -0.00000     0.24992     1 1s   -1.25598     1 2px   0.61559     1 2pz   0.39142     2 1s   -1.27814     2 2px  -0.61487
                                    2 2pz  -0.39697     3 1s    1.01642     4 1s    0.91072     5 1s    0.90834     6 1s    1.04574
   11.1    -0.00000     0.26277     1 1s   -1.32531     1 2py  -0.42628     1 2pz   0.30684     2 1s    1.29320     2 2py  -0.42180
                                    2 2pz   0.29652     3 1s    1.25614     4 1s    0.26605     6 1s   -1.23047
   12.1    -0.00000     0.29777     1 1s    1.27668     1 2py  -0.66411     1 2pz  -0.28723     2 1s   -1.28828     2 2py  -0.66113
                                    2 2pz  -0.29246     3 1s    0.30243     4 1s   -1.44641     5 1s    1.45476     6 1s   -0.29374
   13.1    -0.00000     0.33477     1 1s   -0.44872     1 2px   0.37028     1 2py   1.19391     2 1s   -0.45391     2 2px  -0.37064
                                    2 2py  -1.19328     3 1s   -0.88783     4 1s    1.47114     5 1s    1.47290     6 1s   -0.88573
   14.1    -0.00000     0.38770     1 1s    0.86666     1 2px   0.30251     1 2px   1.57620     1 2pz  -0.50719     2 1s   -0.86586
                                    2 2px   0.30255     2 2px   1.57686     2 2pz  -0.50608     3 1s    0.26856     4 1s    0.74756
                                    5 1s   -0.74981     6 1s   -0.26730
   15.1    -0.00000     0.71953     1 2py  -0.40648     1 2px   0.40971     1 2py   0.63042     2 2py  -0.40612     2 2px   0.41905
                                    2 2py   0.63086     3 1s   -0.28854     4 1s    0.41575     5 1s   -0.41660     6 1s    0.28818
   16.1    -0.00000     0.74393     1 1s   -0.36375     1 2px  -0.60736     1 2px   0.96069     2 1s   -0.36301     2 2px   0.60622
                                    2 2px  -0.95798
   17.1    -0.00000     0.79852     1 2pz   0.76647     1 2pz  -0.65465     2 2pz   0.76721     2 2pz  -0.65574
   18.1    -0.00000     0.83958     1 1s    0.64773     1 2px  -0.63950     1 2px   1.29029     1 2py  -0.30088     1 2pz  -0.28898
                                    2 1s   -0.64774     2 2px  -0.64002     2 2px   1.29236     2 2py  -0.28854     2 2pz  -0.28756
                                    3 1s    0.34178     6 1s   -0.34036
   19.1    -0.00000     0.84041     1 1s    0.30315     1 1s   -0.25565     1 2pz   0.73122     1 2px  -0.29750     1 2pz  -0.91163
                                    2 1s    0.30266     2 1s   -0.25439     2 2pz  -0.73058     2 2px   0.29479     2 2pz   0.91141
   20.1    -0.00000     0.89825     1 1s    0.32284     1 2py   0.69888     1 2px  -0.39891     1 2py  -1.80649     2 1s    0.33346
                                    2 2py  -0.70060     2 2px   0.38794     2 2py   1.80900     3 1s    0.45157     4 1s   -0.65839
                                    5 1s   -0.65756     6 1s    0.45312
   21.1    -0.00000     1.04613     1 1s    0.79111     1 1s   -1.32334     1 2px   0.39025     1 2pz   0.58372     2 1s    0.78812
                                    2 1s   -1.31705     2 2px  -0.39331     2 2pz  -0.58286     3 1s    0.58246     4 1s    0.37887
                                    4 1s    0.34254     5 1s    0.37806     5 1s    0.34707     6 1s    0.58413
   22.1    -0.00000     1.08419     1 1s    0.28612     1 1s   -0.42753     1 2py   0.58011     1 2px   0.33726     1 2py  -0.86771
                                    2 1s   -0.32585     2 1s    0.49357     2 2py   0.59251     2 2px   0.35415     2 2py  -0.87424
                                    3 1s   -0.62122     3 1s    1.27717     4 1s   -0.30652     5 1s    0.29523     6 1s    0.64711
                                    6 1s   -1.32413
   23.1    -0.00000     1.10102     1 1s   -0.83390     1 1s    1.40860     1 2py  -0.33240     1 2px  -0.38013     2 1s   -0.82262
                                    2 1s    1.39461     2 2py   0.30662     2 2px   0.36404     3 1s    0.64042     3 1s   -1.13076
                                    6 1s    0.61251     6 1s   -1.07369
   24.1    -0.00000     1.19329     1 2px   0.49249     1 2py   0.33867     1 2px  -1.01944     1 2py  -0.42578     2 2px   0.48105
                                    2 2py   0.32848     2 2px  -1.00305     2 2py  -0.41755     4 1s    0.69403     4 1s   -1.31269
                                    5 1s   -0.66844     5 1s    1.26857
   25.1    -0.00000     1.21491     1 1s   -0.81834     1 1s    1.36130     1 2px   0.31687     1 2py   0.28175     1 2px  -0.43536
                                    2 1s   -0.81786     2 1s    1.34288     2 2px  -0.33526     2 2py  -0.29481     2 2px   0.47810
                                    2 2py   0.25668     4 1s    0.67901     4 1s   -1.17827     5 1s    0.70521     5 1s   -1.22445
   26.1    -0.00000     1.28339     1 1s    1.57505     1 1s   -4.05422     1 2px  -0.88563     1 2pz   0.74477     2 1s   -1.57974
                                    2 1s    4.06179     2 2px  -0.88366     2 2pz   0.74696     3 1s    0.32035     4 1s    0.66249
                                    5 1s   -0.66951     6 1s   -0.31978
   27.1    -0.00000     1.77485     1 1s   -0.25853     1 1s    0.78358     1 3d1+  0.49354     1 3d2+  0.30662     2 1s    0.25864
                                    2 1s   -0.78345     2 3d1+ -0.49347     2 3d2+ -0.30679
   28.1    -0.00000     1.84190     1 1s    0.26390     1 3d2-  0.28870     1 3d1- -0.55580     2 1s   -0.26584     2 3d2- -0.28895
                                    2 3d1-  0.55625
   29.1    -0.00000     2.00941     1 1s    0.42825     1 1s   -0.55449     1 3d0   0.46956     1 3d1+  0.47661     2 1s    0.42881
                                    2 1s   -0.55614     2 3d0   0.47067     2 3d1+  0.47659
   30.1    -0.00000     2.14421     1 1s   -0.29406     1 2px   0.43788     1 3d2+  0.66996     2 1s   -0.29882     2 2px  -0.43664
                                    2 3d2+  0.67113     3 1s    0.29153     4 1s    0.25328     5 1s    0.25309     6 1s    0.29354
   31.1    -0.00000     2.20647     1 2py  -0.73873     1 3d1-  0.72923     2 2py   0.73825     2 3d1-  0.72878     3 1s    0.25003
                                    4 1s   -0.26126     5 1s   -0.26160
   32.1    -0.00000     2.28616     1 1s   -0.41211     1 1s    1.35834     1 2pz  -0.29074     1 3d0  -0.63591     1 3d2+ -0.28857
                                    2 1s    0.41201     2 1s   -1.35628     2 2px   0.25186     2 2pz  -0.28940     2 3d0   0.63642
                                    2 3d2+  0.28593     3 1s   -0.43063     4 1s   -0.25595     5 1s    0.25480     6 1s    0.42916
   33.1    -0.00000     2.44615     1 3d0   0.53305     1 3d2-  0.26455     1 3d1+ -0.51432     2 3d0   0.52798     2 3d2-  0.27389
                                    2 3d1+ -0.51367
   34.1    -0.00000     2.51486     1 1s    0.46536     1 3d2-  0.60568     1 3d1-  0.42428     2 1s   -0.46692     2 3d2- -0.59820
                                    2 3d1- -0.42475     3 1s    0.27485     4 1s   -0.60770     5 1s    0.60877     6 1s   -0.26914
   35.1    -0.00000     2.64464     1 3d2-  0.74746     2 3d2-  0.74911     3 1s    0.25032     4 1s   -0.56315     5 1s   -0.56684
                                    6 1s    0.25047
   36.1    -0.00000     2.86322     1 1s    1.49249     1 2px   0.26273     1 2px   0.87764     1 2pz  -0.37231     1 3d1+ -0.60768
                                    1 3d2+  0.66290     2 1s   -1.49235     2 2px   0.26287     2 2px   0.87788     2 2pz  -0.37222
                                    2 3d1+  0.60807     2 3d2+ -0.66245


 Natural orbital dump (state averaged) at molpro section  2140.2    (Orbital set 2)



 **********************************************************************************************************************************
 DATASETS  * FILE   NREC   LENGTH (MB)   RECORD NAMES
              1      20       31.83       500      610      700      900      950      970     1000      129      960     1100   
                                          VAR    BASINP    GEOM    SYMINP    ZMAT    AOBASIS   BASIS     P2S    ABASIS      S 
                                         1400     1410     1200     1210     1080     1600     1650     1300     1700     1380   
                                           T        V       H0       H01     AOSYM     SMH    MOLCAS    ERIS     OPER     JKOP   

              2       5        5.42       700     1000      520     2100     2140   
                                         GEOM     BASIS   MCVARS     RHF     MCSCF   

 PROGRAMS   *        TOTAL     MULTI    HF-SCF       INT
 CPU TIMES  *         0.96      0.45      0.13      0.23
 REAL TIME  *         1.24 SEC
 DISK USED  *        39.02 MB
 **********************************************************************************************************************************
 Molecular orbitals read from record     2140.2  Type=MCSCF/NATURAL (state averaged)
 Occupation numbers read from record     2140.2  Type=MCSCF/NATURAL (state averaged)
 Orbital energies read from record       2140.2  Type=MCSCF/NATURAL (state averaged)
 Redundancy group numbers read from rec  2140.2  Type=MCSCF/NATURAL (state averaged)

 MULTI/6-31G* energy=    -77.547978824814

           MULTI          HF-SCF
    -77.54797882    -77.91622594
 **********************************************************************************************************************************
 Molpro calculation terminated
