
 Primary working directories    : /scratch.local/johan406.molpro_temp/molpro.qqxWnEyQTc
 Secondary working directories  : /scratch.local/johan406.molpro_temp/molpro.qqxWnEyQTc
 Wavefunction directory         : /home/goodpast/johan406/wfu/
 Main file repository           : /scratch.local/johan406.molpro_temp/molpro.qqxWnEyQTc/

 id        : roweumn

 Nodes     nprocs
 acn06        1

 Using customized tuning parameters: mindgm=1; mindgv=20; mindgc=4; mindgr=1; noblas=0; minvec=7
 default implementation of scratch files=df  


 Variables initialized (934), CPU time= 0.00 sec
                                                                                 !leave this line blank
 
 gprint, orbitals=30
 memory, 125., m
 symmetry, nosym
 nelect=16
 basis=6-31g*
 
 geometry={
 C -0.719 0.087 0.291
 C 0.728 -0.137 -0.351
 H -1.185 1.159 -0.002
 H -1.442 -0.664 0.053
 H 1.451 0.613 -0.111
 H 1.192 -1.210 -0.059
 }
 
 hf
 {multi,
 closed 7
 occ 9
 wf,spin=0;STATE,3
 }
 
 Commands  initialized (763), CPU time= 0.01 sec, 617 directives.
 Default parameters read. Elapsed time= 0.05 sec

 Checking input...
 Passed
1


                                         ***  PROGRAM SYSTEM MOLPRO  ***
                                       Copyright, TTI GmbH Stuttgart, 2015
                                    Version 2019.2 linked Oct 25 2019 22:50:27


 **********************************************************************************************************************************
 LABEL *                                                                                 
  64 bit serial version                                                                  DATE: 15-Mar-23          TIME: 16:48:11  
 **********************************************************************************************************************************

 SHA1:             8dbd9ae1082e4ce945b0f27595c9eb2d4aa09004
 **********************************************************************************************************************************


 Variable memory set to  125000000 words,  buffer space 

 SETTING NELECT         =        16.00000000                                  
 SETTING BASIS          =    6-31G*
 ZSYMEL=NOSYM


Geometry recognized as XYZ



 Recomputing integrals since basis changed


 Using spherical harmonics

 Library entry C      S 6-31G                selected for orbital group  1
 Library entry C      P 6-31G                selected for orbital group  1
 Library entry C      D 6-31G*               selected for orbital group  1
 Library entry H      S 6-31G                selected for orbital group  2


 PROGRAM * SEWARD (Integral evaluation for generally contracted gaussian basis sets)     Author: Roland Lindh, 1990

 Geometry written to block  1 of record 700


 Point group  C1  



 ATOMIC COORDINATES

 NR  ATOM    CHARGE       X              Y              Z

   1  C       6.00   -1.358713084    0.164406173    0.549910302
   2  C       6.00    1.375720619   -0.258892479   -0.663293870
   3  H       1.00   -2.239325458    2.190192578   -0.003779452
   4  H       1.00   -2.724985072   -1.254778147    0.100155485
   5  H       1.00    2.741992607    1.158402114   -0.209759600
   6  H       1.00    2.252553540   -2.286568611   -0.111493841

 Bond lengths in Bohr (Angstrom)

 1-2  3.021286776  1-3  2.277248572  1-4  2.020658970  2-5  2.020177330  2-6  2.277013337
     ( 1.598796110)     ( 1.205068048)     ( 1.069286678)     ( 1.069031805)     ( 1.204943567)

 Bond angles

  1-2-5  115.06575035   1-2-6  112.08444361   2-1-3  112.14714090   2-1-4  115.09858650

  3-1-4  108.01085032   5-2-6  108.05361037

 NUCLEAR CHARGE:                   16
 NUMBER OF PRIMITIVE AOS:          72
 NUMBER OF SYMMETRY AOS:           70
 NUMBER OF CONTRACTIONS:           36   (   36A   )
 NUMBER OF CORE ORBITALS:           2   (    2A   )
 NUMBER OF VALENCE ORBITALS:       12   (   12A   )


 NUCLEAR REPULSION ENERGY   29.93343910

 Eigenvalues of metric

         1 0.151E-01 0.329E-01 0.577E-01 0.597E-01 0.886E-01 0.236E+00 0.249E+00 0.306E+00


 Contracted 2-electron integrals neglected if value below      1.0D-11
 AO integral compression algorithm  1   Integral accuracy      1.0D-11

     1.311 MB (compressed) written to integral file ( 67.7%)


 NUMBER OF SORTED TWO-ELECTRON INTEGRALS:     222111.     BUFFER LENGTH:  32768
 NUMBER OF SEGMENTS:   1  SEGMENT LENGTH:     222111      RECORD LENGTH: 524288

 Memory used in sort:       0.78 MW

 SORT1 READ      284735. AND WROTE      212523. INTEGRALS IN      1 RECORDS. CPU TIME:     0.00 SEC, REAL TIME:     0.01 SEC
 SORT2 READ      212523. AND WROTE      222111. INTEGRALS IN      5 RECORDS. CPU TIME:     0.03 SEC, REAL TIME:     0.03 SEC

 FILE SIZES:   FILE 1:    31.4 MBYTE,  FILE 4:     4.2 MBYTE,   TOTAL:     35.6 MBYTE

 OPERATOR DM      FOR CENTER  0  COORDINATES:    0.000000    0.000000    0.000000


 **********************************************************************************************************************************
 DATASETS  * FILE   NREC   LENGTH (MB)   RECORD NAMES
              1      19       31.10       500      610      700      900      950      970     1000      129      960     1100   
                                          VAR    BASINP    GEOM    SYMINP    ZMAT    AOBASIS   BASIS     P2S    ABASIS      S 
                                         1400     1410     1200     1210     1080     1600     1650     1300     1700   
                                           T        V       H0       H01     AOSYM     SMH    MOLCAS    ERIS     OPER   

 PROGRAMS   *        TOTAL       INT
 CPU TIMES  *         0.28      0.17
 REAL TIME  *         0.41 SEC
 DISK USED  *        35.97 MB
 **********************************************************************************************************************************


 PROGRAM * RHF-SCF (CLOSED SHELL)       Authors: W. Meyer, H.-J. Werner


 NUMBER OF ELECTRONS:       8+    8-    SPACE SYMMETRY=1    SPIN SYMMETRY: Singlet 
 CONVERGENCE THRESHOLDS:    1.00E-05 (Density)    1.00E-07 (Energy)
 MAX. NUMBER OF ITERATIONS:       60
 INTERPOLATION TYPE:            DIIS
 INTERPOLATION STEPS:              2 (START)      1 (STEP)
 LEVEL SHIFTS:                  0.00 (CLOSED)  0.00 (OPEN) 



 Orbital guess generated from atomic densities. Full valence occupancy:    8

 Molecular orbital dump at record        2100.2

 Initial occupancy:   8

 ITERATION    DDIFF          GRAD             ENERGY        2-EL.EN.            DIPOLE MOMENTS         DIIS   ORB.
    1      0.000D+00      0.000D+00       -77.89477854    111.058678   -0.00114   -0.00039    0.00074    0    start
    2      0.000D+00      0.673D-02       -77.91367548    110.358581   -0.00029   -0.00024    0.00021    1    diag
    3      0.674D-02      0.223D-02       -77.91622108    110.685915   -0.00086   -0.00022    0.00079    2    diag
    4      0.309D-02      0.832D-03       -77.91675126    110.561697   -0.00035   -0.00025    0.00032    3    diag
    5      0.147D-02      0.373D-03       -77.91696272    110.573315   -0.00099   -0.00019    0.00096    4    diag
    6      0.127D-02      0.106D-03       -77.91698055    110.571257    0.00011   -0.00029   -0.00015    5    diag
    7      0.340D-03      0.254D-04       -77.91698112    110.571700   -0.00115   -0.00018    0.00112    6    diag
    8      0.495D-04      0.139D-04       -77.91698120    110.571863   -0.00052   -0.00024    0.00048    7    diag
    9      0.157D-04      0.268D-05       -77.91698120    110.571858   -0.00057   -0.00023    0.00053    8    diag
   10      0.805D-05      0.503D-06       -77.91698120    110.571862   -0.00057   -0.00023    0.00053    0    orth

 Final occupancy:   8

 !RHF STATE  1.1 Energy               -77.916981203818
 Nuclear energy                        29.93343910
 One-electron energy                 -163.13635139
 Two-electron energy                   55.28593109
 Virial quotient                       -1.00776669
 !RHF STATE  1.1 Dipole moment         -0.00057099    -0.00023196     0.00053099
 Dipole moment /Debye                  -0.00145122    -0.00058953     0.00134955

 ELECTRON ORBITALS
 =================

  Orbital  Occupation    Energy     Coefficients
    1.1     2.00000   -11.27935     1 1s    0.75883     2 1s    0.64562
    2.1     2.00000   -11.27885     1 1s    0.64572     2 1s   -0.75892
    3.1     2.00000    -0.96749     1 1s    0.28846     1 1s    0.26931     2 1s    0.28850     2 1s    0.26936
    4.1     2.00000    -0.80459     1 1s    0.26640     2 1s   -0.26627
    5.1     2.00000    -0.58804     1 2py   0.30678     2 2py   0.30707
    6.1     2.00000    -0.53010     1 2px  -0.34944     2 2px   0.34958
    7.1     2.00000    -0.48789     1 2py   0.27950     2 2py  -0.27939
    8.1     2.00000    -0.34594     1 2pz   0.31717     1 2pz   0.31160     2 2pz   0.31729     2 2pz   0.31170
    9.1     0.00000     0.07769     1 1s    0.33126     1 2pz   0.34811     1 2pz   0.49600     2 1s    0.33106     2 2pz  -0.34804
                                    2 2pz  -0.49589
   10.1     0.00000     0.25273     1 1s   -1.26277     1 2px   0.61530     1 2pz   0.40663     2 1s   -1.26215     2 2px  -0.61414
                                    2 2pz  -0.40696     3 1s    1.01981     4 1s    0.92218     5 1s    0.91874     6 1s    1.02219
   11.1     0.00000     0.26603     1 1s   -1.35565     1 2py  -0.39046     1 2pz   0.30824     2 1s    1.35505     2 2py  -0.38862
                                    2 2pz   0.30703     3 1s    1.22973     4 1s    0.32485     5 1s   -0.32632     6 1s   -1.22698
   12.1     0.00000     0.30349     1 1s    1.19106     1 2py  -0.68259     1 2pz  -0.26191     2 1s   -1.19534     2 2py  -0.68097
                                    2 2pz  -0.26531     3 1s    0.35012     4 1s   -1.45330     5 1s    1.45640     6 1s   -0.34637
   13.1     0.00000     0.33688     1 1s   -0.40946     1 2px   0.34887     1 2py   1.19980     2 1s   -0.40641     2 2px  -0.35073
                                    2 2py  -1.20108     3 1s   -0.90777     4 1s    1.43772     5 1s    1.43834     6 1s   -0.91104
   14.1     0.00000     0.39553     1 1s    0.96273     1 2px   0.28937     1 2px   1.60513     1 2pz  -0.52619     2 1s   -0.96334
                                    2 2px   0.28929     2 2px   1.60488     2 2pz  -0.52556     3 1s    0.27695     4 1s    0.67625
                                    5 1s   -0.67500     6 1s   -0.27692
   15.1     0.00000     0.72861     1 2py  -0.40640     1 2px   0.36470     1 2py   0.63676     2 2py  -0.40657     2 2px   0.36395
                                    2 2py   0.63738     3 1s   -0.30429     4 1s    0.41179     5 1s   -0.41123     6 1s    0.30470
   16.1     0.00000     0.75028     1 1s    0.42090     1 2px   0.60980     1 2px  -0.97837     2 1s    0.42214     2 2px  -0.61116
                                    2 2px   0.97908
   17.1     0.00000     0.80536     1 2pz   0.76226     1 2pz  -0.64847     2 2pz   0.76257     2 2pz  -0.64881
   18.1     0.00000     0.84705     1 1s    0.55958     1 2px  -0.64726     1 2px   1.26217     1 2py  -0.27281     1 2pz  -0.28211
                                    2 1s   -0.57447     2 2px  -0.65848     2 2px   1.27704     2 2py  -0.26977     3 1s    0.33829
                                    6 1s   -0.33412
   19.1     0.00000     0.84875     1 1s    0.32152     1 1s   -0.28196     1 2pz   0.73115     1 2px  -0.33937     1 2pz  -0.88395
                                    2 1s    0.31133     2 1s   -0.25016     2 2pz  -0.74037     2 2px   0.27008     2 2pz   0.89818
   20.1     0.00000     0.90254     1 1s    0.30042     1 2py   0.70151     1 2px  -0.35095     1 2py  -1.80119     2 1s    0.30333
                                    2 2py  -0.70193     2 2px   0.34729     2 2py   1.80205     3 1s    0.45516     4 1s   -0.62744
                                    5 1s   -0.62649     6 1s    0.45570
   21.1     0.00000     1.05172     1 1s    0.73916     1 1s   -1.21980     1 2px   0.35547     1 2pz   0.57907     2 1s    0.73866
                                    2 1s   -1.22018     2 2px  -0.35649     2 2pz  -0.57949     3 1s    0.60889     4 1s    0.37403
                                    4 1s    0.30359     5 1s    0.37427     5 1s    0.30388     6 1s    0.60691
   22.1     0.00000     1.08895     1 1s    0.32525     1 1s   -0.49854     1 2py   0.58455     1 2px   0.35985     1 2py  -0.86036
                                    2 1s   -0.31900     2 1s    0.48783     2 2py   0.58224     2 2px   0.35590     2 2py  -0.85842
                                    3 1s   -0.63721     3 1s    1.30312     4 1s   -0.27050     5 1s    0.27109     6 1s    0.63492
                                    6 1s   -1.29615
   23.1     0.00000     1.10470     1 1s   -0.86659     1 1s    1.44654     1 2py  -0.32115     1 2px  -0.37566     1 2pz  -0.27178
                                    2 1s   -0.86888     2 1s    1.45116     2 2py   0.32526     2 2px   0.37602     2 2pz   0.27235
                                    3 1s    0.60016     3 1s   -1.10310     6 1s    0.60420     6 1s   -1.11107
   24.1     0.00000     1.19184     1 1s   -0.31093     1 1s    0.33780     1 2px   0.47934     1 2py   0.35067     1 2px  -0.94697
                                    1 2py  -0.44832     2 1s    0.30252     2 1s   -0.32436     2 2px   0.47648     2 2py   0.34686
                                    2 2px  -0.94298     2 2py  -0.44501     4 1s    0.68509     4 1s   -1.32675     5 1s   -0.67745
                                    5 1s    1.31411
   25.1     0.00000     1.21156     1 1s   -0.81842     1 1s    1.35347     1 2px   0.31552     1 2py   0.29063     1 2px  -0.44804
                                    2 1s   -0.81800     2 1s    1.34811     2 2px  -0.32072     2 2py  -0.29483     2 2px   0.46002
                                    2 2py   0.25333     4 1s    0.68481     4 1s   -1.19372     5 1s    0.69257     5 1s   -1.20764
   26.1     0.00000     1.29665     1 1s    1.56059     1 1s   -4.04616     1 2px  -0.94634     1 2pz   0.76160     2 1s   -1.56315
                                    2 1s    4.04991     2 2px  -0.94660     2 2pz   0.76290     3 1s    0.29857     4 1s    0.59618
                                    5 1s   -0.59819     6 1s   -0.29949
   27.1     0.00000     1.78899     1 1s   -0.26634     1 1s    0.81014     1 3d1+  0.49769     1 3d2+  0.31652     2 1s    0.26632
                                    2 1s   -0.80970     2 3d1+ -0.49746     2 3d2+ -0.31649
   28.1     0.00000     1.85005     1 3d2-  0.30431     1 3d1- -0.55671     2 3d2- -0.30488     2 3d1-  0.55686
   29.1     0.00000     2.02013     1 1s    0.43177     1 1s   -0.56699     1 3d0   0.47457     1 3d1+  0.47325     2 1s    0.43209
                                    2 1s   -0.56820     2 3d0   0.47480     2 3d1+  0.47322
   30.1     0.00000     2.15521     1 1s   -0.27126     1 2px   0.41893     1 3d2+  0.66407     2 1s   -0.27055     2 2px  -0.41761
                                    2 3d2+  0.66353     3 1s    0.30946     6 1s    0.30934
   31.1     0.00000     2.21376     1 2py  -0.72947     1 3d1-  0.72750     2 2py   0.72913     2 3d1-  0.72588     4 1s   -0.26807
                                    4 1s   -0.26597     5 1s   -0.26900     5 1s   -0.26684
   32.1     0.00000     2.29409     1 1s   -0.40725     1 1s    1.33216     1 2pz  -0.28342     1 3d0  -0.63482     1 3d2+ -0.29123
                                    2 1s    0.40692     2 1s   -1.33194     2 2pz  -0.28341     2 3d0   0.63581     2 3d2+  0.29202
                                    3 1s   -0.42470     4 1s   -0.25118     5 1s    0.25046     6 1s    0.42684
   33.1     0.00000     2.46313     1 3d0   0.53420     1 3d1+ -0.51997     2 3d0   0.53185     2 3d2-  0.25565     2 3d1+ -0.51939
   34.1     0.00000     2.52199     1 1s    0.49647     1 3d2-  0.59952     1 3d1-  0.42843     2 1s   -0.49725     2 3d2- -0.59588
                                    2 3d1- -0.43026     3 1s    0.27137     4 1s   -0.59728     5 1s    0.59875     6 1s   -0.26950
   35.1     0.00000     2.64452     1 3d2-  0.75223     2 3d2-  0.75230     3 1s    0.25939     4 1s   -0.54777     5 1s   -0.54811
                                    6 1s    0.26005
   36.1     0.00000     2.87287     1 1s    1.48589     1 2px   0.26862     1 2px   0.87197     1 2pz  -0.36974     1 3d1+ -0.60754
                                    1 3d2+  0.66057     2 1s   -1.48617     2 2px   0.26865     2 2px   0.87200     2 2pz  -0.36969
                                    2 3d1+  0.60782     2 3d2+ -0.66060


 HOMO      8.1    -0.345937 =      -9.4134eV
 LUMO      9.1     0.077689 =       2.1140eV
 LUMO-HOMO         0.423626 =      11.5275eV


 **********************************************************************************************************************************
 DATASETS  * FILE   NREC   LENGTH (MB)   RECORD NAMES
              1      19       31.10       500      610      700      900      950      970     1000      129      960     1100   
                                          VAR    BASINP    GEOM    SYMINP    ZMAT    AOBASIS   BASIS     P2S    ABASIS      S 
                                         1400     1410     1200     1210     1080     1600     1650     1300     1700   
                                           T        V       H0       H01     AOSYM     SMH    MOLCAS    ERIS     OPER   

              2       4        2.86       700     1000      520     2100   
                                         GEOM     BASIS   MCVARS     RHF  

 PROGRAMS   *        TOTAL    HF-SCF       INT
 CPU TIMES  *         0.38      0.10      0.17
 REAL TIME  *         0.54 SEC
 DISK USED  *        35.97 MB
 **********************************************************************************************************************************


 PROGRAM * MULTI (Direct Multiconfiguration SCF)       Authors: P.J. Knowles, H.-J. Werner (1984)


 Number of closed-shell orbitals:   7 (   7 )
 Number of active  orbitals:        2 (   2 )
 Number of external orbitals:      27 (  27 )

 State symmetry 1

 Number of electrons:     2    Spin symmetry=Singlet   Space symmetry=1
 Number of states:        3
 Number of CSFs:          3   (4 determinants, 4 intermediate states)

 Molecular orbitals read from record     2100.2  Type=RHF/CANONICAL (state 1.1)

 Wavefunction dump at record             2140.2

 Convergence thresholds  0.10E-01 (gradient)  0.10E-05 (energy)  0.10E-02 (step length)

 Weight factors for state symmetry  1:    0.33333   0.33333   0.33333

 Number of orbital rotations:      257   (    14 Core/Active    189 Core/Virtual   0 Active/Active     54 Active/Virtual)
 Total number of variables:        269

 Micro-Iterations solved by the two-step solver

 ITER. MIC  NCI  NEG     ENERGY(VAR)     ENERGY(PROJ)   ENERGY CHANGE     GRAD(0)  GRAD(ORB)   GRAD(CI)     STEP       TIME

   1    7    5    0     -77.70794962     -77.71394105   -0.00599143    0.10005731 0.00027143 0.00000000  0.72D-01      0.11
   2    7    5    0     -77.71388688     -77.71388932   -0.00000244    0.00233810 0.00000096 0.00000000  0.16D-02      0.21
   3    5    4    0     -77.71388933     -77.71388933   -0.00000000    0.00000194 0.00000000 0.00000000  0.57D-05      0.28

 ** WVFN ****  CONVERGENCE REACHED, FINAL GRADIENT:  0.35D-10



 Results for state 1.1
 =====================

 !MCSCF STATE  1.1 Energy             -77.946555870867
 Nuclear energy                        29.93343910
 Kinetic energy                        77.36878769
 One electron energy                 -163.09159138
 Two electron energy                   55.21159641
 Virial ratio                           2.00746772

 !MCSCF STATE  1.1 Dipole moment       -0.00003736    -0.00049111     0.00020988
 Dipole moment /Debye                  -0.00009496    -0.00124820     0.00053342

 Results for state 2.1
 =====================

 !MCSCF STATE  2.1 Energy             -77.646694139257
 Nuclear energy                        29.93343910
 Kinetic energy                        77.52094808
 One electron energy                 -162.88879668
 Two electron energy                   55.30866344
 Virial ratio                           2.00162209

 !MCSCF STATE  2.1 Dipole moment       -0.00283960    -0.00058360     0.00238953
 Dipole moment /Debye                  -0.00721707    -0.00148328     0.00607319

 Results for state 3.1
 =====================

 !MCSCF STATE  3.1 Energy             -77.548417967429
 Nuclear energy                        29.93343910
 Kinetic energy                        77.67310875
 One electron energy                 -162.68600462
 Two electron energy                   55.20414755
 Virial ratio                           1.99839467

 !MCSCF STATE  3.1 Dipole moment        0.00361472    -0.00228299    -0.00205071
 Dipole moment /Debye                   0.00918710    -0.00580240    -0.00521205

 State-averaged charge density matrix saved on record  2140.2 (density set 1)

 !MCSCF expec         <1.1|DMX|1.1>    -0.000037364358 au =    -0.000094964506 Debye
 !MCSCF trans         <2.1|DMX|1.1>     1.177831074186 au =     2.993551901530 Debye
 !MCSCF expec         <2.1|DMX|2.1>    -0.002839598681 au =    -0.007217067215 Debye
 !MCSCF trans         <3.1|DMX|1.1>     0.000599731307 au =     0.001524265096 Debye
 !MCSCF trans         <3.1|DMX|2.1>     2.272511766525 au =     5.775770455564 Debye
 !MCSCF expec         <3.1|DMX|3.1>     0.003614720047 au =     0.009187100178 Debye

 !MCSCF expec         <1.1|DMY|1.1>    -0.000491112299 au =    -0.001248201198 Debye
 !MCSCF trans         <2.1|DMY|1.1>    -0.204466341595 au =    -0.519667564470 Debye
 !MCSCF expec         <2.1|DMY|2.1>    -0.000583603632 au =    -0.001483275318 Debye
 !MCSCF trans         <3.1|DMY|1.1>     0.000304367942 au =     0.000773575474 Debye
 !MCSCF trans         <3.1|DMY|2.1>    -0.394497211192 au =    -1.002646222021 Debye
 !MCSCF expec         <3.1|DMY|3.1>    -0.002282989255 au =    -0.005802399830 Debye

 !MCSCF expec         <1.1|DMZ|1.1>     0.000209878781 au =     0.000533423711 Debye
 !MCSCF trans         <2.1|DMZ|1.1>    -0.842335201163 au =    -2.140862300573 Debye
 !MCSCF expec         <2.1|DMZ|2.1>     0.002389532453 au =     0.006073187892 Debye
 !MCSCF trans         <3.1|DMZ|1.1>    -0.000552807593 au =    -0.001405004721 Debye
 !MCSCF trans         <3.1|DMZ|2.1>    -1.625205031121 au =    -4.130588602997 Debye
 !MCSCF expec         <3.1|DMZ|3.1>    -0.002050711848 au =    -0.005212048218 Debye


 NATURAL ORBITALS (state averaged)
 =================================

  Orbital  Occupation    Energy     Coefficients
    1.1     2.00000   -11.28344     1 1s    0.67052     2 1s    0.73691
    2.1     2.00000   -11.28305     1 1s    0.73696     2 1s   -0.67057
    3.1     2.00000    -0.97172     1 1s    0.29348     1 1s    0.27290     2 1s    0.29363     2 1s    0.27306
    4.1     2.00000    -0.80898     1 1s    0.29760     2 1s   -0.29737
    5.1     2.00000    -0.59447     1 2py   0.30798     2 2py   0.30856
    6.1     2.00000    -0.53578     1 2px  -0.35195     2 2px   0.35210
    7.1     2.00000    -0.49164     1 2py   0.28330     2 2py  -0.28296
    8.1     1.00000    -0.05341     1 1s    0.27915     1 2pz   0.37535     1 2pz   0.47835     2 1s    0.27867     2 2pz  -0.37542
                                    2 2pz  -0.47839
    9.1     1.00000    -0.21607     1 2pz   0.29422     1 2pz   0.31122     2 2pz   0.29437     2 2pz   0.31142
   10.1    -0.00000     0.25011     1 1s   -1.26279     1 2px   0.62142     1 2pz   0.39480     2 1s   -1.27088     2 2px  -0.62048
                                    2 2pz  -0.39709     3 1s    1.01791     4 1s    0.92045     5 1s    0.91812     6 1s    1.02966
   11.1    -0.00000     0.26124     1 1s   -1.30995     1 2py  -0.42145     1 2pz   0.30205     2 1s    1.29950     2 2py  -0.41868
                                    2 2pz   0.29767     3 1s    1.24265     4 1s    0.25120     6 1s   -1.23275
   12.1    -0.00000     0.29746     1 1s    1.26460     1 2py  -0.66251     1 2pz  -0.28510     2 1s   -1.27001     2 2py  -0.66210
                                    2 2pz  -0.28866     3 1s    0.29326     4 1s   -1.45032     5 1s    1.45558     6 1s   -0.29001
   13.1    -0.00000     0.33414     1 1s   -0.41464     1 2px   0.35023     1 2py   1.19443     2 1s   -0.41071     2 2px  -0.35273
                                    2 2py  -1.19466     3 1s   -0.90427     4 1s    1.43900     5 1s    1.43850     6 1s   -0.90629
   14.1    -0.00000     0.38770     1 1s    0.89076     1 2px   0.30218     1 2px   1.57538     1 2pz  -0.51138     2 1s   -0.89181
                                    2 2px   0.30201     2 2px   1.57491     2 2pz  -0.51050     3 1s    0.29105     4 1s    0.70886
                                    5 1s   -0.70681     6 1s   -0.29126
   15.1    -0.00000     0.72159     1 2py  -0.41268     1 2px   0.36754     1 2py   0.63575     2 2py  -0.41292     2 2px   0.36775
                                    2 2py   0.63695     3 1s   -0.29881     4 1s    0.41121     5 1s   -0.41078     6 1s    0.29932
   16.1    -0.00000     0.74348     1 1s    0.35496     1 2px   0.60784     1 2px  -0.95776     2 1s    0.35545     2 2px  -0.60968
                                    2 2px   0.95939
   17.1    -0.00000     0.79841     1 2pz   0.76535     1 2pz  -0.65187     2 2pz   0.76704     2 2pz  -0.65408
   18.1    -0.00000     0.83922     1 1s    0.64308     1 2px  -0.63726     1 2px   1.29219     1 2py  -0.27700     1 2pz  -0.32247
                                    2 1s   -0.66044     2 2px  -0.65020     2 2px   1.30949     2 2py  -0.27506     2 2pz  -0.26205
                                    3 1s    0.33722     6 1s   -0.33259
   19.1    -0.00000     0.84021     1 1s    0.30965     1 1s   -0.27533     1 2pz   0.72477     1 2px  -0.34301     1 2pz  -0.90195
                                    2 1s    0.29658     2 2pz  -0.73578     2 2px   0.25639     2 2pz   0.92012
   20.1    -0.00000     0.89923     1 1s    0.31341     1 2py   0.70308     1 2px  -0.36305     1 2py  -1.80589     2 1s    0.31623
                                    2 2py  -0.70346     2 2px   0.35962     2 2py   1.80674     3 1s    0.46214     4 1s   -0.64199
                                    5 1s   -0.64129     6 1s    0.46304
   21.1    -0.00000     1.04663     1 1s    0.77886     1 1s   -1.29801     1 2px   0.39019     1 2pz   0.58220     2 1s    0.77800
                                    2 1s   -1.29833     2 2px  -0.38977     2 2pz  -0.58276     3 1s    0.58935     4 1s    0.37899
                                    4 1s    0.32166     5 1s    0.37929     5 1s    0.32226     6 1s    0.58855
   22.1    -0.00000     1.08413     1 1s    0.30077     1 1s   -0.44754     1 2py   0.58836     1 2px   0.34719     1 2py  -0.87378
                                    2 1s   -0.30274     2 1s    0.45058     2 2py   0.58855     2 2px   0.34693     2 2py  -0.87351
                                    3 1s   -0.63156     3 1s    1.29643     4 1s   -0.31339     5 1s    0.31188     6 1s    0.63295
                                    6 1s   -1.29815
   23.1    -0.00000     1.10116     1 1s   -0.83192     1 1s    1.39718     1 2py  -0.31973     1 2px  -0.37077     2 1s   -0.83192
                                    2 1s    1.39844     2 2py   0.31919     2 2px   0.36853     3 1s    0.62425     3 1s   -1.10357
                                    6 1s    0.62317     6 1s   -1.10131
   24.1    -0.00000     1.18763     1 1s   -0.26125     1 2px   0.48594     1 2py   0.33089     1 2px  -0.99638     1 2py  -0.41734
                                    2 1s    0.25494     2 2px   0.48381     2 2py   0.32798     2 2px  -0.99353     2 2py  -0.41486
                                    4 1s    0.68332     4 1s   -1.29871     5 1s   -0.67750     5 1s    1.28937
   25.1    -0.00000     1.20859     1 1s   -0.82246     1 1s    1.36215     1 2px   0.32211     1 2py   0.28151     1 2px  -0.45329
                                    2 1s   -0.82094     2 1s    1.35517     2 2px  -0.32598     2 2py  -0.28459     2 2px   0.46299
                                    4 1s    0.68608     4 1s   -1.19223     5 1s    0.69195     5 1s   -1.20241
   26.1    -0.00000     1.28298     1 1s    1.57264     1 1s   -4.05078     1 2px  -0.89741     1 2pz   0.74630     2 1s   -1.57493
                                    2 1s    4.05413     2 2px  -0.89773     2 2pz   0.74760     3 1s    0.31531     4 1s    0.64315
                                    5 1s   -0.64501     6 1s   -0.31620
   27.1    -0.00000     1.77742     1 1s   -0.26454     1 1s    0.80206     1 3d1+  0.49735     1 3d2+  0.31844     2 1s    0.26443
                                    2 1s   -0.80141     2 3d1+ -0.49725     2 3d2+ -0.31850
   28.1    -0.00000     1.83921     1 3d2-  0.30175     1 3d1- -0.55799     2 3d2- -0.30237     2 3d1-  0.55827
   29.1    -0.00000     2.00944     1 1s    0.42705     1 1s   -0.55509     1 3d0   0.47099     1 3d1+  0.47656     2 1s    0.42755
                                    2 1s   -0.55697     2 3d0   0.47148     2 3d1+  0.47653
   30.1    -0.00000     2.14461     1 1s   -0.27786     1 2px   0.42205     1 3d2+  0.66495     2 1s   -0.27772     2 2px  -0.42068
                                    2 3d2+  0.66459     3 1s    0.30889     6 1s    0.30900
   31.1    -0.00000     2.20628     1 2py  -0.73075     1 3d1-  0.72796     2 2py   0.73048     2 3d1-  0.72630     4 1s   -0.26727
                                    4 1s   -0.26555     5 1s   -0.26832     5 1s   -0.26640
   32.1    -0.00000     2.28349     1 1s   -0.41072     1 1s    1.34399     1 2pz  -0.28661     1 3d0  -0.63473     1 3d2+ -0.28935
                                    2 1s    0.41033     2 1s   -1.34350     2 2pz  -0.28643     2 3d0   0.63570     2 3d2+  0.28983
                                    3 1s   -0.42793     4 1s   -0.25162     5 1s    0.25079     6 1s    0.42993
   33.1    -0.00000     2.44974     1 3d0   0.53802     1 3d1+ -0.51860     2 3d0   0.53537     2 3d2-  0.25197     2 3d1+ -0.51798
   34.1    -0.00000     2.51064     1 1s    0.50060     1 3d2-  0.59938     1 3d1-  0.42647     2 1s   -0.50149     2 3d2- -0.59625
                                    2 3d1- -0.42824     3 1s    0.27181     4 1s   -0.60022     5 1s    0.60217     6 1s   -0.26997
   35.1    -0.00000     2.63589     1 3d2-  0.75337     2 3d2-  0.75298     3 1s    0.26066     4 1s   -0.54943     5 1s   -0.54937
                                    6 1s    0.26109
   36.1    -0.00000     2.86440     1 1s    1.49167     1 2px   0.26369     1 2px   0.87645     1 2pz  -0.37210     1 3d1+ -0.60817
                                    1 3d2+  0.66106     2 1s   -1.49193     2 2px   0.26374     2 2px   0.87647     2 2pz  -0.37205
                                    2 3d1+  0.60844     2 3d2+ -0.66102


 Natural orbital dump (state averaged) at molpro section  2140.2    (Orbital set 2)



 **********************************************************************************************************************************
 DATASETS  * FILE   NREC   LENGTH (MB)   RECORD NAMES
              1      20       31.83       500      610      700      900      950      970     1000      129      960     1100   
                                          VAR    BASINP    GEOM    SYMINP    ZMAT    AOBASIS   BASIS     P2S    ABASIS      S 
                                         1400     1410     1200     1210     1080     1600     1650     1300     1700     1380   
                                           T        V       H0       H01     AOSYM     SMH    MOLCAS    ERIS     OPER     JKOP   

              2       5        5.42       700     1000      520     2100     2140   
                                         GEOM     BASIS   MCVARS     RHF     MCSCF   

 PROGRAMS   *        TOTAL     MULTI    HF-SCF       INT
 CPU TIMES  *         0.71      0.33      0.10      0.17
 REAL TIME  *         0.96 SEC
 DISK USED  *        39.02 MB
 **********************************************************************************************************************************
 Molecular orbitals read from record     2140.2  Type=MCSCF/NATURAL (state averaged)
 Occupation numbers read from record     2140.2  Type=MCSCF/NATURAL (state averaged)
 Orbital energies read from record       2140.2  Type=MCSCF/NATURAL (state averaged)
 Redundancy group numbers read from rec  2140.2  Type=MCSCF/NATURAL (state averaged)

 MULTI/6-31G* energy=    -77.548417967429

           MULTI          HF-SCF
    -77.54841797    -77.91698120
 **********************************************************************************************************************************
 Molpro calculation terminated
