
 Primary working directories    : /scratch.local/johan406.molpro_temp/molpro.2u9su2oE9w
 Secondary working directories  : /scratch.local/johan406.molpro_temp/molpro.2u9su2oE9w
 Wavefunction directory         : /home/goodpast/johan406/wfu/
 Main file repository           : /scratch.local/johan406.molpro_temp/molpro.2u9su2oE9w/

 id        : roweumn

 Nodes     nprocs
 acn06        1

 Using customized tuning parameters: mindgm=1; mindgv=20; mindgc=4; mindgr=1; noblas=0; minvec=7
 default implementation of scratch files=df  


 Variables initialized (934), CPU time= 0.00 sec
                                                                                 !leave this line blank
 
 gprint, orbitals=30
 memory, 125., m
 symmetry, nosym
 nelect=16
 basis=6-31g*
 
 geometry={
 C -0.712 0.114 0.288
 C 0.721 -0.164 -0.349
 H -1.262 1.118 0.054
 H -1.417 -0.723 0.001
 H 1.426 0.672 -0.059
 H 1.269 -1.169 -0.115
 }
 
 hf
 {multi,
 closed 7
 occ 9
 wf,spin=0;STATE,3
 }
 
 Commands  initialized (763), CPU time= 0.01 sec, 617 directives.
 Default parameters read. Elapsed time= 0.05 sec

 Checking input...
 Passed
1


                                         ***  PROGRAM SYSTEM MOLPRO  ***
                                       Copyright, TTI GmbH Stuttgart, 2015
                                    Version 2019.2 linked Oct 25 2019 22:50:27


 **********************************************************************************************************************************
 LABEL *                                                                                 
  64 bit serial version                                                                  DATE: 15-Mar-23          TIME: 16:48:54  
 **********************************************************************************************************************************

 SHA1:             8dbd9ae1082e4ce945b0f27595c9eb2d4aa09004
 **********************************************************************************************************************************


 Variable memory set to  125000000 words,  buffer space 

 SETTING NELECT         =        16.00000000                                  
 SETTING BASIS          =    6-31G*
 ZSYMEL=NOSYM


Geometry recognized as XYZ



 Recomputing integrals since basis changed


 Using spherical harmonics

 Library entry C      S 6-31G                selected for orbital group  1
 Library entry C      P 6-31G                selected for orbital group  1
 Library entry C      D 6-31G*               selected for orbital group  1
 Library entry H      S 6-31G                selected for orbital group  2


 PROGRAM * SEWARD (Integral evaluation for generally contracted gaussian basis sets)     Author: Roland Lindh, 1990

 Geometry written to block  1 of record 700


 Point group  C1  



 ATOMIC COORDINATES

 NR  ATOM    CHARGE       X              Y              Z

   1  C       6.00   -1.345485001    0.215428778    0.544241124
   2  C       6.00    1.362492536   -0.309915084   -0.659514417
   3  H       1.00   -2.384834369    2.112713807    0.102045211
   4  H       1.00   -2.677741919   -1.366271988    0.001889726
   5  H       1.00    2.694749454    1.269895956   -0.111493841
   6  H       1.00    2.398062452   -2.209089840   -0.217318504

 Bond lengths in Bohr (Angstrom)

 1-2  3.009677045  1-3  2.208047739  1-4  2.137950151  2-5  2.137998590  2-6  2.207896517
     ( 1.592652504)     ( 1.168448544)     ( 1.131354498)     ( 1.131380131)     ( 1.168368521)

 Bond angles

  1-2-5  109.21830769   1-2-6  119.47565457   2-1-3  119.56500433   2-1-4  109.27376066

  3-1-4  106.95220009   5-2-6  106.97747154

 NUCLEAR CHARGE:                   16
 NUMBER OF PRIMITIVE AOS:          72
 NUMBER OF SYMMETRY AOS:           70
 NUMBER OF CONTRACTIONS:           36   (   36A   )
 NUMBER OF CORE ORBITALS:           2   (    2A   )
 NUMBER OF VALENCE ORBITALS:       12   (   12A   )


 NUCLEAR REPULSION ENERGY   29.78199595

 Eigenvalues of metric

         1 0.151E-01 0.361E-01 0.560E-01 0.639E-01 0.868E-01 0.242E+00 0.249E+00 0.308E+00


 Contracted 2-electron integrals neglected if value below      1.0D-11
 AO integral compression algorithm  1   Integral accuracy      1.0D-11

     1.311 MB (compressed) written to integral file ( 67.8%)


 NUMBER OF SORTED TWO-ELECTRON INTEGRALS:     222111.     BUFFER LENGTH:  32768
 NUMBER OF SEGMENTS:   1  SEGMENT LENGTH:     222111      RECORD LENGTH: 524288

 Memory used in sort:       0.78 MW

 SORT1 READ      284735. AND WROTE      212519. INTEGRALS IN      1 RECORDS. CPU TIME:     0.00 SEC, REAL TIME:     0.01 SEC
 SORT2 READ      212519. AND WROTE      222111. INTEGRALS IN      5 RECORDS. CPU TIME:     0.02 SEC, REAL TIME:     0.02 SEC

 FILE SIZES:   FILE 1:    31.4 MBYTE,  FILE 4:     4.2 MBYTE,   TOTAL:     35.6 MBYTE

 OPERATOR DM      FOR CENTER  0  COORDINATES:    0.000000    0.000000    0.000000


 **********************************************************************************************************************************
 DATASETS  * FILE   NREC   LENGTH (MB)   RECORD NAMES
              1      19       31.10       500      610      700      900      950      970     1000      129      960     1100   
                                          VAR    BASINP    GEOM    SYMINP    ZMAT    AOBASIS   BASIS     P2S    ABASIS      S 
                                         1400     1410     1200     1210     1080     1600     1650     1300     1700   
                                           T        V       H0       H01     AOSYM     SMH    MOLCAS    ERIS     OPER   

 PROGRAMS   *        TOTAL       INT
 CPU TIMES  *         0.28      0.17
 REAL TIME  *         0.40 SEC
 DISK USED  *        35.97 MB
 **********************************************************************************************************************************


 PROGRAM * RHF-SCF (CLOSED SHELL)       Authors: W. Meyer, H.-J. Werner


 NUMBER OF ELECTRONS:       8+    8-    SPACE SYMMETRY=1    SPIN SYMMETRY: Singlet 
 CONVERGENCE THRESHOLDS:    1.00E-05 (Density)    1.00E-07 (Energy)
 MAX. NUMBER OF ITERATIONS:       60
 INTERPOLATION TYPE:            DIIS
 INTERPOLATION STEPS:              2 (START)      1 (STEP)
 LEVEL SHIFTS:                  0.00 (CLOSED)  0.00 (OPEN) 



 Orbital guess generated from atomic densities. Full valence occupancy:    8

 Molecular orbital dump at record        2100.2

 Initial occupancy:   8

 ITERATION    DDIFF          GRAD             ENERGY        2-EL.EN.            DIPOLE MOMENTS         DIIS   ORB.
    1      0.000D+00      0.000D+00       -77.89933854    110.794732   -0.00153   -0.00022    0.00157    0    start
    2      0.000D+00      0.663D-02       -77.91760969    110.121063   -0.00082   -0.00022    0.00083    1    diag
    3      0.658D-02      0.219D-02       -77.92005266    110.447179   -0.00151   -0.00010    0.00152    2    diag
    4      0.307D-02      0.819D-03       -77.92055858    110.322463   -0.00101   -0.00021    0.00098    3    diag
    5      0.145D-02      0.365D-03       -77.92075725    110.334727   -0.00172   -0.00005    0.00169    4    diag
    6      0.124D-02      0.105D-03       -77.92077462    110.332353   -0.00061   -0.00031    0.00053    5    diag
    7      0.338D-03      0.261D-04       -77.92077521    110.332760   -0.00185   -0.00002    0.00182    6    diag
    8      0.506D-04      0.142D-04       -77.92077530    110.332934   -0.00124   -0.00016    0.00118    7    diag
    9      0.160D-04      0.261D-05       -77.92077530    110.332930   -0.00128   -0.00015    0.00123    8    diag
   10      0.858D-05      0.455D-06       -77.92077530    110.332934   -0.00128   -0.00015    0.00123    0    orth

 Final occupancy:   8

 !RHF STATE  1.1 Energy               -77.920775302778
 Nuclear energy                        29.78199595
 One-electron energy                 -162.86923831
 Two-electron energy                   55.16646706
 Virial quotient                       -1.00892957
 !RHF STATE  1.1 Dipole moment         -0.00128131    -0.00015331     0.00122840
 Dipole moment /Debye                  -0.00325655    -0.00038964     0.00312208

 ELECTRON ORBITALS
 =================

  Orbital  Occupation    Energy     Coefficients
    1.1     2.00000   -11.28184     1 1s    0.77865     2 1s    0.62160
    2.1     2.00000   -11.28132     1 1s    0.62170     2 1s   -0.77873
    3.1     2.00000    -0.96460     1 1s    0.28859     1 1s    0.27236     2 1s    0.28847     2 1s    0.27233
    4.1     2.00000    -0.79511     1 1s    0.27448     2 1s   -0.27453
    5.1     2.00000    -0.58567     1 2py   0.30743     2 2py   0.30731
    6.1     2.00000    -0.52336     1 2px  -0.32827     2 2px   0.32816
    7.1     2.00000    -0.48977     1 2py   0.25462     2 2py  -0.25457
    8.1     2.00000    -0.34648     1 2pz   0.31752     1 2pz   0.31090     2 2pz   0.31777     2 2pz   0.31107
    9.1     0.00000     0.07928     1 1s    0.33499     1 2pz   0.34787     1 2pz   0.49714     2 1s    0.33498     2 2pz  -0.34763
                                    2 2pz  -0.49674
   10.1     0.00000     0.25455     1 1s   -1.26435     1 2px   0.65802     1 2pz   0.40862     2 1s   -1.26555     2 2px  -0.65643
                                    2 2pz  -0.41018     3 1s    0.93084     4 1s    1.02533     5 1s    1.02200     6 1s    0.93406
   11.1     0.00000     0.26052     1 1s    1.40331     1 2py   0.34676     1 2pz  -0.30614     2 1s   -1.40058     2 2py   0.34487
                                    2 2pz  -0.30512     3 1s   -1.22088     4 1s   -0.29193     5 1s    0.29205     6 1s    1.21674
   12.1     0.00000     0.29899     1 1s    0.96786     1 2py  -0.67242     2 1s   -0.97149     2 2py  -0.67343     3 1s    0.30672
                                    4 1s   -1.42657     5 1s    1.43149     6 1s   -0.30552
   13.1     0.00000     0.33372     1 2py   0.26068     1 2py   1.20796     2 2py  -0.26062     2 2py  -1.20754     3 1s   -1.16944
                                    4 1s    1.08853     5 1s    1.08503     6 1s   -1.17195
   14.1     0.00000     0.39767     1 1s    1.10409     1 2px   0.27891     1 2px   1.59856     1 2py  -0.34171     1 2pz  -0.55653
                                    2 1s   -1.10553     2 2px   0.27884     2 2px   1.59779     2 2py  -0.34310     2 2pz  -0.55607
                                    3 1s    0.56032     4 1s    0.31154     5 1s   -0.30954     6 1s   -0.55975
   15.1     0.00000     0.73554     1 2py  -0.44776     1 2py   0.69704     2 2py  -0.44750     2 2py   0.69657     3 1s   -0.41384
                                    4 1s    0.31814     5 1s   -0.31623     6 1s    0.41456
   16.1     0.00000     0.74977     1 1s    0.35041     1 2px   0.62005     1 2px  -0.96235     2 1s    0.35353     2 2px  -0.62090
                                    2 2px   0.95971
   17.1     0.00000     0.80512     1 2pz   0.76120     1 2pz  -0.64012     2 2pz   0.76091     2 2pz  -0.63983
   18.1     0.00000     0.84699     1 1s    0.30632     1 1s   -0.28059     1 2pz   0.73805     1 2px  -0.27373     1 2pz  -0.88879
                                    2 1s    0.30986     2 1s   -0.29078     2 2pz  -0.73510     2 2px   0.30028     2 2pz   0.88450
   19.1     0.00000     0.85037     1 1s    0.56213     1 2px  -0.68448     1 2px   1.31681     2 1s   -0.55921     2 2px  -0.67955
                                    2 2px   1.30836     2 2pz  -0.26353     4 1s    0.30243     5 1s   -0.30172
   20.1     0.00000     0.91699     1 2py  -0.70935     1 2py   1.78078     2 2py   0.70973     2 2py  -1.78095     3 1s   -0.57276
                                    4 1s    0.49568     5 1s    0.49496     6 1s   -0.57280
   21.1     0.00000     1.05317     1 1s    0.71918     1 1s   -1.23247     1 2px   0.40683     1 2py  -0.41144     1 2pz   0.59297
                                    2 1s    0.71511     2 1s   -1.22496     2 2px  -0.41037     2 2py   0.41327     2 2pz  -0.59241
                                    3 1s    0.59293     4 1s    0.40807     5 1s    0.40826     6 1s    0.59123
   22.1     0.00000     1.10682     1 2py   0.65674     1 2py  -0.95580     2 2py   0.65273     2 2py  -0.95127     3 1s   -0.57525
                                    3 1s    1.21219     4 1s   -0.63076     5 1s    0.62648     6 1s    0.57112     6 1s   -1.20340
   23.1     0.00000     1.12450     1 1s   -0.68897     1 1s    1.08079     1 2py  -0.37192     1 2px  -0.25234     1 2py   0.30778
                                    2 1s   -0.68836     2 1s    1.08047     2 2py   0.37862     2 2py  -0.31712     3 1s    0.63626
                                    3 1s   -1.07415     4 1s   -0.34283     5 1s   -0.34860     6 1s    0.63929     6 1s   -1.08155
   24.1     0.00000     1.14537     1 1s   -0.43899     1 1s    0.61632     1 2px   0.48644     1 2px  -0.92603     2 1s    0.44374
                                    2 1s   -0.62398     2 2px   0.48759     2 2px  -0.92796     3 1s    0.31988     3 1s   -0.49120
                                    4 1s    0.64158     4 1s   -1.18994     5 1s   -0.64086     5 1s    1.19061     6 1s   -0.32423
                                    6 1s    0.49812
   25.1     0.00000     1.15835     1 1s   -0.96618     1 1s    1.61865     1 2px   0.31416     1 2px  -0.52212     1 2pz  -0.26300
                                    2 1s   -0.96245     2 1s    1.61135     2 2px  -0.31320     2 2px   0.52140     2 2pz   0.26368
                                    3 1s   -0.40269     4 1s    0.61599     4 1s   -1.14719     5 1s    0.61596     5 1s   -1.14702
                                    6 1s   -0.39772
   26.1     0.00000     1.29117     1 1s    1.54441     1 1s   -4.01061     1 2px  -0.97930     1 2py   0.34056     1 2pz   0.75876
                                    2 1s   -1.54861     2 1s    4.01751     2 2px  -0.97839     2 2py   0.33611     2 2pz   0.76219
                                    3 1s    0.30707     4 1s    0.48744     5 1s   -0.48892     6 1s   -0.30974
   27.1     0.00000     1.78392     1 1s    0.77430     1 3d1+  0.41505     1 3d2+  0.39206     1 3d1- -0.27873     2 1s    0.25002
                                    2 1s   -0.77537     2 3d1+ -0.41425     2 3d2+ -0.39141     2 3d1-  0.28013
   28.1     0.00000     1.85872     1 1s    0.29525     1 3d2- -0.37802     1 3d1+  0.29701     1 3d1-  0.47357     2 1s   -0.29392
                                    2 3d2-  0.37982     2 3d1+ -0.29757     2 3d1- -0.47161
   29.1     0.00000     2.02091     1 1s    0.40962     1 1s   -0.57532     1 3d0   0.47773     1 3d1+  0.47354     2 1s    0.41014
                                    2 1s   -0.57731     2 3d0   0.47848     2 3d1+  0.47350
   30.1     0.00000     2.11808     1 2px   0.31543     1 2py  -0.45880     1 3d2+  0.51500     1 3d1-  0.40965     2 2px  -0.31337
                                    2 2py   0.45848     2 3d2+  0.51419     2 3d1-  0.40726     3 1s    0.27921     6 1s    0.27821
   31.1     0.00000     2.25090     1 2px  -0.31298     1 2py  -0.57336     1 3d2+ -0.39855     1 3d1-  0.60123     2 2px   0.31003
                                    2 2py   0.57303     2 3d2+ -0.40267     2 3d1-  0.60017     4 1s   -0.41419     5 1s   -0.41708
   32.1     0.00000     2.28339     1 1s   -0.37959     1 1s    1.20648     1 3d0  -0.63780     1 3d2+ -0.31336     2 1s    0.37936
                                    2 1s   -1.20363     2 3d0   0.63757     2 3d2+  0.30798     3 1s   -0.42554     4 1s   -0.25232
                                    6 1s    0.42704
   33.1     0.00000     2.47024     1 3d0   0.54909     1 3d1+ -0.52441     2 3d0   0.54520     2 3d1+ -0.52510
   34.1     0.00000     2.49124     1 1s   -0.70840     1 2py   0.25954     1 3d2- -0.56874     1 3d1- -0.45526     2 1s    0.70935
                                    2 2py   0.26271     2 3d2-  0.57106     2 3d1-  0.45833     3 1s   -0.30312     4 1s    0.52304
                                    5 1s   -0.52770     6 1s    0.30398
   35.1     0.00000     2.61916     1 3d2-  0.76383     2 3d2-  0.76227     3 1s    0.42402     4 1s   -0.32389     5 1s   -0.32205
                                    6 1s    0.42358
   36.1     0.00000     2.87831     1 1s   -1.49547     1 2px  -0.26813     1 2px  -0.86924     1 2pz   0.37045     1 3d2-  0.30098
                                    1 3d1+  0.60289     1 3d2+ -0.64355     2 1s    1.49594     2 2px  -0.26812     2 2px  -0.86919
                                    2 2pz   0.37042     2 3d2- -0.30035     2 3d1+ -0.60326     2 3d2+  0.64385


 HOMO      8.1    -0.346483 =      -9.4283eV
 LUMO      9.1     0.079278 =       2.1573eV
 LUMO-HOMO         0.425761 =      11.5856eV


 **********************************************************************************************************************************
 DATASETS  * FILE   NREC   LENGTH (MB)   RECORD NAMES
              1      19       31.10       500      610      700      900      950      970     1000      129      960     1100   
                                          VAR    BASINP    GEOM    SYMINP    ZMAT    AOBASIS   BASIS     P2S    ABASIS      S 
                                         1400     1410     1200     1210     1080     1600     1650     1300     1700   
                                           T        V       H0       H01     AOSYM     SMH    MOLCAS    ERIS     OPER   

              2       4        2.86       700     1000      520     2100   
                                         GEOM     BASIS   MCVARS     RHF  

 PROGRAMS   *        TOTAL    HF-SCF       INT
 CPU TIMES  *         0.37      0.09      0.17
 REAL TIME  *         0.56 SEC
 DISK USED  *        35.97 MB
 **********************************************************************************************************************************


 PROGRAM * MULTI (Direct Multiconfiguration SCF)       Authors: P.J. Knowles, H.-J. Werner (1984)


 Number of closed-shell orbitals:   7 (   7 )
 Number of active  orbitals:        2 (   2 )
 Number of external orbitals:      27 (  27 )

 State symmetry 1

 Number of electrons:     2    Spin symmetry=Singlet   Space symmetry=1
 Number of states:        3
 Number of CSFs:          3   (4 determinants, 4 intermediate states)

 Molecular orbitals read from record     2100.2  Type=RHF/CANONICAL (state 1.1)

 Wavefunction dump at record             2140.2

 Convergence thresholds  0.10E-01 (gradient)  0.10E-05 (energy)  0.10E-02 (step length)

 Weight factors for state symmetry  1:    0.33333   0.33333   0.33333

 Number of orbital rotations:      257   (    14 Core/Active    189 Core/Virtual   0 Active/Active     54 Active/Virtual)
 Total number of variables:        269

 Micro-Iterations solved by the two-step solver

 ITER. MIC  NCI  NEG     ENERGY(VAR)     ENERGY(PROJ)   ENERGY CHANGE     GRAD(0)  GRAD(ORB)   GRAD(CI)     STEP       TIME

   1    8    5    0     -77.71019261     -77.71618548   -0.00599286    0.10087231 0.00023397 0.00000000  0.73D-01      0.13
   2    9    6    0     -77.71612547     -77.71613084   -0.00000538    0.00267584 0.00000036 0.00000000  0.45D-02      0.24
   3    8    5    0     -77.71613086     -77.71613086   -0.00000000    0.00001079 0.00000000 0.00000000  0.29D-04      0.35

 ** WVFN ****  CONVERGENCE REACHED, FINAL GRADIENT:  0.41D-09



 Results for state 1.1
 =====================

 !MCSCF STATE  1.1 Energy             -77.950123910323
 Nuclear energy                        29.78199595
 Kinetic energy                        77.28330846
 One electron energy                 -162.82976365
 Two electron energy                   55.09764379
 Virial ratio                           2.00862819

 !MCSCF STATE  1.1 Dipole moment       -0.00116937    -0.00032956     0.00098909
 Dipole moment /Debye                  -0.00297206    -0.00083761     0.00251385

 Results for state 2.1
 =====================

 !MCSCF STATE  2.1 Energy             -77.648977306846
 Nuclear energy                        29.78199595
 Kinetic energy                        77.43547204
 One electron energy                 -162.61840885
 Two electron energy                   55.18743560
 Virial ratio                           2.00275720

 !MCSCF STATE  2.1 Dipole moment       -0.00379261    -0.00025216     0.00333606
 Dipole moment /Debye                  -0.00963921    -0.00064088     0.00847886

 Results for state 3.1
 =====================

 !MCSCF STATE  3.1 Energy             -77.549291356016
 Nuclear energy                        29.78199595
 Kinetic energy                        77.58763320
 One electron energy                 -162.40705148
 Two electron energy                   55.07576418
 Virial ratio                           1.99950583

 !MCSCF STATE  3.1 Dipole moment        0.00409616    -0.00227153    -0.00180255
 Dipole moment /Debye                   0.01041072    -0.00577328    -0.00458131

 State-averaged charge density matrix saved on record  2140.2 (density set 1)

 !MCSCF expec         <1.1|DMX|1.1>    -0.001169374138 au =    -0.002972057921 Debye
 !MCSCF trans         <2.1|DMX|1.1>     1.180438232738 au =     3.000178203562 Debye
 !MCSCF expec         <2.1|DMX|2.1>    -0.003792606119 au =    -0.009639211860 Debye
 !MCSCF trans         <3.1|DMX|1.1>     0.000299606114 au =     0.000761472907 Debye
 !MCSCF trans         <3.1|DMX|2.1>     2.262705558621 au =     5.750847193680 Debye
 !MCSCF expec         <3.1|DMX|3.1>     0.004096159682 au =     0.010410717524 Debye

 !MCSCF expec         <1.1|DMY|1.1>    -0.000329563937 au =    -0.000837613110 Debye
 !MCSCF trans         <2.1|DMY|1.1>    -0.235457068724 au =    -0.598432976727 Debye
 !MCSCF expec         <2.1|DMY|2.1>    -0.000252156838 au =    -0.000640876777 Debye
 !MCSCF trans         <3.1|DMY|1.1>     0.000251242747 au =     0.000638553542 Debye
 !MCSCF trans         <3.1|DMY|2.1>    -0.451331591156 au =    -1.147095345449 Debye
 !MCSCF expec         <3.1|DMY|3.1>    -0.002271530950 au =    -0.005773277633 Debye

 !MCSCF expec         <1.1|DMZ|1.1>     0.000989089046 au =     0.002513848937 Debye
 !MCSCF trans         <2.1|DMZ|1.1>    -0.840587713350 au =    -2.136420920497 Debye
 !MCSCF expec         <2.1|DMZ|2.1>     0.003336059810 au =     0.008478862893 Debye
 !MCSCF trans         <3.1|DMZ|1.1>    -0.000547466529 au =    -0.001391429980 Debye
 !MCSCF trans         <3.1|DMZ|2.1>    -1.611268986308 au =    -4.095169030220 Debye
 !MCSCF expec         <3.1|DMZ|3.1>    -0.001802545264 au =    -0.004581312993 Debye


 NATURAL ORBITALS (state averaged)
 =================================

  Orbital  Occupation    Energy     Coefficients
    1.1     2.00000   -11.28616     1 1s    0.69400     2 1s    0.71486
    2.1     2.00000   -11.28576     1 1s    0.71491     2 1s   -0.69405
    3.1     2.00000    -0.96923     1 1s    0.29366     1 1s    0.27578     2 1s    0.29374     2 1s    0.27600
    4.1     2.00000    -0.79959     1 1s    0.30672     2 1s   -0.30672
    5.1     2.00000    -0.59224     1 2py   0.30905     2 2py   0.30924
    6.1     2.00000    -0.52824     1 2px  -0.33482     2 2px   0.33490
    7.1     2.00000    -0.49437     1 2py   0.26415     2 2py  -0.26366
    8.1     1.00000    -0.21632     1 2pz   0.29473     1 2pz   0.31075     2 2pz   0.29495     2 2pz   0.31081
    9.1     1.00000    -0.05194     1 1s    0.28061     1 2pz   0.37574     1 2pz   0.48039     2 1s    0.28147     2 2pz  -0.37521
                                    2 2pz  -0.47975
   10.1    -0.00000     0.25198     1 1s   -1.25337     1 2px   0.66599     1 2pz   0.39204     2 1s   -1.28832     2 2px  -0.66388
                                    2 2pz  -0.40099     3 1s    0.90899     4 1s    1.03172     5 1s    1.03393     6 1s    0.94301
   11.1    -0.00000     0.25563     1 1s    1.37902     1 2py   0.37445     1 2pz  -0.30662     2 1s   -1.34405     2 2py   0.37279
                                    2 2pz  -0.29561     3 1s   -1.23453     6 1s    1.20781
   12.1    -0.00000     0.29295     1 1s    1.04534     1 2py  -0.65615     2 1s   -1.04877     2 2py  -0.65832     3 1s    0.25119
                                    4 1s   -1.43187     5 1s    1.43778     6 1s   -0.25125
   13.1    -0.00000     0.33080     1 2py   0.26248     1 2py   1.20315     2 2py  -0.26219     2 2py  -1.20177     3 1s   -1.17570
                                    4 1s    1.07893     5 1s    1.07430     6 1s   -1.17704
   14.1    -0.00000     0.38964     1 1s    1.04086     1 2px   0.29258     1 2px   1.56951     1 2py  -0.33405     1 2pz  -0.54254
                                    2 1s   -1.04223     2 2px   0.29253     2 2px   1.56862     2 2py  -0.33542     2 2pz  -0.54279
                                    3 1s    0.57770     4 1s    0.33361     5 1s   -0.33124     6 1s   -0.57716
   15.1    -0.00000     0.72930     1 2py  -0.45498     1 2py   0.69965     2 2py  -0.45483     2 2py   0.69980     3 1s   -0.40823
                                    4 1s    0.31875     5 1s   -0.31678     6 1s    0.40922
   16.1    -0.00000     0.74258     1 1s    0.28868     1 2px   0.61736     1 2px  -0.94314     2 1s    0.29204     2 2px  -0.61875
                                    2 2px   0.94119
   17.1    -0.00000     0.79787     1 2pz   0.76634     1 2pz  -0.64752     2 2pz   0.76694     2 2pz  -0.64828
   18.1    -0.00000     0.83858     1 1s    0.29260     1 1s   -0.26124     1 2pz   0.73331     1 2px  -0.27066     1 2pz  -0.91225
                                    2 1s    0.29674     2 1s   -0.27557     2 2pz  -0.72863     2 2px   0.30259     2 2pz   0.90550
   19.1    -0.00000     0.84222     1 1s    0.65011     1 2px  -0.67612     1 2px   1.35085     1 2pz  -0.27636     2 1s   -0.64620
                                    2 2px  -0.67023     2 2px   1.34127     2 2pz  -0.29759     4 1s    0.30019     5 1s   -0.29955
   20.1    -0.00000     0.91258     1 2py  -0.71139     1 2py   1.78482     2 2py   0.71181     2 2py  -1.78516     3 1s   -0.57145
                                    4 1s    0.51511     5 1s    0.51455     6 1s   -0.57184
   21.1    -0.00000     1.04874     1 1s    0.74659     1 1s   -1.28967     1 2px   0.43514     1 2py  -0.43625     1 2pz   0.59044
                                    2 1s    0.74258     2 1s   -1.28263     2 2px  -0.43764     2 2py   0.43712     2 2pz  -0.59013
                                    3 1s    0.57969     3 1s    0.25075     4 1s    0.40998     5 1s    0.41001     6 1s    0.57834
                                    6 1s    0.25120
   22.1    -0.00000     1.10071     1 2py   0.65963     1 2py  -0.96833     2 2py   0.65778     2 2py  -0.96566     3 1s   -0.55628
                                    3 1s    1.18035     4 1s    0.26990     4 1s   -0.70511     5 1s   -0.26683     5 1s    0.70100
                                    6 1s    0.55553     6 1s   -1.17832
   23.1    -0.00000     1.12090     1 1s   -0.64414     1 1s    1.00947     1 2py  -0.37109     1 2py   0.29438     2 1s   -0.64431
                                    2 1s    1.01110     2 2py   0.37323     2 2py  -0.29718     3 1s    0.64993     3 1s   -1.05941
                                    4 1s   -0.35519     5 1s   -0.35765     6 1s    0.65030     6 1s   -1.06096
   24.1    -0.00000     1.14273     1 1s   -0.41014     1 1s    0.52718     1 2px   0.49565     1 2px  -0.96962     2 1s    0.41763
                                    2 1s   -0.53965     2 2px   0.49822     2 2px  -0.97331     3 1s    0.35483     3 1s   -0.55073
                                    4 1s    0.62728     4 1s   -1.14080     5 1s   -0.63071     5 1s    1.14769     6 1s   -0.35749
                                    6 1s    0.55644
   25.1    -0.00000     1.15564     1 1s   -0.97638     1 1s    1.63872     1 2px   0.32512     1 2px  -0.53363     1 2pz  -0.25077
                                    2 1s   -0.97146     2 1s    1.63120     2 2px  -0.32146     2 2px   0.52717     2 2pz   0.25180
                                    3 1s   -0.43912     4 1s    0.61230     4 1s   -1.13939     5 1s    0.60917     5 1s   -1.13410
                                    6 1s   -0.43106
   26.1    -0.00000     1.27697     1 1s    1.55520     1 1s   -4.01678     1 2px  -0.94424     1 2py   0.33512     1 2pz   0.74487
                                    2 1s   -1.55869     2 1s    4.02256     2 2px  -0.94367     2 2py   0.33059     2 2pz   0.74803
                                    3 1s    0.33101     4 1s    0.51103     5 1s   -0.51194     6 1s   -0.33330
   27.1    -0.00000     1.77242     1 1s    0.76776     1 3d1+  0.41601     1 3d2+  0.39345     1 3d1- -0.27685     2 1s   -0.76872
                                    2 3d1+ -0.41525     2 3d2+ -0.39281     2 3d1-  0.27836
   28.1    -0.00000     1.84740     1 1s    0.28752     1 3d2- -0.37593     1 3d1+  0.29492     1 3d1-  0.47621     2 1s   -0.28605
                                    2 3d2-  0.37785     2 3d1+ -0.29561     2 3d1- -0.47444
   29.1    -0.00000     2.01048     1 1s    0.40701     1 1s   -0.56446     1 3d0   0.47474     1 3d1+  0.47738     2 1s    0.40768
                                    2 1s   -0.56694     2 3d0   0.47568     2 3d1+  0.47734
   30.1    -0.00000     2.10798     1 2px   0.32148     1 2py  -0.45444     1 3d2+  0.52098     1 3d1-  0.40339     2 2px  -0.31947
                                    2 2py   0.45420     2 3d2+  0.52036     2 3d1-  0.40089     3 1s    0.28088     6 1s    0.28004
   31.1    -0.00000     2.24227     1 2px  -0.31111     1 2py  -0.57872     1 3d2+ -0.39337     1 3d1-  0.60624     2 2px   0.30784
                                    2 2py   0.57849     2 3d2+ -0.39793     2 3d1-  0.60494     4 1s   -0.41217     5 1s   -0.41552
   32.1    -0.00000     2.27249     1 1s   -0.38279     1 1s    1.21754     1 2pz  -0.25248     1 3d0  -0.63761     1 3d2+ -0.31166
                                    2 1s    0.38252     2 1s   -1.21429     2 2pz  -0.25068     2 3d0   0.63755     2 3d2+  0.30554
                                    3 1s   -0.42917     4 1s   -0.25288     6 1s    0.43081
   33.1    -0.00000     2.45703     1 3d0   0.55344     1 3d1+ -0.52358     2 3d0   0.54918     2 3d1+ -0.52435
   34.1    -0.00000     2.47960     1 1s   -0.71499     1 2py   0.25856     1 3d2- -0.56885     1 3d1- -0.45342     2 1s    0.71594
                                    2 2py   0.26169     2 3d2-  0.57124     2 3d1-  0.45646     3 1s   -0.30369     4 1s    0.52596
                                    5 1s   -0.53065     6 1s    0.30453
   35.1    -0.00000     2.61000     1 3d2-  0.76476     2 3d2-  0.76304     3 1s    0.42493     4 1s   -0.32633     5 1s   -0.32441
                                    6 1s    0.42437
   36.1    -0.00000     2.86972     1 1s   -1.50112     1 2px  -0.26315     1 2px  -0.87372     1 2pz   0.37282     1 3d2-  0.30119
                                    1 3d1+  0.60357     1 3d2+ -0.64408     2 1s    1.50160     2 2px  -0.26318     2 2px  -0.87363
                                    2 2pz   0.37277     2 3d2- -0.30060     2 3d1+ -0.60382     2 3d2+  0.64434


 Natural orbital dump (state averaged) at molpro section  2140.2    (Orbital set 2)



 **********************************************************************************************************************************
 DATASETS  * FILE   NREC   LENGTH (MB)   RECORD NAMES
              1      20       31.83       500      610      700      900      950      970     1000      129      960     1100   
                                          VAR    BASINP    GEOM    SYMINP    ZMAT    AOBASIS   BASIS     P2S    ABASIS      S 
                                         1400     1410     1200     1210     1080     1600     1650     1300     1700     1380   
                                           T        V       H0       H01     AOSYM     SMH    MOLCAS    ERIS     OPER     JKOP   

              2       5        5.42       700     1000      520     2100     2140   
                                         GEOM     BASIS   MCVARS     RHF     MCSCF   

 PROGRAMS   *        TOTAL     MULTI    HF-SCF       INT
 CPU TIMES  *         0.76      0.39      0.09      0.17
 REAL TIME  *         1.02 SEC
 DISK USED  *        39.02 MB
 **********************************************************************************************************************************
 Molecular orbitals read from record     2140.2  Type=MCSCF/NATURAL (state averaged)
 Occupation numbers read from record     2140.2  Type=MCSCF/NATURAL (state averaged)
 Orbital energies read from record       2140.2  Type=MCSCF/NATURAL (state averaged)
 Redundancy group numbers read from rec  2140.2  Type=MCSCF/NATURAL (state averaged)

 MULTI/6-31G* energy=    -77.549291356016

           MULTI          HF-SCF
    -77.54929136    -77.92077530
 **********************************************************************************************************************************
 Molpro calculation terminated
