
 Primary working directories    : /scratch.local/johan406.molpro_temp/molpro.ujZCgC0hnD
 Secondary working directories  : /scratch.local/johan406.molpro_temp/molpro.ujZCgC0hnD
 Wavefunction directory         : /home/goodpast/johan406/wfu/
 Main file repository           : /scratch.local/johan406.molpro_temp/molpro.ujZCgC0hnD/

 id        : roweumn

 Nodes     nprocs
 acn06        1

 Using customized tuning parameters: mindgm=1; mindgv=20; mindgc=4; mindgr=1; noblas=0; minvec=7
 default implementation of scratch files=df  


 Variables initialized (934), CPU time= 0.00 sec
                                                                                 !leave this line blank
 
 gprint, orbitals=30
 memory, 125., m
 symmetry, nosym
 nelect=16
 basis=6-31g*
 
 geometry={
 C -0.674 0.146 0.294
 C 0.683 -0.195 -0.355
 H -1.263 0.902 -0.044
 H -1.038 -0.910 -0.066
 H 1.047 0.860 0.006
 H 1.272 -0.952 -0.017
 }
 
 hf
 {multi,
 closed 7
 occ 9
 wf,spin=0;STATE,3
 }
 
 Commands  initialized (763), CPU time= 0.01 sec, 617 directives.
 Default parameters read. Elapsed time= 0.07 sec

 Checking input...
 Passed
1


                                         ***  PROGRAM SYSTEM MOLPRO  ***
                                       Copyright, TTI GmbH Stuttgart, 2015
                                    Version 2019.2 linked Oct 25 2019 22:50:27


 **********************************************************************************************************************************
 LABEL *                                                                                 
  64 bit serial version                                                                  DATE: 15-Mar-23          TIME: 16:15:46  
 **********************************************************************************************************************************

 SHA1:             8dbd9ae1082e4ce945b0f27595c9eb2d4aa09004
 **********************************************************************************************************************************


 Variable memory set to  125000000 words,  buffer space 

 SETTING NELECT         =        16.00000000                                  
 SETTING BASIS          =    6-31G*
 ZSYMEL=NOSYM


Geometry recognized as XYZ



 Recomputing integrals since basis changed


 Using spherical harmonics

 Library entry C      S 6-31G                selected for orbital group  1
 Library entry C      P 6-31G                selected for orbital group  1
 Library entry C      D 6-31G*               selected for orbital group  1
 Library entry H      S 6-31G                selected for orbital group  2


 PROGRAM * SEWARD (Integral evaluation for generally contracted gaussian basis sets)     Author: Roland Lindh, 1990

 Geometry written to block  1 of record 700


 Point group  C1  



 ATOMIC COORDINATES

 NR  ATOM    CHARGE       X              Y              Z

   1  C       6.00   -1.273675408    0.275900014    0.555579481
   2  C       6.00    1.290682943   -0.368496594   -0.670852774
   3  H       1.00   -2.386724095    1.704532964   -0.083147949
   4  H       1.00   -1.961535717   -1.719650773   -0.124721924
   5  H       1.00    1.978543252    1.625164467    0.011338357
   6  H       1.00    2.403731630   -1.799019271   -0.032125344

 Bond lengths in Bohr (Angstrom)

 1-2  2.914672678  1-3  1.920375541  1-4  2.217698075  2-5  2.216578664  2-6  1.921781787
     ( 1.542378358)     ( 1.016218972)     ( 1.173555282)     ( 1.172962915)     ( 1.016963126)

 Bond angles

  1-2-5   86.82834477   1-2-6  122.29541679   2-1-3  122.30719020   2-1-4   86.83971165

  3-1-4  112.80589535   5-2-6  112.79839235

 NUCLEAR CHARGE:                   16
 NUMBER OF PRIMITIVE AOS:          72
 NUMBER OF SYMMETRY AOS:           70
 NUMBER OF CONTRACTIONS:           36   (   36A   )
 NUMBER OF CORE ORBITALS:           2   (    2A   )
 NUMBER OF VALENCE ORBITALS:       12   (   12A   )


 NUCLEAR REPULSION ENERGY   31.59245465

 Eigenvalues of metric

         1 0.118E-01 0.248E-01 0.497E-01 0.725E-01 0.738E-01 0.214E+00 0.249E+00 0.279E+00


 Contracted 2-electron integrals neglected if value below      1.0D-11
 AO integral compression algorithm  1   Integral accuracy      1.0D-11

     1.573 MB (compressed) written to integral file ( 58.2%)


 NUMBER OF SORTED TWO-ELECTRON INTEGRALS:     222111.     BUFFER LENGTH:  32768
 NUMBER OF SEGMENTS:   1  SEGMENT LENGTH:     222111      RECORD LENGTH: 524288

 Memory used in sort:       0.78 MW

 SORT1 READ      284735. AND WROTE      212529. INTEGRALS IN      1 RECORDS. CPU TIME:     0.01 SEC, REAL TIME:     0.01 SEC
 SORT2 READ      212529. AND WROTE      222111. INTEGRALS IN      6 RECORDS. CPU TIME:     0.02 SEC, REAL TIME:     0.02 SEC

 FILE SIZES:   FILE 1:    31.7 MBYTE,  FILE 4:     4.2 MBYTE,   TOTAL:     35.9 MBYTE

 OPERATOR DM      FOR CENTER  0  COORDINATES:    0.000000    0.000000    0.000000


 **********************************************************************************************************************************
 DATASETS  * FILE   NREC   LENGTH (MB)   RECORD NAMES
              1      19       31.12       500      610      700      900      950      970     1000      129      960     1100   
                                          VAR    BASINP    GEOM    SYMINP    ZMAT    AOBASIS   BASIS     P2S    ABASIS      S 
                                         1400     1410     1200     1210     1080     1600     1650     1300     1700   
                                           T        V       H0       H01     AOSYM     SMH    MOLCAS    ERIS     OPER   

 PROGRAMS   *        TOTAL       INT
 CPU TIMES  *         0.27      0.17
 REAL TIME  *         0.40 SEC
 DISK USED  *        36.24 MB
 **********************************************************************************************************************************


 PROGRAM * RHF-SCF (CLOSED SHELL)       Authors: W. Meyer, H.-J. Werner


 NUMBER OF ELECTRONS:       8+    8-    SPACE SYMMETRY=1    SPIN SYMMETRY: Singlet 
 CONVERGENCE THRESHOLDS:    1.00E-05 (Density)    1.00E-07 (Energy)
 MAX. NUMBER OF ITERATIONS:       60
 INTERPOLATION TYPE:            DIIS
 INTERPOLATION STEPS:              2 (START)      1 (STEP)
 LEVEL SHIFTS:                  0.00 (CLOSED)  0.00 (OPEN) 



 Orbital guess generated from atomic densities. Full valence occupancy:    8

 Molecular orbital dump at record        2100.2

 Initial occupancy:   8

 ITERATION    DDIFF          GRAD             ENERGY        2-EL.EN.            DIPOLE MOMENTS         DIIS   ORB.
    1      0.000D+00      0.000D+00       -77.84184143    114.237038    0.00003   -0.00067    0.00039    0    start
    2      0.000D+00      0.689D-02       -77.86057710    113.428188   -0.00016    0.00003    0.00038    1    diag
    3      0.745D-02      0.224D-02       -77.86305101    113.770429   -0.00001   -0.00004    0.00021    2    diag
    4      0.313D-02      0.842D-03       -77.86360835    113.651156   -0.00015    0.00011    0.00036    3    diag
    5      0.163D-02      0.373D-03       -77.86385386    113.660499    0.00006    0.00000    0.00012    4    diag
    6      0.130D-02      0.150D-03       -77.86391035    113.661629   -0.00044    0.00031    0.00072    5    diag
    7      0.686D-03      0.407D-04       -77.86391359    113.662537    0.00050   -0.00027   -0.00041    6    diag
    8      0.149D-03      0.188D-04       -77.86391391    113.662790   -0.00030    0.00023    0.00055    7    diag
    9      0.395D-04      0.814D-05       -77.86391398    113.662863   -0.00005    0.00007    0.00025    8    diag
   10      0.195D-04      0.198D-05       -77.86391398    113.662825   -0.00007    0.00008    0.00028    9    orth
   11      0.506D-05      0.357D-06       -77.86391398    113.662828   -0.00007    0.00008    0.00028    0    orth

 Final occupancy:   8

 !RHF STATE  1.1 Energy               -77.863913979918
 Nuclear energy                        31.59245465
 One-electron energy                 -166.28778241
 Two-electron energy                   56.83141378
 Virial quotient                       -1.00182984
 !RHF STATE  1.1 Dipole moment         -0.00006689     0.00008304     0.00027685
 Dipole moment /Debye                  -0.00017001     0.00021105     0.00070363

 ELECTRON ORBITALS
 =================

  Orbital  Occupation    Energy     Coefficients
    1.1     2.00000   -11.26306     1 1s    0.70894     2 1s    0.69996
    2.1     2.00000   -11.26245     1 1s   -0.70003     2 1s    0.70901
    3.1     2.00000    -1.00625     1 1s    0.28491     1 1s    0.25537     2 1s    0.28478     2 1s    0.25528
    4.1     2.00000    -0.81148     1 1s    0.26270     2 1s   -0.26294
    5.1     2.00000    -0.61434     1 2py   0.30321     2 2py   0.30318
    6.1     2.00000    -0.58476     1 2px  -0.27449     2 2px   0.27450
    7.1     2.00000    -0.40381     1 2px   0.29400     2 2px  -0.29438     4 1s   -0.26020     5 1s   -0.26016
    8.1     2.00000    -0.36633     1 2pz   0.31247     1 2pz   0.29991     2 2pz   0.31266     2 2pz   0.30000
    9.1     0.00000     0.07114     1 1s    0.36279     1 2pz   0.34247     1 2pz   0.48580     2 1s    0.36263     2 2pz  -0.34242
                                    2 2pz  -0.48580
   10.1     0.00000     0.23234     1 1s   -1.11420     1 2px   0.47956     1 2py   0.35751     1 2pz   0.36973     2 1s   -1.11546
                                    2 2px  -0.47901     2 2py  -0.35579     2 2pz  -0.37067     3 1s    0.61285     4 1s    1.06442
                                    5 1s    1.06283     6 1s    0.61445
   11.1     0.00000     0.29593     1 1s    1.64594     1 2py   0.42076     1 2pz  -0.43747     2 1s   -1.64488     2 2py   0.42467
                                    2 2pz  -0.43740     3 1s   -1.48775     6 1s    1.49006
   12.1     0.00000     0.32226     1 1s    1.06637     1 2px  -0.30071     1 2py  -0.67846     1 2pz  -0.25466     2 1s   -1.07039
                                    2 2px  -0.30209     2 2py  -0.67785     2 2pz  -0.25654     4 1s   -1.55626     5 1s    1.55891
   13.1     0.00000     0.32895     1 1s   -0.95587     1 2px   0.40509     1 2py  -1.12447     1 2pz   0.38327     2 1s   -0.94723
                                    2 2px  -0.40513     2 2py   1.12426     2 2pz  -0.38078     3 1s    1.81736     4 1s   -0.49031
                                    5 1s   -0.49206     6 1s    1.81124
   14.1     0.00000     0.40556     1 1s    1.29437     1 2px   1.62248     1 2py  -0.71724     1 2pz  -0.59523     2 1s   -1.29649
                                    2 2px   1.62178     2 2py  -0.71634     2 2pz  -0.59578     3 1s    0.99440     4 1s   -0.29551
                                    5 1s    0.29563     6 1s   -0.99185
   15.1     0.00000     0.72311     1 2px   0.28776     1 2py  -0.33331     1 2px  -0.83751     1 2py   0.80120     2 2px   0.27070
                                    2 2py  -0.33848     2 2px  -0.80800     2 2py   0.80198     3 1s   -0.48142     3 1s   -0.32246
                                    6 1s    0.47866     6 1s    0.31050
   16.1     0.00000     0.72582     1 1s    0.25988     1 2px   0.54960     1 2px  -0.88791     2 1s    0.25888     2 2px  -0.55831
                                    2 2px   0.91238     3 1s   -0.27601     4 1s   -0.25976     4 1s    0.34737     5 1s   -0.25548
                                    5 1s    0.34711     6 1s   -0.28492
   17.1     0.00000     0.80178     1 2pz   0.75217     1 2pz  -0.70710     2 2pz   0.75385     2 2pz  -0.70837
   18.1     0.00000     0.82146     1 1s   -0.46138     1 2py   0.52979     1 2pz   0.46007     1 2py  -1.25482     1 2pz  -0.41010
                                    2 1s   -0.45928     2 2py  -0.52988     2 2pz  -0.45682     2 2py   1.25551     2 2pz   0.40806
                                    3 1s    0.45128     6 1s    0.45108
   19.1     0.00000     0.87173     1 1s   -0.32875     1 2px  -0.26845     1 2py   0.31017     1 2pz  -0.58536     1 2px   0.55104
                                    1 2py  -0.95055     1 2pz   0.88336     2 1s   -0.32886     2 2px   0.26799     2 2py  -0.31131
                                    2 2pz   0.58598     2 2px  -0.55061     2 2py   0.95243     2 2pz  -0.88329     3 1s    0.47751
                                    6 1s    0.47745
   20.1     0.00000     0.94081     1 1s   -0.42884     1 2px   0.69215     1 2py   0.33582     1 2px  -1.08613     1 2py  -0.66292
                                    2 1s   -0.25096     2 1s    0.42881     2 2px   0.69252     2 2py   0.33459     2 2px  -1.08678
                                    2 2py  -0.66045     4 1s   -0.69262     5 1s    0.69273
   21.1     0.00000     1.11253     1 1s   -0.31917     1 1s    0.58980     1 2px   0.31184     1 2py   0.33788     1 2py  -0.41850
                                    2 1s   -0.30947     2 1s    0.57338     2 2px  -0.31148     2 2py  -0.32278     2 2py   0.39704
                                    4 1s    0.77634     4 1s   -1.00125     5 1s    0.75556     5 1s   -0.96377
   22.1     0.00000     1.12734     1 1s    0.41091     1 1s   -0.66307     1 2py  -0.51884     1 2px   0.27553     1 2py   0.66993
                                    2 1s    0.35793     2 2py  -0.51681     2 2py   0.73489     4 1s   -0.71796     4 1s    1.32296
                                    5 1s    0.75590     5 1s   -1.25727     6 1s    0.27352
   23.1     0.00000     1.12779     1 1s   -1.13305     1 1s    2.15251     1 2px  -0.50032     1 2py   0.40936     1 2pz  -0.77638
                                    2 1s   -1.17871     2 1s    2.21917     2 2px   0.53764     2 2py  -0.30547     2 2pz   0.79228
                                    3 1s   -0.49371     3 1s   -0.77158     4 1s   -0.54577     5 1s   -0.73681     6 1s   -0.50349
                                    6 1s   -0.73608
   24.1     0.00000     1.22157     1 1s    1.37213     1 2px  -0.37347     1 2py   0.43180     1 2px   1.31089     1 2py  -0.99868
                                    1 2pz  -0.35130     2 1s   -1.35920     2 2px  -0.37574     2 2py   0.43643     2 2px   1.31389
                                    2 2py  -1.00331     2 2pz  -0.34902     3 1s   -0.61180     3 1s    1.18742     4 1s   -0.32081
                                    5 1s    0.31832     6 1s    0.62034     6 1s   -1.20120
   25.1     0.00000     1.27237     1 1s   -0.79463     1 1s    1.27380     1 2py  -0.40405     1 2px  -0.38574     1 2py   0.48312
                                    1 2pz  -0.27118     2 1s   -0.84908     2 1s    1.43352     2 2py   0.40033     2 2px   0.34432
                                    2 2py  -0.45701     2 2pz   0.30574     3 1s    0.69088     3 1s   -1.28145     6 1s    0.68964
                                    6 1s   -1.29576
   26.1     0.00000     1.28702     1 1s   -1.59574     1 1s    4.40242     1 2px   0.77934     1 2py  -0.40312     1 2pz  -0.93282
                                    2 1s    1.57095     2 1s   -4.36237     2 2px   0.79047     2 2py  -0.41687     2 2pz  -0.92513
                                    3 1s   -0.92008     4 1s   -0.51429     5 1s    0.51629     6 1s    0.87904
   27.1     0.00000     1.69123     1 1s   -0.27595     1 3d0  -0.30057     1 3d2-  0.29572     1 3d1+  0.25158     1 3d2+  0.34827
                                    2 1s    0.27668     2 3d0   0.30086     2 3d2- -0.29563     2 3d1+ -0.25144     2 3d2+ -0.34789
   28.1     0.00000     1.91778     1 1s    0.71583     1 3d2- -0.27747     1 3d1+  0.41800     1 3d1-  0.41568     2 1s   -0.71621
                                    2 3d2-  0.27812     2 3d1+ -0.41799     2 3d1- -0.41457     3 1s   -0.27620     6 1s    0.27621
   29.1     0.00000     1.99319     1 1s    0.30115     1 1s   -0.69913     1 2pz   0.31484     1 3d0   0.36569     1 3d1+  0.38781
                                    1 3d2+  0.29864     1 3d1-  0.31964     2 1s    0.30094     2 1s   -0.69775     2 2pz  -0.31465
                                    2 3d0   0.36601     2 3d1+  0.38820     2 3d2+  0.29921     2 3d1-  0.31911     3 1s    0.33743
                                    6 1s    0.33697
   30.1     0.00000     2.13573     1 1s   -0.44184     1 2px  -0.26316     1 2px   0.31183     1 2py  -0.28147     1 3d2- -0.25089
                                    1 3d1+ -0.31800     1 3d2+  0.39668     1 3d1-  0.26109     2 1s   -0.44191     2 2px   0.26328
                                    2 2px  -0.31161     2 2py   0.28164     2 3d2- -0.25089     2 3d1+ -0.31775     2 3d2+  0.39667
                                    2 3d1-  0.26112
   31.1     0.00000     2.26831     1 1s    0.34038     1 1s   -1.50963     1 2px  -0.36940     1 2py   0.27426     1 2pz   0.37470
                                    1 3d0   0.61687     1 3d2+  0.34343     2 1s   -0.34043     2 1s    1.51034     2 2px  -0.36898
                                    2 2py   0.27246     2 2pz   0.37516     2 3d0  -0.61611     2 3d2+ -0.34297     3 1s    0.39180
                                    4 1s    0.40504     5 1s   -0.40384     6 1s   -0.39243
   32.1     0.00000     2.32445     1 2py   0.41670     1 3d0   0.50024     1 3d2- -0.33800     1 3d1+ -0.29487     1 3d1- -0.33240
                                    2 2py  -0.41706     2 3d0   0.50113     2 3d2- -0.33690     2 3d1+ -0.29553     2 3d1- -0.33268
                                    4 1s    0.39681     5 1s    0.39780
   33.1     0.00000     2.54317     1 2py   0.37289     1 3d2-  0.29215     1 3d2+  0.54186     1 3d1- -0.49749     2 2py  -0.37175
                                    2 3d2-  0.29513     2 3d2+  0.54188     2 3d1- -0.49539     4 1s    0.35857     5 1s    0.35770
   34.1     0.00000     2.58621     1 1s   -0.36546     1 2px  -0.29251     1 2py   0.36207     1 3d2- -0.54494     1 3d1- -0.55405
                                    2 1s    0.36628     2 2px  -0.29206     2 2py   0.36456     2 3d2-  0.54586     2 3d1-  0.55763
                                    3 1s   -0.60096     4 1s    0.36351     5 1s   -0.36661     6 1s    0.60225
   35.1     0.00000     2.77042     1 3d0   0.35251     1 3d2-  0.62774     1 3d1+ -0.42149     2 3d0   0.35218     2 3d2-  0.62541
                                    2 3d1+ -0.42039     3 1s    0.65084     6 1s    0.64720
   36.1     0.00000     2.90102     1 1s   -1.64180     1 2px  -0.31647     1 2px  -0.87610     1 2py   0.25744     1 2pz   0.41357
                                    1 3d2-  0.34738     1 3d1+  0.62857     1 3d2+ -0.63161     2 1s    1.64190     2 2px  -0.31649
                                    2 2px  -0.87613     2 2py   0.25722     2 2pz   0.41353     2 3d2- -0.34740     2 3d1+ -0.62859
                                    2 3d2+  0.63192


 HOMO      8.1    -0.366325 =      -9.9682eV
 LUMO      9.1     0.071143 =       1.9359eV
 LUMO-HOMO         0.437468 =      11.9041eV


 **********************************************************************************************************************************
 DATASETS  * FILE   NREC   LENGTH (MB)   RECORD NAMES
              1      19       31.12       500      610      700      900      950      970     1000      129      960     1100   
                                          VAR    BASINP    GEOM    SYMINP    ZMAT    AOBASIS   BASIS     P2S    ABASIS      S 
                                         1400     1410     1200     1210     1080     1600     1650     1300     1700   
                                           T        V       H0       H01     AOSYM     SMH    MOLCAS    ERIS     OPER   

              2       4        2.86       700     1000      520     2100   
                                         GEOM     BASIS   MCVARS     RHF  

 PROGRAMS   *        TOTAL    HF-SCF       INT
 CPU TIMES  *         0.36      0.09      0.17
 REAL TIME  *         0.53 SEC
 DISK USED  *        36.24 MB
 **********************************************************************************************************************************


 PROGRAM * MULTI (Direct Multiconfiguration SCF)       Authors: P.J. Knowles, H.-J. Werner (1984)


 Number of closed-shell orbitals:   7 (   7 )
 Number of active  orbitals:        2 (   2 )
 Number of external orbitals:      27 (  27 )

 State symmetry 1

 Number of electrons:     2    Spin symmetry=Singlet   Space symmetry=1
 Number of states:        3
 Number of CSFs:          3   (4 determinants, 4 intermediate states)

 Molecular orbitals read from record     2100.2  Type=RHF/CANONICAL (state 1.1)

 Wavefunction dump at record             2140.2

 Convergence thresholds  0.10E-01 (gradient)  0.10E-05 (energy)  0.10E-02 (step length)

 Weight factors for state symmetry  1:    0.33333   0.33333   0.33333

 Number of orbital rotations:      257   (    14 Core/Active    189 Core/Virtual   0 Active/Active     54 Active/Virtual)
 Total number of variables:        269

 Micro-Iterations solved by the two-step solver

 ITER. MIC  NCI  NEG     ENERGY(VAR)     ENERGY(PROJ)   ENERGY CHANGE     GRAD(0)  GRAD(ORB)   GRAD(CI)     STEP       TIME

   1   13    6    1     -77.64009250     -77.65915186   -0.01905935    0.10296140 0.00142680 0.00000000  0.29D+00      0.31
   2   12    6    0     -77.69387895     -77.70580070   -0.01192175    0.12071995 0.00002600 0.00000000  0.14D+00      0.46
   3    8    6    0     -77.70615562     -77.70625661   -0.00010099    0.01165604 0.00000113 0.00000000  0.14D-01      0.56
   4   10    6    0     -77.70625716     -77.70625717   -0.00000001    0.00011035 0.00000000 0.00000000  0.17D-03      0.67
   5    4    3    0     -77.70625717     -77.70625717    0.00000000    0.00000001 0.00000000 0.00000000  0.21D-07      0.73

 ** WVFN ****  CONVERGENCE REACHED, FINAL GRADIENT:  0.20D-12



 Results for state 1.1
 =====================

 !MCSCF STATE  1.1 Energy             -77.857043286501
 Nuclear energy                        31.59245465
 Kinetic energy                        77.77606638
 One electron energy                 -166.35965697
 Two electron energy                   56.91015903
 Virial ratio                           2.00104115

 !MCSCF STATE  1.1 Dipole moment       -0.00008606     0.00022889     0.00021300
 Dipole moment /Debye                  -0.00021873     0.00058175     0.00054136

 Results for state 2.1
 =====================

 !MCSCF STATE  2.1 Energy             -77.733082325937
 Nuclear energy                        31.59245465
 Kinetic energy                        77.87802302
 One electron energy                 -166.06468551
 Two electron energy                   56.73914854
 Virial ratio                           1.99813888

 !MCSCF STATE  2.1 Dipole moment        0.00000830    -0.00042283     0.00030060
 Dipole moment /Debye                   0.00002110    -0.00107465     0.00076401

 Results for state 3.1
 =====================

 !MCSCF STATE  3.1 Energy             -77.528645901801
 Nuclear energy                        31.59245465
 Kinetic energy                        77.97528211
 One electron energy                 -165.79962624
 Two electron energy                   56.67852569
 Virial ratio                           1.99427208

 !MCSCF STATE  3.1 Dipole moment       -0.00030953    -0.00098170     0.00076405
 Dipole moment /Debye                  -0.00078668    -0.00249508     0.00194190

 State-averaged charge density matrix saved on record  2140.2 (density set 1)

 !MCSCF expec         <1.1|DMX|1.1>    -0.000086061554 au =    -0.000218732324 Debye
 !MCSCF trans         <2.1|DMX|1.1>     0.001923977662 au =     0.004889943147 Debye
 !MCSCF expec         <2.1|DMX|2.1>     0.000008301101 au =     0.000021097912 Debye
 !MCSCF trans         <3.1|DMX|1.1>    -0.000060075338 au =    -0.000152686277 Debye
 !MCSCF trans         <3.1|DMX|2.1>     0.002078354367 au =     0.005282303893 Debye
 !MCSCF expec         <3.1|DMX|3.1>    -0.000309525767 au =    -0.000786684498 Debye

 !MCSCF expec         <1.1|DMY|1.1>     0.000228892627 au =     0.000581748923 Debye
 !MCSCF trans         <2.1|DMY|1.1>    -0.000422111093 au =    -0.001072829112 Debye
 !MCSCF expec         <2.1|DMY|2.1>    -0.000422827517 au =    -0.001074649961 Debye
 !MCSCF trans         <3.1|DMY|1.1>     0.000063398582 au =     0.000161132568 Debye
 !MCSCF trans         <3.1|DMY|2.1>    -0.000478549229 au =    -0.001216271150 Debye
 !MCSCF expec         <3.1|DMY|3.1>    -0.000981702949 au =    -0.002495076582 Debye

 !MCSCF expec         <1.1|DMZ|1.1>     0.000213002228 au =     0.000541362203 Debye
 !MCSCF trans         <2.1|DMZ|1.1>    -0.001757438121 au =    -0.004466669581 Debye
 !MCSCF expec         <2.1|DMZ|2.1>     0.000300604514 au =     0.000764010421 Debye
 !MCSCF trans         <3.1|DMZ|1.1>     0.000041043911 au =     0.000104316383 Debye
 !MCSCF trans         <3.1|DMZ|2.1>    -0.001892236042 au =    -0.004809269280 Debye
 !MCSCF expec         <3.1|DMZ|3.1>     0.000764052762 au =     0.001941901218 Debye


 NATURAL ORBITALS (state averaged)
 =================================

  Orbital  Occupation    Energy     Coefficients
    1.1     2.00000   -11.25529     1 1s    0.71205     2 1s    0.69676
    2.1     2.00000   -11.25480     1 1s   -0.69679     2 1s    0.71208
    3.1     2.00000    -1.01455     1 1s    0.27955     1 1s    0.25180     2 1s    0.27950     2 1s    0.25176
    4.1     2.00000    -0.80778     1 1s    0.28964     2 1s   -0.28983
    5.1     2.00000    -0.61800     1 2py   0.29751     2 2py   0.29739
    6.1     2.00000    -0.58315     1 2py   0.26639     2 2py  -0.26660
    7.1     2.00000    -0.39672     1 2pz  -0.33298     1 2pz  -0.29644     2 2pz  -0.33281     2 2pz  -0.29638
    8.1     1.00000    -0.08204     1 2pz   0.41904     1 2pz   0.43816     2 2pz  -0.41894     2 2pz  -0.43816
    9.1     1.00000    -0.24539     1 2px   0.32828     2 2px  -0.32806     4 1s   -0.26471     5 1s   -0.26455
   10.1    -0.00000     0.22039     1 1s   -1.11191     1 2px   0.47612     1 2py   0.38347     1 2pz   0.31301     2 1s   -1.11256
                                    2 2px  -0.47580     2 2py  -0.38168     2 2pz  -0.31373     3 1s    0.56388     4 1s    1.07873
                                    5 1s    1.07699     6 1s    0.56534
   11.1    -0.00000     0.29548     1 1s    1.92770     1 2pz  -0.49394     2 1s   -1.92835     2 2pz  -0.49450     3 1s   -1.42552
                                    4 1s   -0.44605     5 1s    0.44417     6 1s    1.42870
   12.1    -0.00000     0.30882     1 1s    0.58454     1 2py  -0.85746     2 1s   -0.58736     2 2py  -0.85981     3 1s    0.45338
                                    4 1s   -1.52540     5 1s    1.52972     6 1s   -0.45399
   13.1    -0.00000     0.33150     1 1s   -1.01264     1 2px   0.41496     1 2py  -1.11318     1 2pz   0.36729     2 1s   -1.00505
                                    2 2px  -0.41548     2 2py   1.11170     2 2pz  -0.36513     3 1s    1.84064     4 1s   -0.44694
                                    5 1s   -0.44628     6 1s    1.83417
   14.1    -0.00000     0.41004     1 1s    1.14762     1 2px   0.26004     1 2px   1.64404     1 2py  -0.60277     1 2pz  -0.54029
                                    2 1s   -1.14946     2 2px   0.25999     2 2px   1.64337     2 2py  -0.60178     2 2pz  -0.54089
                                    3 1s    0.99402     6 1s   -0.99145
   15.1    -0.00000     0.72218     1 2px   0.54621     1 2px  -0.90333     2 2px  -0.52771     2 2px   0.84565     3 1s   -0.28103
                                    4 1s   -0.29037     4 1s    0.40061     5 1s   -0.30057     5 1s    0.39912     6 1s   -0.25912
   16.1    -0.00000     0.72342     1 2px   0.25612     1 2py  -0.33846     1 2px  -0.80809     1 2py   0.81514     2 2px   0.29244
                                    2 2py  -0.32575     2 2px  -0.86555     2 2py   0.80506     3 1s   -0.47655     3 1s   -0.30498
                                    6 1s    0.48224     6 1s    0.32002
   17.1    -0.00000     0.79903     1 1s    0.38331     1 2pz   0.74548     1 2pz  -0.76565     2 1s   -0.38169     2 2pz   0.74680
                                    2 2pz  -0.76675
   18.1    -0.00000     0.82164     1 1s   -0.36959     1 2py   0.49923     1 2pz   0.47055     1 2py  -1.18532     1 2pz  -0.52269
                                    2 1s   -0.36810     2 2py  -0.49923     2 2pz  -0.46778     2 2py   1.18584     2 2pz   0.52088
                                    3 1s    0.37261     6 1s    0.37250
   19.1    -0.00000     0.86983     1 1s   -0.29786     1 2px  -0.28532     1 2py   0.32944     1 2pz  -0.53893     1 2px   0.59130
                                    1 2py  -1.01289     1 2pz   0.89746     2 1s   -0.29802     2 2px   0.28492     2 2py  -0.33057
                                    2 2pz   0.53986     2 2px  -0.59111     2 2py   1.01473     2 2pz  -0.89765     3 1s    0.53575
                                    6 1s    0.53583
   20.1    -0.00000     0.94587     1 1s    0.26140     1 1s   -0.39760     1 2px   0.68783     1 2py   0.31411     1 2px  -0.99639
                                    1 2py  -0.63935     2 1s   -0.26230     2 1s    0.39752     2 2px   0.68827     2 2py   0.31300
                                    2 2px  -0.99707     2 2py  -0.63710     4 1s   -0.26575     4 1s   -0.58688     5 1s    0.26495
                                    5 1s    0.58725
   21.1    -0.00000     1.08453     1 1s   -0.30533     1 1s    0.55490     1 2px   0.32793     1 2py   0.37232     1 2py  -0.46635
                                    2 1s   -0.28960     2 1s    0.53269     2 2px  -0.32315     2 2py  -0.34562     2 2py   0.43023
                                    4 1s    0.77618     4 1s   -0.99951     5 1s    0.73864     5 1s   -0.93115
   22.1    -0.00000     1.09342     1 1s    0.30320     1 1s   -0.40553     1 2py  -0.50889     1 2px   0.39033     1 2py   0.67023
                                    2 1s   -0.31531     2 1s    0.42796     2 2py  -0.52745     2 2px   0.40099     2 2py   0.69447
                                    4 1s   -0.72451     4 1s    1.30559     5 1s    0.76335     5 1s   -1.35363
   23.1    -0.00000     1.12136     1 1s   -1.16918     1 1s    2.21795     1 2px  -0.52749     1 2py   0.38715     1 2pz  -0.76660
                                    2 1s   -1.16712     2 1s    2.21070     2 2px   0.53052     2 2py  -0.38494     2 2pz   0.76576
                                    3 1s   -0.50011     3 1s   -0.77148     4 1s   -0.64448     5 1s   -0.64911     6 1s   -0.50047
                                    6 1s   -0.76775
   24.1    -0.00000     1.21915     1 1s   -0.37393     1 1s    1.75439     1 2px  -0.37509     1 2py   0.44251     1 2px   1.38096
                                    1 2py  -1.05697     1 2pz  -0.43217     2 1s    0.36694     2 1s   -1.74469     2 2px  -0.37692
                                    2 2py   0.44638     2 2px   1.38303     2 2py  -1.06045     2 2pz  -0.43095     3 1s   -0.59567
                                    3 1s    1.12607     4 1s   -0.28418     5 1s    0.28216     6 1s    0.60310     6 1s   -1.13706
   25.1    -0.00000     1.27802     1 1s   -0.77463     1 1s    1.20435     1 2py  -0.40121     1 2px  -0.38890     1 2py   0.47944
                                    2 1s   -0.88283     2 1s    1.50680     2 2py   0.40355     2 2px   0.32903     2 2py  -0.44741
                                    2 2pz   0.29824     3 1s    0.68751     3 1s   -1.25202     6 1s    0.69729     6 1s   -1.30642
   26.1    -0.00000     1.28602     1 1s   -1.58748     1 1s    4.29808     1 2px   0.67304     1 2py  -0.29998     1 2pz  -0.88871
                                    2 1s    1.53380     2 1s   -4.21090     2 2px   0.69648     2 2py  -0.32947     2 2pz  -0.87230
                                    3 1s    0.26075     3 1s   -1.03298     4 1s   -0.48335     5 1s    0.48435     6 1s    0.94813
   27.1    -0.00000     1.68493     1 1s   -0.27774     1 3d0  -0.29755     1 3d2-  0.29762     1 3d2+  0.34957     2 1s    0.27848
                                    2 3d0   0.29784     2 3d2- -0.29754     2 3d2+ -0.34917
   28.1    -0.00000     1.91541     1 1s    0.69296     1 3d2- -0.27573     1 3d1+  0.42009     1 3d1-  0.41360     2 1s   -0.69335
                                    2 3d2-  0.27641     2 3d1+ -0.42008     2 3d1- -0.41251     3 1s   -0.27913     6 1s    0.27912
   29.1    -0.00000     1.99139     1 1s    0.28426     1 1s   -0.68657     1 2pz   0.30971     1 3d0   0.35938     1 3d1+  0.37745
                                    1 3d2+  0.31342     1 3d1-  0.32394     2 1s    0.28403     2 1s   -0.68512     2 2pz  -0.30949
                                    2 3d0   0.35964     2 3d1+  0.37782     2 3d2+  0.31395     2 3d1-  0.32339     3 1s    0.33841
                                    6 1s    0.33794
   30.1    -0.00000     2.13097     1 1s   -0.44629     1 2px  -0.27285     1 2px   0.30518     1 2py  -0.26163     1 3d2- -0.25335
                                    1 3d1+ -0.33538     1 3d2+  0.39321     2 1s   -0.44638     2 2px   0.27295     2 2px  -0.30499
                                    2 2py   0.26180     2 3d2- -0.25332     2 3d1+ -0.33518     2 3d2+  0.39314
   31.1    -0.00000     2.26804     1 1s    0.34370     1 1s   -1.49665     1 2px  -0.36228     1 2py   0.27772     1 2pz   0.36882
                                    1 3d0   0.61714     1 3d2+  0.34858     2 1s   -0.34368     2 1s    1.49741     2 2px  -0.36177
                                    2 2py   0.27570     2 2pz   0.36934     2 3d0  -0.61627     2 3d2+ -0.34813     3 1s    0.38754
                                    4 1s    0.40079     5 1s   -0.39951     6 1s   -0.38830
   32.1    -0.00000     2.31849     1 2py   0.43455     1 3d0   0.49875     1 3d2- -0.33759     1 3d1+ -0.28187     1 3d1- -0.34754
                                    2 2py  -0.43501     2 3d0   0.49982     2 3d2- -0.33648     2 3d1+ -0.28255     2 3d1- -0.34784
                                    4 1s    0.38942     5 1s    0.39054
   33.1    -0.00000     2.53480     1 2py   0.37524     1 3d2-  0.30549     1 3d2+  0.53779     1 3d1- -0.49680     2 2py  -0.37422
                                    2 3d2-  0.30838     2 3d2+  0.53784     2 3d1- -0.49479     4 1s    0.34646     5 1s    0.34572
   34.1    -0.00000     2.58037     1 1s   -0.34667     1 2px  -0.28325     1 2py   0.35924     1 3d2- -0.54713     1 3d1- -0.55509
                                    2 1s    0.34751     2 2px  -0.28281     2 2py   0.36167     2 3d2-  0.54792     2 3d1-  0.55856
                                    3 1s   -0.60696     4 1s    0.35379     5 1s   -0.35675     6 1s    0.60808
   35.1    -0.00000     2.77144     1 3d0   0.36152     1 3d2-  0.61811     1 3d1+ -0.42625     2 3d0   0.36111     2 3d2-  0.61581
                                    2 3d1+ -0.42530     3 1s    0.65123     6 1s    0.64765
   36.1    -0.00000     2.89475     1 1s   -1.67582     1 2px  -0.30990     1 2px  -0.89009     1 2py   0.26658     1 2pz   0.42178
                                    1 3d2-  0.34456     1 3d1+  0.63187     1 3d2+ -0.62813     2 1s    1.67598     2 2px  -0.30993
                                    2 2px  -0.89007     2 2py   0.26631     2 2pz   0.42174     2 3d2- -0.34466     2 3d1+ -0.63181
                                    2 3d2+  0.62844


 Natural orbital dump (state averaged) at molpro section  2140.2    (Orbital set 2)



 **********************************************************************************************************************************
 DATASETS  * FILE   NREC   LENGTH (MB)   RECORD NAMES
              1      20       31.85       500      610      700      900      950      970     1000      129      960     1100   
                                          VAR    BASINP    GEOM    SYMINP    ZMAT    AOBASIS   BASIS     P2S    ABASIS      S 
                                         1400     1410     1200     1210     1080     1600     1650     1300     1700     1380   
                                           T        V       H0       H01     AOSYM     SMH    MOLCAS    ERIS     OPER     JKOP   

              2       5        5.42       700     1000      520     2100     2140   
                                         GEOM     BASIS   MCVARS     RHF     MCSCF   

 PROGRAMS   *        TOTAL     MULTI    HF-SCF       INT
 CPU TIMES  *         1.13      0.77      0.09      0.17
 REAL TIME  *         1.38 SEC
 DISK USED  *        39.03 MB
 **********************************************************************************************************************************
 Molecular orbitals read from record     2140.2  Type=MCSCF/NATURAL (state averaged)
 Occupation numbers read from record     2140.2  Type=MCSCF/NATURAL (state averaged)
 Orbital energies read from record       2140.2  Type=MCSCF/NATURAL (state averaged)
 Redundancy group numbers read from rec  2140.2  Type=MCSCF/NATURAL (state averaged)

 MULTI/6-31G* energy=    -77.528645901801

           MULTI          HF-SCF
    -77.52864590    -77.86391398
 **********************************************************************************************************************************
 Molpro calculation terminated
