
 Primary working directories    : /scratch.local/johan406.molpro_temp/molpro.4z1O4rTsDg
 Secondary working directories  : /scratch.local/johan406.molpro_temp/molpro.4z1O4rTsDg
 Wavefunction directory         : /home/goodpast/johan406/wfu/
 Main file repository           : /scratch.local/johan406.molpro_temp/molpro.4z1O4rTsDg/

 id        : roweumn

 Nodes     nprocs
 acn06        1

 Using customized tuning parameters: mindgm=1; mindgv=20; mindgc=4; mindgr=1; noblas=0; minvec=7
 default implementation of scratch files=df  


 Variables initialized (934), CPU time= 0.00 sec
                                                                                 !leave this line blank
 
 gprint, orbitals=30
 memory, 125., m
 symmetry, nosym
 nelect=16
 basis=6-31g*
 
 geometry={
 C -0.711 0.134 0.287
 C 0.720 -0.184 -0.348
 H -1.287 1.048 0.097
 H -1.395 -0.751 -0.031
 H 1.404 0.699 -0.027
 H 1.295 -1.099 -0.157
 }
 
 hf
 {multi,
 closed 7
 occ 9
 wf,spin=0;STATE,3
 }
 
 Commands  initialized (763), CPU time= 0.01 sec, 617 directives.
 Default parameters read. Elapsed time= 0.06 sec

 Checking input...
 Passed
1


                                         ***  PROGRAM SYSTEM MOLPRO  ***
                                       Copyright, TTI GmbH Stuttgart, 2015
                                    Version 2019.2 linked Oct 25 2019 22:50:27


 **********************************************************************************************************************************
 LABEL *                                                                                 
  64 bit serial version                                                                  DATE: 15-Mar-23          TIME: 16:49:26  
 **********************************************************************************************************************************

 SHA1:             8dbd9ae1082e4ce945b0f27595c9eb2d4aa09004
 **********************************************************************************************************************************


 Variable memory set to  125000000 words,  buffer space 

 SETTING NELECT         =        16.00000000                                  
 SETTING BASIS          =    6-31G*
 ZSYMEL=NOSYM


Geometry recognized as XYZ



 Recomputing integrals since basis changed


 Using spherical harmonics

 Library entry C      S 6-31G                selected for orbital group  1
 Library entry C      P 6-31G                selected for orbital group  1
 Library entry C      D 6-31G*               selected for orbital group  1
 Library entry H      S 6-31G                selected for orbital group  2


 PROGRAM * SEWARD (Integral evaluation for generally contracted gaussian basis sets)     Author: Roland Lindh, 1990

 Geometry written to block  1 of record 700


 Point group  C1  



 ATOMIC COORDINATES

 NR  ATOM    CHARGE       X              Y              Z

   1  C       6.00   -1.343595275    0.253223301    0.542351398
   2  C       6.00    1.360602810   -0.347709607   -0.657624691
   3  H       1.00   -2.432077522    1.980432979    0.183303434
   4  H       1.00   -2.636167944   -1.419184320   -0.058581510
   5  H       1.00    2.653175479    1.320918561   -0.051022605
   6  H       1.00    2.447195331   -2.076809011   -0.296687002

 Bond lengths in Bohr (Angstrom)

 1-2  3.018898848  1-3  2.072911555  1-4  2.197455736  2-5  2.196139831  2-6  2.073823539
     ( 1.597532472)     ( 1.096937555)     ( 1.162843498)     ( 1.162147151)     ( 1.097420157)

 Bond angles

  1-2-5  105.43688124   1-2-6  124.48044351   2-1-3  124.56713304   2-1-4  105.46801327

  3-1-4  106.13519122   5-2-6  106.08396024

 NUCLEAR CHARGE:                   16
 NUMBER OF PRIMITIVE AOS:          72
 NUMBER OF SYMMETRY AOS:           70
 NUMBER OF CONTRACTIONS:           36   (   36A   )
 NUMBER OF CORE ORBITALS:           2   (    2A   )
 NUMBER OF VALENCE ORBITALS:       12   (   12A   )


 NUCLEAR REPULSION ENERGY   29.99624364

 Eigenvalues of metric

         1 0.152E-01 0.309E-01 0.572E-01 0.588E-01 0.856E-01 0.242E+00 0.245E+00 0.307E+00


 Contracted 2-electron integrals neglected if value below      1.0D-11
 AO integral compression algorithm  1   Integral accuracy      1.0D-11

     1.311 MB (compressed) written to integral file ( 68.0%)


 NUMBER OF SORTED TWO-ELECTRON INTEGRALS:     222111.     BUFFER LENGTH:  32768
 NUMBER OF SEGMENTS:   1  SEGMENT LENGTH:     222111      RECORD LENGTH: 524288

 Memory used in sort:       0.78 MW

 SORT1 READ      284735. AND WROTE      212520. INTEGRALS IN      1 RECORDS. CPU TIME:     0.00 SEC, REAL TIME:     0.01 SEC
 SORT2 READ      212520. AND WROTE      222111. INTEGRALS IN      5 RECORDS. CPU TIME:     0.02 SEC, REAL TIME:     0.02 SEC

 FILE SIZES:   FILE 1:    31.4 MBYTE,  FILE 4:     4.2 MBYTE,   TOTAL:     35.6 MBYTE

 OPERATOR DM      FOR CENTER  0  COORDINATES:    0.000000    0.000000    0.000000


 **********************************************************************************************************************************
 DATASETS  * FILE   NREC   LENGTH (MB)   RECORD NAMES
              1      19       31.11       500      610      700      900      950      970     1000      129      960     1100   
                                          VAR    BASINP    GEOM    SYMINP    ZMAT    AOBASIS   BASIS     P2S    ABASIS      S 
                                         1400     1410     1200     1210     1080     1600     1650     1300     1700   
                                           T        V       H0       H01     AOSYM     SMH    MOLCAS    ERIS     OPER   

 PROGRAMS   *        TOTAL       INT
 CPU TIMES  *         0.28      0.18
 REAL TIME  *         0.44 SEC
 DISK USED  *        35.97 MB
 **********************************************************************************************************************************


 PROGRAM * RHF-SCF (CLOSED SHELL)       Authors: W. Meyer, H.-J. Werner


 NUMBER OF ELECTRONS:       8+    8-    SPACE SYMMETRY=1    SPIN SYMMETRY: Singlet 
 CONVERGENCE THRESHOLDS:    1.00E-05 (Density)    1.00E-07 (Energy)
 MAX. NUMBER OF ITERATIONS:       60
 INTERPOLATION TYPE:            DIIS
 INTERPOLATION STEPS:              2 (START)      1 (STEP)
 LEVEL SHIFTS:                  0.00 (CLOSED)  0.00 (OPEN) 



 Orbital guess generated from atomic densities. Full valence occupancy:    8

 Molecular orbital dump at record        2100.2

 Initial occupancy:   8

 ITERATION    DDIFF          GRAD             ENERGY        2-EL.EN.            DIPOLE MOMENTS         DIIS   ORB.
    1      0.000D+00      0.000D+00       -77.89563344    111.136530   -0.00185   -0.00032    0.00231    0    start
    2      0.000D+00      0.666D-02       -77.91419333    110.480196   -0.00073   -0.00009    0.00104    1    diag
    3      0.671D-02      0.220D-02       -77.91674603    110.796956   -0.00187    0.00032    0.00223    2    diag
    4      0.314D-02      0.827D-03       -77.91727659    110.676395   -0.00094    0.00005    0.00124    3    diag
    5      0.148D-02      0.377D-03       -77.91749252    110.688606   -0.00220    0.00050    0.00253    4    diag
    6      0.131D-02      0.108D-03       -77.91751048    110.686567   -0.00015   -0.00025    0.00039    5    diag
    7      0.337D-03      0.370D-04       -77.91751140    110.686759   -0.00195    0.00040    0.00226    6    diag
    8      0.574D-04      0.162D-04       -77.91751157    110.687095   -0.00135    0.00019    0.00164    7    diag
    9      0.245D-04      0.363D-05       -77.91751159    110.687093   -0.00138    0.00020    0.00167    8    diag
   10      0.107D-04      0.881D-06       -77.91751159    110.687095   -0.00138    0.00020    0.00167    9    orth
   11      0.213D-05      0.176D-06       -77.91751159    110.687093   -0.00138    0.00020    0.00167    0    orth

 Final occupancy:   8

 !RHF STATE  1.1 Energy               -77.917511588309
 Nuclear energy                        29.99624364
 One-electron energy                 -163.25730187
 Two-electron energy                   55.34354664
 Virial quotient                       -1.00758234
 !RHF STATE  1.1 Dipole moment         -0.00137682     0.00019645     0.00166799
 Dipole moment /Debye                  -0.00349929     0.00049930     0.00423934

 ELECTRON ORBITALS
 =================

  Orbital  Occupation    Energy     Coefficients
    1.1     2.00000   -11.27871     1 1s    0.82025     2 1s    0.56555
    2.1     2.00000   -11.27818     1 1s    0.56565     2 1s   -0.82031
    3.1     2.00000    -0.96761     1 1s    0.28872     1 1s    0.27057     2 1s    0.28855     2 1s    0.27049
    4.1     2.00000    -0.80719     1 1s    0.26584     2 1s   -0.26592
    5.1     2.00000    -0.58688     1 2py   0.30791     2 2py   0.30667
    6.1     2.00000    -0.55041     1 2px   0.28467     2 2px  -0.28429
    7.1     2.00000    -0.47063     1 2px   0.25991     2 2px  -0.26022
    8.1     2.00000    -0.34548     1 2pz   0.31732     1 2pz   0.31147     2 2pz   0.31763     2 2pz   0.31169
    9.1     0.00000     0.08061     1 1s    0.32197     1 2pz   0.34979     1 2pz   0.50433     2 1s    0.32229     2 2pz  -0.34942
                                    2 2pz  -0.50376
   10.1     0.00000     0.25530     1 1s   -1.27489     1 2px   0.67006     1 2pz   0.38858     2 1s   -1.27512     2 2px  -0.66749
                                    2 2pz  -0.39033     3 1s    0.85672     4 1s    1.09831     5 1s    1.09151     6 1s    0.86044
   11.1     0.00000     0.26926     1 1s    1.57292     1 2py   0.29568     1 2pz  -0.33250     2 1s   -1.56935     2 2py   0.29542
                                    2 2pz  -0.33248     3 1s   -1.26220     4 1s   -0.32922     5 1s    0.32800     6 1s    1.25881
   12.1     0.00000     0.29709     1 1s    0.75202     1 2py  -0.67053     2 1s   -0.76219     2 2py  -0.67007     3 1s    0.32180
                                    4 1s   -1.38703     5 1s    1.39532     6 1s   -0.31490
   13.1     0.00000     0.33701     1 1s   -0.44255     1 2py  -0.25475     1 2py  -1.21040     2 1s   -0.44295     2 2py   0.25490
                                    2 2py   1.21070     3 1s    1.46096     4 1s   -0.84521     5 1s   -0.84541     6 1s    1.46114
   14.1     0.00000     0.40097     1 1s    1.01284     1 2px   0.27054     1 2px   1.60084     1 2py  -0.51651     1 2pz  -0.55677
                                    2 1s   -1.01435     2 2px   0.27053     2 2px   1.60041     2 2py  -0.51597     2 2pz  -0.55604
                                    3 1s    0.86474     6 1s   -0.86234
   15.1     0.00000     0.71711     1 2py  -0.43090     1 2px  -0.54646     1 2py   0.74158     2 2py  -0.43139     2 2px  -0.54443
                                    2 2py   0.74141     3 1s   -0.44822     6 1s    0.44814
   16.1     0.00000     0.75473     1 1s    0.34334     1 2px   0.61896     1 2px  -0.95538     2 1s    0.34479     2 2px  -0.61937
                                    2 2px   0.95427
   17.1     0.00000     0.80563     1 2pz   0.76721     1 2pz  -0.65099     2 2pz   0.76613     2 2pz  -0.64984
   18.1     0.00000     0.84650     1 1s    0.29541     1 1s   -0.33366     1 2pz   0.73954     1 2py  -0.29247     1 2pz  -0.88006
                                    2 1s    0.29694     2 1s   -0.33590     2 2pz  -0.73961     2 2py   0.29237     2 2pz   0.87984
   19.1     0.00000     0.85899     1 1s    0.52923     1 2px  -0.67563     1 2px   1.29371     2 1s   -0.53091     2 2px  -0.67364
                                    2 2px   1.28939     4 1s    0.34825     5 1s   -0.34771
   20.1     0.00000     0.92486     1 1s    0.26335     1 2py  -0.68351     1 2py   1.78490     2 1s    0.26549     2 2py   0.68320
                                    2 2py  -1.78360     3 1s   -0.68054     4 1s    0.42494     5 1s    0.42358     6 1s   -0.67976
   21.1     0.00000     1.05743     1 1s    0.83038     1 1s   -1.55428     1 2px   0.52823     1 2py  -0.50268     1 2pz   0.63011
                                    2 1s    0.82425     2 1s   -1.54059     2 2px  -0.53867     2 2py   0.50213     2 2pz  -0.62900
                                    3 1s    0.52267     3 1s    0.50804     4 1s    0.42466     5 1s    0.42205     6 1s    0.52224
                                    6 1s    0.50707
   22.1     0.00000     1.11393     1 1s   -0.25917     1 1s    0.46000     1 2px   0.25003     1 2py   0.58106     1 2px  -0.45323
                                    1 2py  -0.80801     2 1s   -0.41395     2 2py   0.57010     2 2px  -0.43751     2 2py  -0.80369
                                    3 1s    0.43615     4 1s    0.64325     4 1s   -1.32989     5 1s   -0.61883     5 1s    1.28904
                                    6 1s   -0.43914
   23.1     0.00000     1.12679     1 1s   -0.48633     1 1s    0.91546     1 2py   0.33495     1 2px  -0.34408     2 1s   -0.49080
                                    2 1s    0.92116     2 2py  -0.35655     2 2px   0.36086     3 1s   -0.30300     4 1s    0.68555
                                    4 1s   -1.04156     5 1s    0.70845     5 1s   -1.08836     6 1s   -0.31010
   24.1     0.00000     1.17247     1 1s    0.34584     1 1s   -0.35240     1 2px  -0.43491     1 2py   0.37441     1 2px   0.87770
                                    1 2py  -0.60709     2 1s   -0.36091     2 1s    0.37588     2 2px  -0.43925     2 2py   0.37752
                                    2 2px   0.88353     2 2py  -0.60889     3 1s   -0.64449     3 1s    1.24010     4 1s   -0.27605
                                    4 1s    0.28002     5 1s    0.27921     5 1s   -0.28827     6 1s    0.65531     6 1s   -1.25635
   25.1     0.00000     1.18297     1 1s   -1.00116     1 1s    1.63184     1 2py  -0.28755     1 2px  -0.45364     1 2py   0.33454
                                    2 1s   -0.99873     2 1s    1.63386     2 2py   0.27881     2 2px   0.44009     2 2py  -0.32062
                                    3 1s    0.63048     3 1s   -1.20865     4 1s   -0.37014     5 1s   -0.37369     6 1s    0.61886
                                    6 1s   -1.18660
   26.1     0.00000     1.28555     1 1s    1.55463     1 1s   -4.02256     1 2px  -0.92868     1 2py   0.37660     1 2pz   0.75154
                                    2 1s   -1.55917     2 1s    4.03264     2 2px  -0.92552     2 2py   0.37088     2 2pz   0.75664
                                    3 1s    0.42381     4 1s    0.25231     4 1s    0.44917     5 1s   -0.25236     5 1s   -0.45240
                                    6 1s   -0.42678
   27.1     0.00000     1.76164     1 1s   -0.65702     1 3d1+ -0.36003     1 3d2+ -0.38806     1 3d1-  0.33449     2 1s    0.65953
                                    2 3d1+  0.35947     2 3d2+  0.38803     2 3d1- -0.33506
   28.1     0.00000     1.89186     1 1s    0.34277     1 3d2- -0.34965     1 3d1+  0.37798     1 3d1-  0.43613     2 1s   -0.34251
                                    2 3d2-  0.35171     2 3d1+ -0.37804     2 3d1- -0.43370
   29.1     0.00000     2.01959     1 1s    0.37788     1 1s   -0.59980     1 3d0   0.46805     1 3d1+  0.47672     2 1s    0.37872
                                    2 1s   -0.60282     2 3d0   0.46978     2 3d1+  0.47651
   30.1     0.00000     2.07858     1 2px   0.32218     1 2py  -0.47197     1 3d2+  0.47589     1 3d1-  0.43420     2 2px  -0.31975
                                    2 2py   0.47113     2 3d2+  0.47507     2 3d1-  0.43273
   31.1     0.00000     2.27436     1 2px  -0.28139     1 2py  -0.53915     1 3d2+ -0.40174     1 3d1-  0.56989     2 2px   0.28054
                                    2 2py   0.53854     2 3d2+ -0.40697     2 3d1-  0.56954     4 1s   -0.46132     5 1s   -0.46539
   32.1     0.00000     2.29357     1 1s    0.35768     1 1s   -1.18369     1 3d0   0.65584     1 3d2+  0.31136     2 1s   -0.35756
                                    2 1s    1.18092     2 3d0  -0.65300     2 3d2+ -0.30397     3 1s    0.43376     4 1s    0.30970
                                    5 1s   -0.30073     6 1s   -0.43474
   33.1     0.00000     2.44052     1 3d0   0.49356     1 3d2- -0.26818     1 3d1+ -0.47442     1 3d2+ -0.26175     2 3d0   0.49184
                                    2 3d2- -0.26404     2 3d1+ -0.47528     2 3d2+ -0.26142
   34.1     0.00000     2.49779     1 1s   -0.72183     1 2px  -0.31657     1 2py   0.29852     1 3d2- -0.57106     1 3d1- -0.46393
                                    2 1s    0.72356     2 2px  -0.31506     2 2py   0.30125     2 3d2-  0.57291     2 3d1-  0.46785
                                    3 1s   -0.40754     4 1s    0.46044     5 1s   -0.46523     6 1s    0.40801
   35.1     0.00000     2.69568     1 3d0   0.27225     1 3d2-  0.72125     2 3d0   0.27263     2 3d2-  0.72098     3 1s    0.54599
                                    6 1s    0.54474
   36.1     0.00000     2.87345     1 1s   -1.50150     1 2px  -0.25321     1 2px  -0.87189     1 2pz   0.37362     1 3d2-  0.34704
                                    1 3d1+  0.59306     1 3d2+ -0.61930     2 1s    1.50150     2 2px  -0.25331     2 2px  -0.87220
                                    2 2pz   0.37350     2 3d2- -0.34583     2 3d1+ -0.59385     2 3d2+  0.61986


 HOMO      8.1    -0.345478 =      -9.4009eV
 LUMO      9.1     0.080610 =       2.1935eV
 LUMO-HOMO         0.426088 =      11.5944eV


 **********************************************************************************************************************************
 DATASETS  * FILE   NREC   LENGTH (MB)   RECORD NAMES
              1      19       31.11       500      610      700      900      950      970     1000      129      960     1100   
                                          VAR    BASINP    GEOM    SYMINP    ZMAT    AOBASIS   BASIS     P2S    ABASIS      S 
                                         1400     1410     1200     1210     1080     1600     1650     1300     1700   
                                           T        V       H0       H01     AOSYM     SMH    MOLCAS    ERIS     OPER   

              2       4        2.86       700     1000      520     2100   
                                         GEOM     BASIS   MCVARS     RHF  

 PROGRAMS   *        TOTAL    HF-SCF       INT
 CPU TIMES  *         0.38      0.10      0.18
 REAL TIME  *         0.61 SEC
 DISK USED  *        35.97 MB
 **********************************************************************************************************************************


 PROGRAM * MULTI (Direct Multiconfiguration SCF)       Authors: P.J. Knowles, H.-J. Werner (1984)


 Number of closed-shell orbitals:   7 (   7 )
 Number of active  orbitals:        2 (   2 )
 Number of external orbitals:      27 (  27 )

 State symmetry 1

 Number of electrons:     2    Spin symmetry=Singlet   Space symmetry=1
 Number of states:        3
 Number of CSFs:          3   (4 determinants, 4 intermediate states)

 Molecular orbitals read from record     2100.2  Type=RHF/CANONICAL (state 1.1)

 Wavefunction dump at record             2140.2

 Convergence thresholds  0.10E-01 (gradient)  0.10E-05 (energy)  0.10E-02 (step length)

 Weight factors for state symmetry  1:    0.33333   0.33333   0.33333

 Number of orbital rotations:      257   (    14 Core/Active    189 Core/Virtual   0 Active/Active     54 Active/Virtual)
 Total number of variables:        269

 Micro-Iterations solved by the two-step solver

 ITER. MIC  NCI  NEG     ENERGY(VAR)     ENERGY(PROJ)   ENERGY CHANGE     GRAD(0)  GRAD(ORB)   GRAD(CI)     STEP       TIME

   1   11    6    0     -77.70684134     -77.71279472   -0.00595338    0.09957908 0.00027889 0.00000000  0.11D+00      0.15
   2   12    6    0     -77.71261231     -77.71271126   -0.00009896    0.00909705 0.00000853 0.00000000  0.31D-01      0.29
   3   12    6    0     -77.71271476     -77.71271595   -0.00000119    0.00074142 0.00000008 0.00000000  0.35D-02      0.43
   4    7    5    0     -77.71271596     -77.71271596   -0.00000000    0.00000534 0.00000000 0.00000000  0.10D-04      0.53

 ** WVFN ****  CONVERGENCE REACHED, FINAL GRADIENT:  0.45D-10



 Results for state 1.1
 =====================

 !MCSCF STATE  1.1 Energy             -77.947194245438
 Nuclear energy                        29.99624364
 Kinetic energy                        77.38168897
 One electron energy                 -163.21064747
 Two electron energy                   55.26720958
 Virial ratio                           2.00730800

 !MCSCF STATE  1.1 Dipole moment       -0.00300501     0.00000861     0.00192171
 Dipole moment /Debye                  -0.00763747     0.00002188     0.00488419

 Results for state 2.1
 =====================

 !MCSCF STATE  2.1 Energy             -77.644937443906
 Nuclear energy                        29.99624364
 Kinetic energy                        77.53048399
 One electron energy                 -163.01265483
 Two electron energy                   55.37147374
 Virial ratio                           2.00147624

 !MCSCF STATE  2.1 Dipole moment       -0.00079875    -0.00011461     0.00247255
 Dipole moment /Debye                  -0.00203009    -0.00029129     0.00628419

 Results for state 3.1
 =====================

 !MCSCF STATE  3.1 Energy             -77.546016178219
 Nuclear energy                        29.99624364
 Kinetic energy                        77.67927862
 One electron energy                 -162.81466133
 Two electron energy                   55.27240151
 Virial ratio                           1.99828445

 !MCSCF STATE  3.1 Dipole moment        0.00189755    -0.00034279     0.00267129
 Dipole moment /Debye                   0.00482277    -0.00087124     0.00678929

 State-averaged charge density matrix saved on record  2140.2 (density set 1)

 !MCSCF expec         <1.1|DMX|1.1>    -0.003005010296 au =    -0.007637474067 Debye
 !MCSCF trans         <2.1|DMX|1.1>     1.172621634561 au =     2.980311693967 Debye
 !MCSCF expec         <2.1|DMX|2.1>    -0.000798752396 au =    -0.002030093113 Debye
 !MCSCF trans         <3.1|DMX|1.1>    -0.001622986043 au =    -0.004124948868 Debye
 !MCSCF trans         <3.1|DMX|2.1>     2.257412322963 au =     5.737394011796 Debye
 !MCSCF expec         <3.1|DMX|3.1>     0.001897546869 au =     0.004822767171 Debye

 !MCSCF expec         <1.1|DMY|1.1>     0.000008609711 au =     0.000021882269 Debye
 !MCSCF trans         <2.1|DMY|1.1>    -0.251171019690 au =    -0.638371240223 Debye
 !MCSCF expec         <2.1|DMY|2.1>    -0.000114609469 au =    -0.000291289134 Debye
 !MCSCF trans         <3.1|DMY|1.1>     0.000102104381 au =     0.000259506452 Debye
 !MCSCF trans         <3.1|DMY|2.1>    -0.483529020088 au =    -1.228927686876 Debye
 !MCSCF expec         <3.1|DMY|3.1>    -0.000342793619 au =    -0.000871237406 Debye

 !MCSCF expec         <1.1|DMZ|1.1>     0.001921712205 au =     0.004884185306 Debye
 !MCSCF trans         <2.1|DMZ|1.1>    -0.842554746305 au =    -2.141420292114 Debye
 !MCSCF expec         <2.1|DMZ|2.1>     0.002472553427 au =     0.006284192339 Debye
 !MCSCF trans         <3.1|DMZ|1.1>    -0.000335138112 au =    -0.000851780322 Debye
 !MCSCF trans         <3.1|DMZ|2.1>    -1.622001184579 au =    -4.122445770703 Debye
 !MCSCF expec         <3.1|DMZ|3.1>     0.002671288990 au =     0.006789294670 Debye


 NATURAL ORBITALS (state averaged)
 =================================

  Orbital  Occupation    Energy     Coefficients
    1.1     2.00000   -11.28262     1 1s    0.86006     2 1s    0.50293
    2.1     2.00000   -11.28218     1 1s    0.50297     2 1s   -0.86009
    3.1     2.00000    -0.97133     1 1s    0.29349     1 1s    0.27368     2 1s    0.29357     2 1s    0.27404
    4.1     2.00000    -0.81092     1 1s    0.29718     2 1s   -0.29737
    5.1     2.00000    -0.59329     1 2py   0.31034     2 2py   0.30875
    6.1     2.00000    -0.55444     1 2px   0.28694     2 2px  -0.28697
    7.1     2.00000    -0.47545     1 2px   0.25485     2 2px  -0.25707
    8.1     1.00000    -0.21516     1 2pz   0.29509     1 2pz   0.31127     2 2pz   0.29388     2 2pz   0.30918
    9.1     1.00000    -0.05105     1 1s    0.26219     1 2pz   0.37784     1 2pz   0.48725     2 1s    0.26725     2 2pz  -0.37709
                                    2 2pz  -0.48630
   10.1    -0.00000     0.25266     1 1s   -1.26829     1 2px   0.67635     1 2pz   0.37322     2 1s   -1.28163     2 2px  -0.67283
                                    2 2pz  -0.37774     3 1s    0.83372     4 1s    1.10973     5 1s    1.10419     6 1s    0.84894
   11.1    -0.00000     0.26463     1 1s    1.53754     1 2py   0.32927     1 2pz  -0.33207     2 1s   -1.52097     2 2py   0.33039
                                    2 2pz  -0.32981     3 1s   -1.26356     6 1s    1.25190
   12.1    -0.00000     0.29116     1 1s    0.86093     1 2py  -0.65324     2 1s   -0.87248     2 2py  -0.65205     4 1s   -1.40181
                                    5 1s    1.41013
   13.1    -0.00000     0.33472     1 1s   -0.46551     1 2py  -0.25528     1 2py  -1.20401     2 1s   -0.46474     2 2py   0.25579
                                    2 2py   1.20487     3 1s    1.47266     4 1s   -0.82652     5 1s   -0.82770     6 1s    1.47326
   14.1    -0.00000     0.39302     1 1s    0.94435     1 2px   0.28221     1 2px   1.57158     1 2py  -0.51214     1 2pz  -0.54062
                                    2 1s   -0.94466     2 2px   0.28255     2 2px   1.57133     2 2py  -0.51074     2 2pz  -0.54277
                                    3 1s    0.89083     6 1s   -0.88830
   15.1    -0.00000     0.71203     1 2py  -0.43942     1 2px  -0.54052     1 2py   0.74696     2 2py  -0.43955     2 2px  -0.53831
                                    2 2py   0.74638     3 1s   -0.44472     6 1s    0.44483
   16.1    -0.00000     0.74774     1 1s    0.28349     1 2px   0.61688     1 2px  -0.93854     2 1s    0.28707     2 2px  -0.61666
                                    2 2px   0.93544
   17.1    -0.00000     0.79872     1 2pz   0.77566     1 2pz  -0.66548     2 2pz   0.77243     2 2pz  -0.66103
   18.1    -0.00000     0.83835     1 1s    0.28057     1 1s   -0.30453     1 2pz   0.73253     1 2py  -0.26131     1 2pz  -0.90434
                                    2 1s    0.28404     2 1s   -0.31139     2 2pz  -0.73427     2 2px   0.25445     2 2py   0.26125
                                    2 2pz   0.90413
   19.1    -0.00000     0.85048     1 1s    0.61108     1 2px  -0.66965     1 2px   1.32957     2 1s   -0.60822     2 2px  -0.66683
                                    2 2px   1.32485     4 1s    0.34742     5 1s   -0.34710
   20.1    -0.00000     0.92007     1 1s    0.27582     1 2py  -0.68797     1 2py   1.78910     2 1s    0.27819     2 2py   0.68767
                                    2 2py  -1.78808     3 1s   -0.67308     4 1s    0.44563     5 1s    0.44400     6 1s   -0.67225
   21.1    -0.00000     1.05315     1 1s    0.84136     1 1s   -1.58990     1 2px   0.55229     1 2py  -0.52840     1 2pz   0.62247
                                    2 1s    0.83611     2 1s   -1.57752     2 2px  -0.56291     2 2py   0.52639     2 2pz  -0.62155
                                    3 1s    0.51880     3 1s    0.53686     4 1s    0.42460     5 1s    0.42044     6 1s    0.51818
                                    6 1s    0.53531
   22.1    -0.00000     1.10741     1 1s    0.43166     1 2py   0.58709     1 2px  -0.43977     1 2py  -0.82383     2 1s   -0.38501
                                    2 2py   0.57636     2 2px  -0.42344     2 2py  -0.82113     3 1s    0.47650     4 1s    0.63376
                                    4 1s   -1.32471     5 1s   -0.60993     5 1s    1.28427     6 1s   -0.47900
   23.1    -0.00000     1.12287     1 1s   -0.46336     1 1s    0.88352     1 2py   0.33024     1 2px  -0.33915     2 1s   -0.46807
                                    2 1s    0.89035     2 2py  -0.35214     2 2px   0.35483     3 1s   -0.31534     4 1s    0.68627
                                    4 1s   -1.02836     5 1s    0.70900     5 1s   -1.07536     6 1s   -0.32299
   24.1    -0.00000     1.17003     1 1s    0.28632     1 2px  -0.44277     1 2py   0.35560     1 2px   0.93322     1 2py  -0.59868
                                    2 1s   -0.30671     2 2px  -0.44889     2 2py   0.36035     2 2px   0.94140     2 2py  -0.60210
                                    3 1s   -0.63933     3 1s    1.20696     4 1s   -0.30167     4 1s    0.29647     5 1s    0.30558
                                    5 1s   -0.30692     6 1s    0.65450     6 1s   -1.23008
   25.1    -0.00000     1.18129     1 1s   -1.00052     1 1s    1.63394     1 2px   0.25548     1 2py  -0.27936     1 2px  -0.46618
                                    1 2py   0.32894     2 1s   -0.99893     2 1s    1.64195     2 2py   0.26924     2 2px   0.44390
                                    2 2py  -0.31164     3 1s    0.63104     3 1s   -1.20686     4 1s   -0.38906     5 1s   -0.38978
                                    6 1s    0.61555     6 1s   -1.17852
   26.1    -0.00000     1.27226     1 1s    1.56862     1 1s   -4.02818     1 2px  -0.87756     1 2py   0.35481     1 2pz   0.73554
                                    2 1s   -1.57170     2 1s    4.03581     2 2px  -0.87531     2 2py   0.34924     2 2pz   0.73971
                                    3 1s    0.47479     4 1s    0.46937     5 1s   -0.47158     6 1s   -0.47636
   27.1    -0.00000     1.75057     1 1s   -0.65262     1 3d1+ -0.36036     1 3d2+ -0.38963     1 3d1-  0.33417     2 1s    0.65552
                                    2 3d1+  0.35954     2 3d2+  0.38925     2 3d1- -0.33491
   28.1    -0.00000     1.88066     1 1s    0.33366     1 3d2- -0.34773     1 3d1+  0.37708     1 3d1-  0.43789     2 1s   -0.33343
                                    2 3d2-  0.34987     2 3d1+ -0.37704     2 3d1- -0.43561
   29.1    -0.00000     2.00997     1 1s    0.37989     1 1s   -0.58892     1 3d0   0.46645     1 3d1+  0.48196     2 1s    0.38052
                                    2 1s   -0.59104     2 3d0   0.46780     2 3d1+  0.48194
   30.1    -0.00000     2.06882     1 2px   0.32881     1 2py  -0.47185     1 3d2+  0.48250     1 3d1-  0.43188     2 2px  -0.32643
                                    2 2py   0.47114     2 3d2+  0.48187     2 3d1-  0.43022
   31.1    -0.00000     2.26604     1 2px  -0.28083     1 2py  -0.54275     1 3d2+ -0.39951     1 3d1-  0.57391     2 2px   0.27993
                                    2 2py   0.54213     2 3d2+ -0.40494     2 3d1-  0.57323     4 1s   -0.45996     5 1s   -0.46392
   32.1    -0.00000     2.28328     1 1s    0.36063     1 1s   -1.19441     1 3d0   0.65551     1 3d2+  0.30920     2 1s   -0.36055
                                    2 1s    1.19183     2 3d0  -0.65355     2 3d2+ -0.30146     3 1s    0.43735     4 1s    0.31060
                                    5 1s   -0.30178     6 1s   -0.43858
   33.1    -0.00000     2.42803     1 3d0   0.49941     1 3d2- -0.26526     1 3d1+ -0.47396     1 3d2+ -0.25596     2 3d0   0.49653
                                    2 3d2- -0.25999     2 3d1+ -0.47533     2 3d2+ -0.25536
   34.1    -0.00000     2.48658     1 1s   -0.72750     1 2px  -0.31851     1 2py   0.29747     1 3d2- -0.57145     1 3d1- -0.46226
                                    2 1s    0.72949     2 2px  -0.31672     2 2py   0.30038     2 3d2-  0.57330     2 3d1-  0.46618
                                    3 1s   -0.40934     4 1s    0.46255     5 1s   -0.46796     6 1s    0.40916
   35.1    -0.00000     2.68623     1 3d0   0.26973     1 3d2-  0.72254     2 3d0   0.26973     2 3d2-  0.72246     3 1s    0.54799
                                    6 1s    0.54698
   36.1    -0.00000     2.86511     1 1s   -1.50685     1 2px  -0.87633     1 2pz   0.37605     1 3d2-  0.34675     1 3d1+  0.59391
                                    1 3d2+ -0.61991     2 1s    1.50705     2 2px  -0.87657     2 2pz   0.37583     2 3d2- -0.34612
                                    2 3d1+ -0.59432     2 3d2+  0.62043


 Natural orbital dump (state averaged) at molpro section  2140.2    (Orbital set 2)



 **********************************************************************************************************************************
 DATASETS  * FILE   NREC   LENGTH (MB)   RECORD NAMES
              1      20       31.83       500      610      700      900      950      970     1000      129      960     1100   
                                          VAR    BASINP    GEOM    SYMINP    ZMAT    AOBASIS   BASIS     P2S    ABASIS      S 
                                         1400     1410     1200     1210     1080     1600     1650     1300     1700     1380   
                                           T        V       H0       H01     AOSYM     SMH    MOLCAS    ERIS     OPER     JKOP   

              2       5        5.42       700     1000      520     2100     2140   
                                         GEOM     BASIS   MCVARS     RHF     MCSCF   

 PROGRAMS   *        TOTAL     MULTI    HF-SCF       INT
 CPU TIMES  *         0.96      0.58      0.10      0.18
 REAL TIME  *         1.21 SEC
 DISK USED  *        39.02 MB
 **********************************************************************************************************************************
 Molecular orbitals read from record     2140.2  Type=MCSCF/NATURAL (state averaged)
 Occupation numbers read from record     2140.2  Type=MCSCF/NATURAL (state averaged)
 Orbital energies read from record       2140.2  Type=MCSCF/NATURAL (state averaged)
 Redundancy group numbers read from rec  2140.2  Type=MCSCF/NATURAL (state averaged)

 MULTI/6-31G* energy=    -77.546016178219

           MULTI          HF-SCF
    -77.54601618    -77.91751159
 **********************************************************************************************************************************
 Molpro calculation terminated
