
 Primary working directories    : /scratch.local/johan406.molpro_temp/molpro.ltsdSt4DTz
 Secondary working directories  : /scratch.local/johan406.molpro_temp/molpro.ltsdSt4DTz
 Wavefunction directory         : /home/goodpast/johan406/wfu/
 Main file repository           : /scratch.local/johan406.molpro_temp/molpro.ltsdSt4DTz/

 id        : roweumn

 Nodes     nprocs
 acn06        1

 Using customized tuning parameters: mindgm=1; mindgv=20; mindgc=4; mindgr=1; noblas=0; minvec=7
 default implementation of scratch files=df  


 Variables initialized (934), CPU time= 0.00 sec
                                                                                 !leave this line blank
 
 gprint, orbitals=30
 memory, 125., m
 symmetry, nosym
 nelect=16
 basis=6-31g*
 
 geometry={
 C -0.713 0.149 0.287
 C 0.722 -0.198 -0.347
 H -1.290 0.987 0.128
 H -1.378 -0.769 -0.051
 H 1.388 0.718 -0.007
 H 1.298 -1.037 -0.189
 }
 
 hf
 {multi,
 closed 7
 occ 9
 wf,spin=0;STATE,3
 }
 
 Commands  initialized (763), CPU time= 0.01 sec, 617 directives.
 Default parameters read. Elapsed time= 0.06 sec

 Checking input...
 Passed
1


                                         ***  PROGRAM SYSTEM MOLPRO  ***
                                       Copyright, TTI GmbH Stuttgart, 2015
                                    Version 2019.2 linked Oct 25 2019 22:50:27


 **********************************************************************************************************************************
 LABEL *                                                                                 
  64 bit serial version                                                                  DATE: 15-Mar-23          TIME: 16:49:52  
 **********************************************************************************************************************************

 SHA1:             8dbd9ae1082e4ce945b0f27595c9eb2d4aa09004
 **********************************************************************************************************************************


 Variable memory set to  125000000 words,  buffer space 

 SETTING NELECT         =        16.00000000                                  
 SETTING BASIS          =    6-31G*
 ZSYMEL=NOSYM


Geometry recognized as XYZ



 Recomputing integrals since basis changed


 Using spherical harmonics

 Library entry C      S 6-31G                selected for orbital group  1
 Library entry C      P 6-31G                selected for orbital group  1
 Library entry C      D 6-31G*               selected for orbital group  1
 Library entry H      S 6-31G                selected for orbital group  2


 PROGRAM * SEWARD (Integral evaluation for generally contracted gaussian basis sets)     Author: Roland Lindh, 1990

 Geometry written to block  1 of record 700


 Point group  C1  



 ATOMIC COORDINATES

 NR  ATOM    CHARGE       X              Y              Z

   1  C       6.00   -1.347374727    0.281569193    0.542351398
   2  C       6.00    1.364382262   -0.374165773   -0.655734965
   3  H       1.00   -2.437746701    1.865159685    0.241884944
   4  H       1.00   -2.604042600   -1.453199390   -0.096376032
   5  H       1.00    2.622939861    1.356823357   -0.013228083
   6  H       1.00    2.452864510   -1.959645991   -0.357158238

 Bond lengths in Bohr (Angstrom)

 1-2  3.036284776  1-3  1.946008730  1-4  2.235309577  2-5  2.234525832  2-6  1.946198651
     ( 1.606732710)     ( 1.029783472)     ( 1.182874888)     ( 1.182460147)     ( 1.029883974)

 Bond angles

  1-2-5  102.84263753   1-2-6  127.94536971   2-1-3  127.96966972   2-1-4  102.81143730

  3-1-4  105.80836258   5-2-6  105.78073577

 NUCLEAR CHARGE:                   16
 NUMBER OF PRIMITIVE AOS:          72
 NUMBER OF SYMMETRY AOS:           70
 NUMBER OF CONTRACTIONS:           36   (   36A   )
 NUMBER OF CORE ORBITALS:           2   (    2A   )
 NUMBER OF VALENCE ORBITALS:       12   (   12A   )


 NUCLEAR REPULSION ENERGY   30.26893062

 Eigenvalues of metric

         1 0.155E-01 0.253E-01 0.483E-01 0.623E-01 0.865E-01 0.230E+00 0.247E+00 0.297E+00


 Contracted 2-electron integrals neglected if value below      1.0D-11
 AO integral compression algorithm  1   Integral accuracy      1.0D-11

     1.311 MB (compressed) written to integral file ( 68.1%)


 NUMBER OF SORTED TWO-ELECTRON INTEGRALS:     222111.     BUFFER LENGTH:  32768
 NUMBER OF SEGMENTS:   1  SEGMENT LENGTH:     222111      RECORD LENGTH: 524288

 Memory used in sort:       0.78 MW

 SORT1 READ      284735. AND WROTE      212518. INTEGRALS IN      1 RECORDS. CPU TIME:     0.01 SEC, REAL TIME:     0.00 SEC
 SORT2 READ      212518. AND WROTE      222111. INTEGRALS IN      5 RECORDS. CPU TIME:     0.02 SEC, REAL TIME:     0.03 SEC

 FILE SIZES:   FILE 1:    31.4 MBYTE,  FILE 4:     4.2 MBYTE,   TOTAL:     35.6 MBYTE

 OPERATOR DM      FOR CENTER  0  COORDINATES:    0.000000    0.000000    0.000000


 **********************************************************************************************************************************
 DATASETS  * FILE   NREC   LENGTH (MB)   RECORD NAMES
              1      19       31.11       500      610      700      900      950      970     1000      129      960     1100   
                                          VAR    BASINP    GEOM    SYMINP    ZMAT    AOBASIS   BASIS     P2S    ABASIS      S 
                                         1400     1410     1200     1210     1080     1600     1650     1300     1700   
                                           T        V       H0       H01     AOSYM     SMH    MOLCAS    ERIS     OPER   

 PROGRAMS   *        TOTAL       INT
 CPU TIMES  *         0.28      0.18
 REAL TIME  *         0.39 SEC
 DISK USED  *        35.97 MB
 **********************************************************************************************************************************


 PROGRAM * RHF-SCF (CLOSED SHELL)       Authors: W. Meyer, H.-J. Werner


 NUMBER OF ELECTRONS:       8+    8-    SPACE SYMMETRY=1    SPIN SYMMETRY: Singlet 
 CONVERGENCE THRESHOLDS:    1.00E-05 (Density)    1.00E-07 (Energy)
 MAX. NUMBER OF ITERATIONS:       60
 INTERPOLATION TYPE:            DIIS
 INTERPOLATION STEPS:              2 (START)      1 (STEP)
 LEVEL SHIFTS:                  0.00 (CLOSED)  0.00 (OPEN) 



 Orbital guess generated from atomic densities. Full valence occupancy:    8

 Molecular orbital dump at record        2100.2

 Initial occupancy:   8

 ITERATION    DDIFF          GRAD             ENERGY        2-EL.EN.            DIPOLE MOMENTS         DIIS   ORB.
    1      0.000D+00      0.000D+00       -77.87920724    111.552642   -0.00058   -0.00062    0.00069    0    start
    2      0.000D+00      0.676D-02       -77.89852548    110.890444    0.00002   -0.00039    0.00003    1    diag
    3      0.697D-02      0.226D-02       -77.90127751    111.200546   -0.00042   -0.00020    0.00050    2    diag
    4      0.324D-02      0.847D-03       -77.90185299    111.082627    0.00003   -0.00035    0.00004    3    diag
    5      0.154D-02      0.394D-03       -77.90209480    111.094525   -0.00051   -0.00009    0.00061    4    diag
    6      0.138D-02      0.111D-03       -77.90211506    111.092817    0.00054   -0.00057   -0.00048    5    diag
    7      0.366D-03      0.282D-04       -77.90211589    111.093324   -0.00070   -0.00002    0.00080    6    diag
    8      0.583D-04      0.160D-04       -77.90211604    111.093518   -0.00004   -0.00031    0.00012    7    diag
    9      0.210D-04      0.465D-05       -77.90211607    111.093515   -0.00011   -0.00028    0.00020    8    diag
   10      0.121D-04      0.109D-05       -77.90211607    111.093516   -0.00011   -0.00028    0.00020    9    orth
   11      0.266D-05      0.177D-06       -77.90211607    111.093513   -0.00011   -0.00028    0.00020    0    orth

 Final occupancy:   8

 !RHF STATE  1.1 Energy               -77.902116069166
 Nuclear energy                        30.26893062
 One-electron energy                 -163.71780330
 Two-electron energy                   55.54675662
 Virial quotient                       -1.00546488
 !RHF STATE  1.1 Dipole moment         -0.00011045    -0.00027824     0.00019603
 Dipole moment /Debye                  -0.00028071    -0.00070717     0.00049823

 ELECTRON ORBITALS
 =================

  Orbital  Occupation    Energy     Coefficients
    1.1     2.00000   -11.27565     1 1s    0.73381     2 1s    0.67389
    2.1     2.00000   -11.27517     1 1s    0.67397     2 1s   -0.73388
    3.1     2.00000    -0.97264     1 1s    0.28895     1 1s    0.26604     2 1s    0.28899     2 1s    0.26606
    4.1     2.00000    -0.82589     1 1s    0.25240     2 1s   -0.25234
    5.1     2.00000    -0.58715     1 2py   0.30589     2 2py   0.30546
    6.1     2.00000    -0.57441     1 2px   0.27714     2 2px  -0.27676
    7.1     2.00000    -0.45704     1 2px  -0.26955     2 2px   0.26988
    8.1     2.00000    -0.34420     1 2pz   0.31753     1 2pz   0.31220     2 2pz   0.31753     2 2pz   0.31219
    9.1     0.00000     0.08104     1 1s    0.30555     1 2pz   0.35196     1 2pz   0.50996     2 1s    0.30532     2 2pz  -0.35191
                                    2 2pz  -0.50992
   10.1     0.00000     0.25355     1 1s   -1.26364     1 2px   0.65869     1 2pz   0.36275     2 1s   -1.26649     2 2px  -0.65763
                                    2 2pz  -0.36378     3 1s    0.80098     4 1s    1.11917     5 1s    1.11517     6 1s    0.80605
   11.1     0.00000     0.27839     1 1s   -1.73376     1 2pz   0.35973     2 1s    1.72919     2 2pz   0.35777     3 1s    1.29741
                                    4 1s    0.38455     5 1s   -0.38204     6 1s   -1.29313
   12.1     0.00000     0.29491     1 1s    0.56830     1 2px  -0.30831     1 2py  -0.66172     2 1s   -0.57415     2 2px  -0.31246
                                    2 2py  -0.66341     3 1s    0.33932     4 1s   -1.34450     5 1s    1.35128     6 1s   -0.33706
   13.1     0.00000     0.34131     1 1s   -0.76715     1 2py  -1.21106     2 1s   -0.77026     2 2py   1.21045     3 1s    1.71809
                                    4 1s   -0.69276     5 1s   -0.69078     6 1s    1.71871
   14.1     0.00000     0.40342     1 1s    0.83016     1 2px   0.26342     1 2px   1.59704     1 2py  -0.64587     1 2pz  -0.54308
                                    2 1s   -0.83040     2 2px   0.26328     2 2px   1.59638     2 2py  -0.64685     2 2pz  -0.54368
                                    3 1s    1.15514     6 1s   -1.15505
   15.1     0.00000     0.69715     1 2py  -0.40622     1 2px  -0.78918     1 2py   0.79899     2 2py  -0.40624     2 2px  -0.78859
                                    2 2py   0.79947     3 1s   -0.44878     6 1s    0.44893
   16.1     0.00000     0.76093     1 1s   -0.35383     1 2px  -0.61546     1 2px   0.95078     2 1s   -0.35405     2 2px   0.61544
                                    2 2px  -0.95025     3 1s    0.26738     6 1s    0.26672
   17.1     0.00000     0.80554     1 2pz   0.77067     1 2pz  -0.65974     2 2pz   0.77090     2 2pz  -0.65987
   18.1     0.00000     0.84617     1 1s   -0.28803     1 1s    0.38959     1 2pz  -0.74353     1 2py   0.33717     1 2pz   0.87479
                                    2 1s   -0.28830     2 1s    0.39008     2 2pz   0.74324     2 2py  -0.33712     2 2pz  -0.87474
   19.1     0.00000     0.86505     1 1s    0.51935     1 2px  -0.66369     1 2px   1.27198     2 1s   -0.52111     2 2px  -0.66274
                                    2 2px   1.27012     4 1s    0.36169     5 1s   -0.36247
   20.1     0.00000     0.92995     1 1s    0.26596     1 1s    0.26623     1 2py  -0.65733     1 2px  -0.33014     1 2py   1.81727
                                    2 1s    0.26822     2 1s    0.26156     2 2py   0.65671     2 2px   0.33553     2 2py  -1.81648
                                    3 1s   -0.83628     4 1s    0.38163     5 1s    0.38002     6 1s   -0.83686
   21.1     0.00000     1.05819     1 1s   -0.91908     1 1s    1.85679     1 2px  -0.63493     1 2py   0.55468     1 2pz  -0.64799
                                    2 1s   -0.91673     2 1s    1.85159     2 2px   0.63836     2 2py  -0.55568     2 2pz   0.64712
                                    3 1s   -0.47124     3 1s   -0.77444     4 1s   -0.41187     5 1s   -0.41162     6 1s   -0.47073
                                    6 1s   -0.77431
   22.1     0.00000     1.10498     1 1s   -0.33542     1 1s    0.59081     1 2px   0.28625     1 2py   0.52149     1 2px  -0.51735
                                    1 2py  -0.72242     2 1s    0.31292     2 1s   -0.54760     2 2px   0.27717     2 2py   0.50992
                                    2 2px  -0.50278     2 2py  -0.71768     4 1s    0.67727     4 1s   -1.35944     5 1s   -0.65030
                                    5 1s    1.31815
   23.1     0.00000     1.11112     1 1s   -0.54817     1 1s    1.06948     1 2py   0.30928     1 2px  -0.38520     2 1s   -0.55862
                                    2 1s    1.08629     2 2px  -0.25352     2 2py  -0.32829     2 2px   0.40696     4 1s    0.69675
                                    4 1s   -1.06544     5 1s    0.72214     5 1s   -1.11628
   24.1     0.00000     1.22907     1 1s    0.59930     1 2px  -0.41548     1 2py   0.46619     1 2px   1.03747     1 2py  -0.81662
                                    1 2pz  -0.26652     2 1s   -0.60625     2 2px  -0.41437     2 2py   0.46583     2 2px   1.03414
                                    2 2py  -0.81419     2 2pz  -0.26918     3 1s   -0.66482     3 1s    1.20556     4 1s   -0.25228
                                    5 1s    0.25194     6 1s    0.66478     6 1s   -1.20122
   25.1     0.00000     1.24777     1 1s   -0.89425     1 1s    1.46082     1 2py  -0.35506     1 2px  -0.39559     1 2py   0.39782
                                    2 1s   -0.90279     2 1s    1.48106     2 2py   0.35579     2 2px   0.39362     2 2py  -0.39758
                                    3 1s    0.69710     3 1s   -1.23930     6 1s    0.69848     6 1s   -1.24450
   26.1     0.00000     1.28579     1 1s    1.58052     1 1s   -3.97579     1 2px  -0.69712     1 2pz   0.70134     2 1s   -1.57794
                                    2 1s    3.97412     2 2px  -0.69685     2 2pz   0.70219     3 1s    0.77200     4 1s    0.41573
                                    5 1s   -0.41611     6 1s   -0.76900
   27.1     0.00000     1.74426     1 1s    0.57141     1 3d1+  0.34572     1 3d2+  0.38850     1 3d1- -0.33864     2 1s   -0.57193
                                    2 3d1+ -0.34489     2 3d2+ -0.38768     2 3d1-  0.34048
   28.1     0.00000     1.91768     1 1s    0.28980     1 3d2- -0.32335     1 3d1+  0.40145     1 3d1-  0.43609     2 1s   -0.28770
                                    2 3d2-  0.32503     2 3d1+ -0.40266     2 3d1- -0.43433
   29.1     0.00000     2.01724     1 1s    0.32488     1 1s   -0.62892     1 3d0   0.45242     1 3d1+  0.47103     2 1s    0.32449
                                    2 1s   -0.62799     2 3d0   0.45252     2 3d1+  0.47025     3 1s    0.26964     6 1s    0.26978
   30.1     0.00000     2.04522     1 1s   -0.30044     1 2px   0.31780     1 2py  -0.44651     1 3d2+  0.44986     1 3d1-  0.42715
                                    2 1s   -0.30089     2 2px  -0.31720     2 2py   0.44664     2 3d2+  0.45041     2 3d1-  0.42620
                                    3 1s    0.26701     6 1s    0.26663
   31.1     0.00000     2.28213     1 2py  -0.52202     1 3d2+ -0.37809     1 3d1-  0.54706     2 2py   0.52218     2 3d2+ -0.37881
                                    2 3d1-  0.54891     4 1s   -0.48565     5 1s   -0.48861
   32.1     0.00000     2.30306     1 1s    0.33304     1 1s   -1.16798     1 3d0   0.65863     1 3d2+  0.29875     2 1s   -0.33295
                                    2 1s    1.16798     2 3d0  -0.65782     2 3d2+ -0.29495     3 1s    0.42779     4 1s    0.36307
                                    5 1s   -0.35928     6 1s   -0.42853
   33.1     0.00000     2.41542     1 3d0   0.45884     1 3d2- -0.28142     1 3d1+ -0.44246     1 3d2+ -0.31923     2 3d0   0.45710
                                    2 3d2- -0.27662     2 3d1+ -0.44332     2 3d2+ -0.31832
   34.1     0.00000     2.51520     1 1s   -0.71846     1 2px  -0.42008     1 2py   0.33613     1 3d2- -0.57151     1 3d2+ -0.26084
                                    1 3d1- -0.45666     2 1s    0.71898     2 2px  -0.41954     2 2py   0.33586     2 3d2-  0.57350
                                    2 3d2+  0.26460     2 3d1-  0.45596     3 1s   -0.52768     4 1s    0.39706     5 1s   -0.39916
                                    6 1s    0.52762
   35.1     0.00000     2.78094     1 1s   -0.27935     1 3d0   0.32367     1 3d2-  0.72006     2 1s   -0.28253     2 3d0   0.32478
                                    2 3d2-  0.72037     3 1s    0.65377     6 1s    0.65381
   36.1     0.00000     2.86819     1 1s    1.49021     1 2px   0.86280     1 2pz  -0.37270     1 3d0  -0.25264     1 3d2- -0.39894
                                    1 3d1+ -0.57706     1 3d2+  0.58836     2 1s   -1.48979     2 2px   0.86310     2 2pz  -0.37269
                                    2 3d0   0.25200     2 3d2-  0.39786     2 3d1+  0.57781     2 3d2+ -0.58843


 HOMO      8.1    -0.344196 =      -9.3660eV
 LUMO      9.1     0.081044 =       2.2053eV
 LUMO-HOMO         0.425240 =      11.5714eV


 **********************************************************************************************************************************
 DATASETS  * FILE   NREC   LENGTH (MB)   RECORD NAMES
              1      19       31.11       500      610      700      900      950      970     1000      129      960     1100   
                                          VAR    BASINP    GEOM    SYMINP    ZMAT    AOBASIS   BASIS     P2S    ABASIS      S 
                                         1400     1410     1200     1210     1080     1600     1650     1300     1700   
                                           T        V       H0       H01     AOSYM     SMH    MOLCAS    ERIS     OPER   

              2       4        2.86       700     1000      520     2100   
                                         GEOM     BASIS   MCVARS     RHF  

 PROGRAMS   *        TOTAL    HF-SCF       INT
 CPU TIMES  *         0.38      0.10      0.18
 REAL TIME  *         0.55 SEC
 DISK USED  *        35.97 MB
 **********************************************************************************************************************************


 PROGRAM * MULTI (Direct Multiconfiguration SCF)       Authors: P.J. Knowles, H.-J. Werner (1984)


 Number of closed-shell orbitals:   7 (   7 )
 Number of active  orbitals:        2 (   2 )
 Number of external orbitals:      27 (  27 )

 State symmetry 1

 Number of electrons:     2    Spin symmetry=Singlet   Space symmetry=1
 Number of states:        3
 Number of CSFs:          3   (4 determinants, 4 intermediate states)

 Molecular orbitals read from record     2100.2  Type=RHF/CANONICAL (state 1.1)

 Wavefunction dump at record             2140.2

 Convergence thresholds  0.10E-01 (gradient)  0.10E-05 (energy)  0.10E-02 (step length)

 Weight factors for state symmetry  1:    0.33333   0.33333   0.33333

 Number of orbital rotations:      257   (    14 Core/Active    189 Core/Virtual   0 Active/Active     54 Active/Virtual)
 Total number of variables:        269

 Micro-Iterations solved by the two-step solver

 ITER. MIC  NCI  NEG     ENERGY(VAR)     ENERGY(PROJ)   ENERGY CHANGE     GRAD(0)  GRAD(ORB)   GRAD(CI)     STEP       TIME

   1   13    6    0     -77.69231586     -77.69838982   -0.00607396    0.09792042 0.00092032 0.00000000  0.14D+00      0.29
   2    8    5    0     -77.69809070     -77.69816331   -0.00007262    0.01327449 0.00003044 0.00000000  0.15D-01      0.39
   3   13    6    0     -77.69816475     -77.69816693   -0.00000217    0.00049105 0.00000346 0.00000000  0.97D-02      0.54
   4   14    6    0     -77.69816694     -77.69816695   -0.00000000    0.00005171 0.00000000 0.00000000  0.38D-03      0.69
   5    4    4    0     -77.69816695     -77.69816695   -0.00000000    0.00000006 0.00000000 0.00000000  0.10D-05      0.75

 ** WVFN ****  CONVERGENCE REACHED, FINAL GRADIENT:  0.16D-11



 Results for state 1.1
 =====================

 !MCSCF STATE  1.1 Energy             -77.930794283831
 Nuclear energy                        30.26893062
 Kinetic energy                        77.52630318
 One electron energy                 -163.66492834
 Two electron energy                   55.46520344
 Virial ratio                           2.00521747

 !MCSCF STATE  1.1 Dipole moment       -0.03043134    -0.00239705     0.00979456
 Dipole moment /Debye                  -0.07734369    -0.00609229     0.02489367

 Results for state 2.1
 =====================

 !MCSCF STATE  2.1 Energy             -77.631788053522
 Nuclear energy                        30.26893062
 Kinetic energy                        77.67454420
 One electron energy                 -163.48169685
 Two electron energy                   55.58097818
 Virial ratio                           1.99944955

 !MCSCF STATE  2.1 Dipole moment        0.05913188    -0.01501161    -0.02672438
 Dipole moment /Debye                   0.15028841    -0.03815321    -0.06792215

 Results for state 3.1
 =====================

 !MCSCF STATE  3.1 Energy             -77.531918506609
 Nuclear energy                        30.26893062
 Kinetic energy                        77.82433864
 One electron energy                 -163.30301715
 Two electron energy                   55.50216803
 Virial ratio                           1.99624256

 !MCSCF STATE  3.1 Dipole moment       -0.05007596     0.01674791     0.08042183
 Dipole moment /Debye                  -0.12727206     0.04256615     0.20439853

 State-averaged charge density matrix saved on record  2140.2 (density set 1)

 !MCSCF expec         <1.1|DMX|1.1>    -0.030431343195 au =    -0.077343693236 Debye
 !MCSCF trans         <2.1|DMX|1.1>     1.164635820388 au =     2.960015108381 Debye
 !MCSCF expec         <2.1|DMX|2.1>     0.059131883751 au =     0.150288413105 Debye
 !MCSCF trans         <3.1|DMX|1.1>    -0.033501964460 au =    -0.085147922833 Debye
 !MCSCF trans         <3.1|DMX|2.1>     2.224943372131 au =     5.654871575741 Debye
 !MCSCF expec         <3.1|DMX|3.1>    -0.050075959071 au =    -0.127272056055 Debye

 !MCSCF expec         <1.1|DMY|1.1>    -0.002397049013 au =    -0.006092291831 Debye
 !MCSCF trans         <2.1|DMY|1.1>    -0.260100749380 au =    -0.661066862610 Debye
 !MCSCF expec         <2.1|DMY|2.1>    -0.015011612072 au =    -0.038153213010 Debye
 !MCSCF trans         <3.1|DMY|1.1>     0.002362569353 au =     0.006004659016 Debye
 !MCSCF trans         <3.1|DMY|2.1>    -0.496646238324 au =    -1.262266146399 Debye
 !MCSCF expec         <3.1|DMY|3.1>     0.016747908431 au =     0.042566149109 Debye

 !MCSCF expec         <1.1|DMZ|1.1>     0.009794563839 au =     0.024893667563 Debye
 !MCSCF trans         <2.1|DMZ|1.1>    -0.842161437394 au =    -2.140420666052 Debye
 !MCSCF expec         <2.1|DMZ|2.1>    -0.026724379676 au =    -0.067922148896 Debye
 !MCSCF trans         <3.1|DMZ|1.1>     0.004652620495 au =     0.011825007197 Debye
 !MCSCF trans         <3.1|DMZ|2.1>    -1.607905490099 au =    -4.086620435527 Debye
 !MCSCF expec         <3.1|DMZ|3.1>     0.080421834459 au =     0.204398526023 Debye


 NATURAL ORBITALS (state averaged)
 =================================

  Orbital  Occupation    Energy     Coefficients
    1.1     2.00000   -11.27996     1 1s    0.99477
    2.1     2.00000   -11.27665     2 1s   -0.99479
    3.1     2.00000    -0.97514     1 1s    0.29377     1 1s    0.26847     2 1s    0.29303     2 1s    0.26967
    4.1     2.00000    -0.82851     1 1s    0.25049     1 1s    0.28059     2 1s   -0.25020     2 1s   -0.28373
    5.1     2.00000    -0.59312     1 2py   0.32653     2 2py   0.28740
    6.1     2.00000    -0.57779     1 2px   0.27767     2 2px  -0.27347     2 2py   0.26752
    7.1     2.00000    -0.46037     1 2px  -0.25358     2 2px   0.27858
    8.1     1.00000    -0.05110     1 2pz   0.38811     1 2pz   0.49907     2 1s    0.26787     2 2pz  -0.37196     2 2pz  -0.48167
    9.1     1.00000    -0.21498     1 2pz   0.29455     1 2pz   0.31236     2 2pz   0.29016     2 2pz   0.30270
   10.1    -0.00000     0.25067     1 1s   -1.24629     1 2px   0.67042     1 2pz   0.34703     2 1s   -1.26780     2 2px  -0.65177
                                    2 2pz  -0.35199     3 1s    0.76142     4 1s    1.14533     5 1s    1.11212     6 1s    0.79240
   11.1    -0.00000     0.27380     1 1s   -1.70059     1 2py  -0.29625     1 2pz   0.35212     2 1s    1.65023     2 2py  -0.28828
                                    2 2pz   0.36291     3 1s    1.31065     4 1s    0.25865     6 1s   -1.26414
   12.1    -0.00000     0.28901     1 1s    0.71970     1 2px  -0.27538     1 2py  -0.64904     2 1s   -0.78504     2 2px  -0.30031
                                    2 2py  -0.62852     4 1s   -1.36816     5 1s    1.38666
   13.1    -0.00000     0.33990     1 1s   -0.79229     1 2py  -1.19580     2 1s   -0.80097     2 2py   1.21196     3 1s    1.72423
                                    4 1s   -0.65513     5 1s   -0.68431     6 1s    1.74198
   14.1    -0.00000     0.39587     1 1s    0.75919     1 2px   0.26967     1 2px   1.56474     1 2py  -0.64376     1 2pz  -0.51104
                                    2 1s   -0.73802     2 2px   0.27483     2 2px   1.56998     2 2py  -0.64414     2 2pz  -0.54058
                                    3 1s    1.18469     6 1s   -1.19928
   15.1    -0.00000     0.69301     1 2py  -0.41771     1 2px  -0.78785     1 2py   0.81281     2 2py  -0.41173     2 2px  -0.77817
                                    2 2py   0.79643     3 1s   -0.44703     6 1s    0.44603
   16.1    -0.00000     0.75439     1 1s   -0.28208     1 2px  -0.62172     1 2px   0.95327     2 1s   -0.31392     2 2px   0.60423
                                    2 2px  -0.91378
   17.1    -0.00000     0.79906     1 2pz   0.80432     1 2pz  -0.71252     2 2pz   0.75161     2 2pz  -0.63786
   18.1    -0.00000     0.83848     1 1s   -0.26355     1 1s    0.34869     1 2pz  -0.70538     1 2py   0.29810     1 2pz   0.87759
                                    2 1s   -0.28125     2 1s    0.35371     2 2pz   0.76481     2 2py  -0.30724     2 2pz  -0.92216
   19.1    -0.00000     0.85664     1 1s   -0.25140     1 1s    0.61255     1 2px  -0.65302     1 2px   1.29398     2 1s   -0.56834
                                    2 2px  -0.66133     2 2px   1.31366     4 1s    0.36074     5 1s   -0.36668
   20.1    -0.00000     0.92523     1 1s    0.28259     1 2py  -0.66359     1 2px  -0.29227     1 2py   1.81958     2 1s    0.28278
                                    2 2py   0.66270     2 2px   0.30524     2 2py  -1.82021     3 1s   -0.82243     4 1s    0.40806
                                    5 1s    0.39514     6 1s   -0.82189
   21.1    -0.00000     1.05403     1 1s   -0.91413     1 1s    1.87353     1 2px  -0.64820     1 2py   0.59340     1 2pz  -0.63758
                                    2 1s   -0.92465     2 1s    1.88416     2 2px   0.66947     2 2py  -0.57299     2 2pz   0.63729
                                    3 1s   -0.47230     3 1s   -0.80224     4 1s   -0.42736     5 1s   -0.40043     6 1s   -0.46969
                                    6 1s   -0.79750
   22.1    -0.00000     1.09869     1 1s   -0.40976     1 1s    0.74353     1 2px   0.31782     1 2py   0.56403     1 2px  -0.58377
                                    1 2py  -0.72915     2 1s   -0.31823     2 2py   0.46150     2 2px  -0.42643     2 2py  -0.71241
                                    4 1s    0.76433     4 1s   -1.50802     5 1s   -0.53389     5 1s    1.13347     6 1s   -0.28932
   23.1    -0.00000     1.10737     1 1s   -0.47575     1 1s    0.94830     1 2px  -0.30653     2 1s   -0.58907     2 1s    1.15050
                                    2 2px  -0.29613     2 2py  -0.39812     2 2px   0.47763     2 2py   0.25815     4 1s    0.58636
                                    4 1s   -0.83618     5 1s    0.81379     5 1s   -1.29763
   24.1    -0.00000     1.22338     1 1s    1.00840     1 2px  -0.41008     1 2py   0.45343     1 2px   1.12884     1 2py  -0.83531
                                    1 2pz  -0.33380     2 1s   -1.08712     2 2px  -0.40169     2 2py   0.44086     2 2px   1.10691
                                    2 2py  -0.82002     2 2pz  -0.34328     3 1s   -0.65935     3 1s    1.13230     4 1s   -0.28604
                                    5 1s    0.28578     6 1s    0.63390     6 1s   -1.07558
   25.1    -0.00000     1.24651     1 1s   -0.91208     1 1s    1.51639     1 2py  -0.33768     1 2px  -0.37962     1 2py   0.37398
                                    2 1s   -0.88967     2 1s    1.43986     2 2px  -0.26010     2 2py   0.36031     2 2px   0.42262
                                    2 2py  -0.41402     3 1s    0.68218     3 1s   -1.22165     6 1s    0.70962     6 1s   -1.26044
   26.1    -0.00000     1.27619     1 1s    1.56285     1 1s   -3.86962     1 2px  -0.55565     1 2pz   0.65834     2 1s   -1.57039
                                    2 1s    3.88186     2 2px  -0.55534     2 2pz   0.65349     3 1s    0.89815     4 1s    0.42739
                                    5 1s   -0.42396     6 1s   -0.91054
   27.1    -0.00000     1.73382     1 1s    0.56548     1 3d1+  0.34768     1 3d2+  0.39258     1 3d1- -0.33850     2 1s   -0.57344
                                    2 3d1+ -0.34239     2 3d2+ -0.38638     2 3d1-  0.34094
   28.1    -0.00000     1.90703     1 1s    0.27448     1 3d2- -0.32261     1 3d1+  0.40485     1 3d1-  0.43967     2 1s   -0.28283
                                    2 3d2-  0.32171     2 3d1+ -0.39776     2 3d1- -0.43325
   29.1    -0.00000     2.00888     1 1s    0.34185     1 1s   -0.62849     1 3d0   0.45951     1 3d1+  0.47804     2 1s    0.33577
                                    2 1s   -0.60381     2 3d0   0.45081     2 3d1+  0.48539     3 1s    0.25099
   30.1    -0.00000     2.03585     1 1s   -0.27457     1 2px   0.33088     1 2py  -0.45466     1 3d2+  0.46153     1 3d1-  0.43019
                                    2 1s   -0.27627     2 2px  -0.32891     2 2py   0.45485     2 3d2+  0.46351     2 3d1-  0.43088
                                    3 1s    0.28543     6 1s    0.28536
   31.1    -0.00000     2.27438     1 2py  -0.52928     1 3d2+ -0.38655     1 3d1-  0.55541     2 2py   0.51966     2 3d2+ -0.36727
                                    2 3d1-  0.54662     4 1s   -0.50018     5 1s   -0.47152
   32.1    -0.00000     2.29376     1 1s    0.33445     1 1s   -1.17009     1 3d0   0.64732     1 3d2+  0.28225     2 1s   -0.33682
                                    2 1s    1.18602     2 3d0  -0.66866     2 3d2+ -0.30582     3 1s    0.43178     4 1s    0.34483
                                    5 1s   -0.38047     6 1s   -0.43003
   33.1    -0.00000     2.40343     1 3d0   0.46714     1 3d2- -0.28530     1 3d1+ -0.43801     1 3d2+ -0.31624     2 3d0   0.45850
                                    2 3d2- -0.26975     2 3d1+ -0.44594     2 3d2+ -0.31245
   34.1    -0.00000     2.50480     1 1s   -0.71939     1 2px  -0.42270     1 2py   0.33349     1 3d2- -0.57300     1 3d2+ -0.26030
                                    1 3d1- -0.45409     2 1s    0.72400     2 2px  -0.41891     2 2py   0.33580     2 3d2-  0.57322
                                    2 3d2+  0.26416     2 3d1-  0.45507     3 1s   -0.53488     4 1s    0.39531     5 1s   -0.40347
                                    6 1s    0.52617
   35.1    -0.00000     2.77196     1 1s   -0.30525     1 3d0   0.32583     1 3d2-  0.72230     2 1s   -0.25803     2 3d0   0.31994
                                    2 3d2-  0.71941     3 1s    0.65452     6 1s    0.65798
   36.1    -0.00000     2.86028     1 1s    1.49142     1 2px   0.86896     1 2pz  -0.37540     1 3d2- -0.38888     1 3d1+ -0.58112
                                    1 3d2+  0.59049     2 1s   -1.49937     2 2px   0.86578     2 2pz  -0.37482     2 3d0   0.25599
                                    2 3d2-  0.40710     2 3d1+  0.57517     2 3d2+ -0.58763


 Natural orbital dump (state averaged) at molpro section  2140.2    (Orbital set 2)



 **********************************************************************************************************************************
 DATASETS  * FILE   NREC   LENGTH (MB)   RECORD NAMES
              1      20       31.84       500      610      700      900      950      970     1000      129      960     1100   
                                          VAR    BASINP    GEOM    SYMINP    ZMAT    AOBASIS   BASIS     P2S    ABASIS      S 
                                         1400     1410     1200     1210     1080     1600     1650     1300     1700     1380   
                                           T        V       H0       H01     AOSYM     SMH    MOLCAS    ERIS     OPER     JKOP   

              2       5        5.42       700     1000      520     2100     2140   
                                         GEOM     BASIS   MCVARS     RHF     MCSCF   

 PROGRAMS   *        TOTAL     MULTI    HF-SCF       INT
 CPU TIMES  *         1.18      0.80      0.10      0.18
 REAL TIME  *         1.42 SEC
 DISK USED  *        39.02 MB
 **********************************************************************************************************************************
 Molecular orbitals read from record     2140.2  Type=MCSCF/NATURAL (state averaged)
 Occupation numbers read from record     2140.2  Type=MCSCF/NATURAL (state averaged)
 Orbital energies read from record       2140.2  Type=MCSCF/NATURAL (state averaged)
 Redundancy group numbers read from rec  2140.2  Type=MCSCF/NATURAL (state averaged)

 MULTI/6-31G* energy=    -77.531918506609

           MULTI          HF-SCF
    -77.53191851    -77.90211607
 **********************************************************************************************************************************
 Molpro calculation terminated
