
 Primary working directories    : /scratch.local/johan406.molpro_temp/molpro.Tyt9LPzok2
 Secondary working directories  : /scratch.local/johan406.molpro_temp/molpro.Tyt9LPzok2
 Wavefunction directory         : /home/goodpast/johan406/wfu/
 Main file repository           : /scratch.local/johan406.molpro_temp/molpro.Tyt9LPzok2/

 id        : roweumn

 Nodes     nprocs
 acn06        1

 Using customized tuning parameters: mindgm=1; mindgv=20; mindgc=4; mindgr=1; noblas=0; minvec=7
 default implementation of scratch files=df  


 Variables initialized (934), CPU time= 0.00 sec
                                                                                 !leave this line blank
 
 gprint, orbitals=30
 memory, 125., m
 symmetry, nosym
 nelect=16
 basis=6-31g*
 
 geometry={
 C -0.716 0.162 0.286
 C 0.725 -0.212 -0.347
 H -1.283 0.936 0.158
 H -1.362 -0.796 -0.068
 H 1.372 0.744 0.011
 H 1.291 -0.987 -0.219
 }
 
 hf
 {multi,
 closed 7
 occ 9
 wf,spin=0;STATE,3
 }
 
 Commands  initialized (763), CPU time= 0.01 sec, 617 directives.
 Default parameters read. Elapsed time= 0.07 sec

 Checking input...
 Passed
1


                                         ***  PROGRAM SYSTEM MOLPRO  ***
                                       Copyright, TTI GmbH Stuttgart, 2015
                                    Version 2019.2 linked Oct 25 2019 22:50:27


 **********************************************************************************************************************************
 LABEL *                                                                                 
  64 bit serial version                                                                  DATE: 15-Mar-23          TIME: 16:50:18  
 **********************************************************************************************************************************

 SHA1:             8dbd9ae1082e4ce945b0f27595c9eb2d4aa09004
 **********************************************************************************************************************************


 Variable memory set to  125000000 words,  buffer space 

 SETTING NELECT         =        16.00000000                                  
 SETTING BASIS          =    6-31G*
 ZSYMEL=NOSYM


Geometry recognized as XYZ



 Recomputing integrals since basis changed


 Using spherical harmonics

 Library entry C      S 6-31G                selected for orbital group  1
 Library entry C      P 6-31G                selected for orbital group  1
 Library entry C      D 6-31G*               selected for orbital group  1
 Library entry H      S 6-31G                selected for orbital group  2


 PROGRAM * SEWARD (Integral evaluation for generally contracted gaussian basis sets)     Author: Roland Lindh, 1990

 Geometry written to block  1 of record 700


 Point group  C1  



 ATOMIC COORDINATES

 NR  ATOM    CHARGE       X              Y              Z

   1  C       6.00   -1.353043905    0.306135632    0.540461672
   2  C       6.00    1.370051440   -0.400621938   -0.655734965
   3  H       1.00   -2.424518618    1.768783653    0.298576728
   4  H       1.00   -2.573806982   -1.504221995   -0.128501376
   5  H       1.00    2.592704243    1.405956237    0.020786987
   6  H       1.00    2.439636427   -1.865159685   -0.413850021

 Bond lengths in Bohr (Angstrom)

 1-2  3.057064101  1-3  1.829181680  1-4  2.283674405  2-5  2.283919117  2-6  1.829587708
     ( 1.617728655)     ( 0.967961260)     ( 1.208468452)     ( 1.208597948)     ( 0.968176120)

 Bond angles

  1-2-5  100.25764487   1-2-6  130.84904007   2-1-3  130.91167876   2-1-4  100.26897197

  3-1-4  106.38105302   5-2-6  106.32325797

 NUCLEAR CHARGE:                   16
 NUMBER OF PRIMITIVE AOS:          72
 NUMBER OF SYMMETRY AOS:           70
 NUMBER OF CONTRACTIONS:           36   (   36A   )
 NUMBER OF CORE ORBITALS:           2   (    2A   )
 NUMBER OF VALENCE ORBITALS:       12   (   12A   )


 NUCLEAR REPULSION ENERGY   30.51329708

 Eigenvalues of metric

         1 0.158E-01 0.206E-01 0.401E-01 0.670E-01 0.892E-01 0.211E+00 0.250E+00 0.262E+00


 Contracted 2-electron integrals neglected if value below      1.0D-11
 AO integral compression algorithm  1   Integral accuracy      1.0D-11

     1.311 MB (compressed) written to integral file ( 68.1%)


 NUMBER OF SORTED TWO-ELECTRON INTEGRALS:     222111.     BUFFER LENGTH:  32768
 NUMBER OF SEGMENTS:   1  SEGMENT LENGTH:     222111      RECORD LENGTH: 524288

 Memory used in sort:       0.78 MW

 SORT1 READ      284735. AND WROTE      212524. INTEGRALS IN      1 RECORDS. CPU TIME:     0.00 SEC, REAL TIME:     0.01 SEC
 SORT2 READ      212524. AND WROTE      222111. INTEGRALS IN      5 RECORDS. CPU TIME:     0.03 SEC, REAL TIME:     0.03 SEC

 FILE SIZES:   FILE 1:    31.4 MBYTE,  FILE 4:     4.2 MBYTE,   TOTAL:     35.6 MBYTE

 OPERATOR DM      FOR CENTER  0  COORDINATES:    0.000000    0.000000    0.000000


 **********************************************************************************************************************************
 DATASETS  * FILE   NREC   LENGTH (MB)   RECORD NAMES
              1      19       31.11       500      610      700      900      950      970     1000      129      960     1100   
                                          VAR    BASINP    GEOM    SYMINP    ZMAT    AOBASIS   BASIS     P2S    ABASIS      S 
                                         1400     1410     1200     1210     1080     1600     1650     1300     1700   
                                           T        V       H0       H01     AOSYM     SMH    MOLCAS    ERIS     OPER   

 PROGRAMS   *        TOTAL       INT
 CPU TIMES  *         0.37      0.23
 REAL TIME  *         0.53 SEC
 DISK USED  *        35.97 MB
 **********************************************************************************************************************************


 PROGRAM * RHF-SCF (CLOSED SHELL)       Authors: W. Meyer, H.-J. Werner


 NUMBER OF ELECTRONS:       8+    8-    SPACE SYMMETRY=1    SPIN SYMMETRY: Singlet 
 CONVERGENCE THRESHOLDS:    1.00E-05 (Density)    1.00E-07 (Energy)
 MAX. NUMBER OF ITERATIONS:       60
 INTERPOLATION TYPE:            DIIS
 INTERPOLATION STEPS:              2 (START)      1 (STEP)
 LEVEL SHIFTS:                  0.00 (CLOSED)  0.00 (OPEN) 



 Orbital guess generated from atomic densities. Full valence occupancy:    8

 Molecular orbital dump at record        2100.2

 Initial occupancy:   8

 ITERATION    DDIFF          GRAD             ENERGY        2-EL.EN.            DIPOLE MOMENTS         DIIS   ORB.
    1      0.000D+00      0.000D+00       -77.84592082    111.886748   -0.00101   -0.00070    0.00183    0    start
    2      0.000D+00      0.688D-02       -77.86627574    111.195930   -0.00081   -0.00063    0.00102    1    diag
    3      0.730D-02      0.233D-02       -77.86926313    111.503088   -0.00140   -0.00041    0.00158    2    diag
    4      0.335D-02      0.871D-03       -77.86989087    111.385094   -0.00101   -0.00062    0.00109    3    diag
    5      0.160D-02      0.412D-03       -77.87015880    111.396485   -0.00168   -0.00030    0.00174    4    diag
    6      0.144D-02      0.121D-03       -77.87018430    111.395480   -0.00046   -0.00095    0.00048    5    diag
    7      0.421D-03      0.323D-04       -77.87018538    111.395930   -0.00192   -0.00018    0.00198    6    diag
    8      0.650D-04      0.189D-04       -77.87018562    111.396175   -0.00118   -0.00057    0.00122    7    diag
    9      0.286D-04      0.529D-05       -77.87018566    111.396185   -0.00125   -0.00053    0.00129    8    diag
   10      0.140D-04      0.120D-05       -77.87018566    111.396180   -0.00125   -0.00053    0.00129    9    orth
   11      0.304D-05      0.171D-06       -77.87018566    111.396176   -0.00125   -0.00053    0.00129    0    orth

 Final occupancy:   8

 !RHF STATE  1.1 Energy               -77.870185659274
 Nuclear energy                        30.51329708
 One-electron energy                 -164.08157095
 Two-electron energy                   55.69808821
 Virial quotient                       -1.00310140
 !RHF STATE  1.1 Dipole moment         -0.00124774    -0.00053302     0.00129079
 Dipole moment /Debye                  -0.00317124    -0.00135471     0.00328064

 ELECTRON ORBITALS
 =================

  Orbital  Occupation    Energy     Coefficients
    1.1     2.00000   -11.27484     1 1s    0.76727     2 1s    0.63550
    2.1     2.00000   -11.27436     1 1s    0.63557     2 1s   -0.76734
    3.1     2.00000    -0.97852     1 1s    0.28968     1 1s    0.25934     2 1s    0.28942     2 1s    0.25916
    4.1     2.00000    -0.84616     2 1s   -0.24936
    5.1     2.00000    -0.59675     1 2px   0.27529     1 2py  -0.25038     2 2px  -0.27570
    6.1     2.00000    -0.58528     1 2py   0.30076     2 2py   0.30303
    7.1     2.00000    -0.44377     1 2px  -0.27285     2 2px   0.27341
    8.1     2.00000    -0.34303     1 2pz   0.31805     1 2pz   0.31238     2 2pz   0.31824     2 2pz   0.31247
    9.1     0.00000     0.08091     1 1s    0.28820     1 2pz   0.35475     1 2pz   0.51391     2 1s    0.28837     2 2pz  -0.35444
                                    2 2pz  -0.51346
   10.1     0.00000     0.24839     1 1s   -1.21896     1 2px   0.62887     1 2py   0.27762     1 2pz   0.33098     2 1s   -1.22074
                                    2 2px  -0.62802     2 2py  -0.27464     2 2pz  -0.33309     3 1s    0.74034     4 1s    1.10368
                                    5 1s    1.10130     6 1s    0.74294
   11.1     0.00000     0.28546     1 1s    1.86743     1 2pz  -0.37743     2 1s   -1.86374     2 2pz  -0.37725     3 1s   -1.31198
                                    4 1s   -0.46392     5 1s    0.46315     6 1s    1.30808
   12.1     0.00000     0.28947     1 1s   -0.35054     1 2px   0.36194     1 2py   0.64639     2 1s    0.35118     2 2px   0.36381
                                    2 2py   0.64815     3 1s   -0.37680     4 1s    1.27139     5 1s   -1.27481     6 1s    0.37831
   13.1     0.00000     0.34445     1 1s   -1.07878     1 2px   0.30349     1 2py  -1.20885     2 1s   -1.08406     2 2px  -0.30066
                                    2 2py   1.20671     3 1s    1.97055     4 1s   -0.56840     5 1s   -0.56390     6 1s    1.96970
   14.1     0.00000     0.40473     1 1s    0.60472     1 2px   0.25572     1 2px   1.58360     1 2py  -0.75724     1 2pz  -0.52831
                                    2 1s   -0.60538     2 2px   0.25566     2 2px   1.58269     2 2py  -0.75889     2 2pz  -0.52841
                                    3 1s    1.44577     6 1s   -1.44582
   15.1     0.00000     0.67979     1 2py  -0.37934     1 2px  -1.01504     1 2py   0.87976     2 2py  -0.37933     2 2px  -1.01430
                                    2 2py   0.87952     3 1s   -0.44226     3 1s   -0.46062     6 1s    0.44227     6 1s    0.45925
   16.1     0.00000     0.76752     1 1s   -0.36233     1 2px  -0.61185     1 2px   0.94221     2 1s   -0.36247     2 2px   0.61131
                                    2 2px  -0.93935     3 1s    0.31076     6 1s    0.30902
   17.1     0.00000     0.80423     1 2pz   0.77416     1 2pz  -0.66857     2 2pz   0.77337     2 2pz  -0.66760
   18.1     0.00000     0.84537     1 1s   -0.28229     1 1s    0.44447     1 2pz  -0.74704     1 2py   0.34688     1 2pz   0.87218
                                    2 1s   -0.28234     2 1s    0.44343     2 2pz   0.74793     2 2py  -0.34664     2 2pz  -0.87336
   19.1     0.00000     0.87063     1 1s   -0.26176     1 1s    0.54365     1 2px  -0.65139     1 2px   1.23643     2 1s    0.26365
                                    2 1s   -0.55280     2 2px  -0.65137     2 2px   1.23278     4 1s    0.36833     5 1s   -0.36831
   20.1     0.00000     0.93715     1 1s    0.55522     1 2py  -0.64309     1 2px  -0.49415     1 2py   1.88699     2 1s    0.25271
                                    2 1s    0.54928     2 2py   0.64267     2 2px   0.49930     2 2py  -1.88547     3 1s   -1.06743
                                    4 1s    0.37065     5 1s    0.36852     6 1s   -1.06680
   21.1     0.00000     1.05165     1 1s   -0.96961     1 1s    2.08443     1 2px  -0.68987     1 2py   0.57994     1 2pz  -0.63833
                                    2 1s   -0.96276     2 1s    2.06861     2 2px   0.69837     2 2py  -0.58186     2 2pz   0.63698
                                    3 1s   -0.43158     3 1s   -0.99252     4 1s   -0.40524     5 1s   -0.40466     6 1s   -0.43090
                                    6 1s   -0.99201
   22.1     0.00000     1.09093     1 1s    0.35953     1 1s   -0.64121     1 2px  -0.28035     1 2py  -0.48860     1 2px   0.50937
                                    1 2py   0.68751     2 1s   -0.36105     2 1s    0.64522     2 2px  -0.28207     2 2py  -0.48982
                                    2 2px   0.51187     2 2py   0.68698     4 1s   -0.66962     4 1s    1.33468     5 1s    0.67401
                                    5 1s   -1.34026
   23.1     0.00000     1.09431     1 1s   -0.55537     1 1s    1.15953     1 2py   0.28888     1 2px  -0.41871     2 1s   -0.55152
                                    2 1s    1.15154     2 2py  -0.28522     2 2px   0.41780     4 1s    0.72345     4 1s   -1.08250
                                    5 1s    0.71990     5 1s   -1.07518
   24.1     0.00000     1.26102     1 1s   -1.00549     1 1s    2.91155     1 2px  -0.28196     1 2py   0.36729     1 2px   1.25885
                                    1 2py  -0.85411     1 2pz  -0.65364     2 1s    1.01372     2 1s   -2.93120     2 2px  -0.28042
                                    2 2py   0.36553     2 2px   1.25131     2 2py  -0.84410     2 2pz  -0.65946     3 1s   -0.43739
                                    3 1s    0.47859     4 1s   -0.35703     4 1s   -0.28005     5 1s    0.35763     5 1s    0.28212
                                    6 1s    0.43830     6 1s   -0.46491
   25.1     0.00000     1.31910     1 1s   -1.13110     1 1s    2.59675     1 2px   0.30151     1 2py  -0.31747     1 2py   0.32288
                                    1 2pz  -0.33591     2 1s    1.25643     2 1s   -2.80454     2 2px   0.33870     2 2py  -0.37429
                                    2 2py   0.38874     2 2pz  -0.35819     3 1s    0.45593     3 1s   -1.33798     6 1s   -0.55885
                                    6 1s    1.52277
   26.1     0.00000     1.32097     1 1s   -0.95494     1 1s    1.62463     1 2px   0.28677     1 2py  -0.41763     1 2px  -0.38760
                                    1 2py   0.45946     2 1s   -0.78230     2 1s    1.23190     2 2py   0.36960     2 2px   0.37306
                                    2 2py  -0.41163     3 1s    0.76574     3 1s   -1.37738     6 1s    0.69472     6 1s   -1.17492
   27.1     0.00000     1.72781     1 1s    0.47162     1 3d1+  0.34393     1 3d2+  0.38793     1 3d1- -0.33127     2 1s   -0.47320
                                    2 3d1+ -0.34320     2 3d2+ -0.38718     2 3d1-  0.33248
   28.1     0.00000     1.93795     1 3d2- -0.29695     1 3d1+  0.40983     1 3d1-  0.44606     2 3d2-  0.29989     2 3d1+ -0.41071
                                    2 3d1- -0.44341
   29.1     0.00000     2.00891     1 1s   -0.49161     1 2px   0.34710     1 2py  -0.44908     1 3d2+  0.43174     1 3d1-  0.39998
                                    2 1s   -0.49205     2 2px  -0.34560     2 2py   0.44971     2 3d2+  0.43198     2 3d1-  0.39561
                                    3 1s    0.43285     6 1s    0.43243
   30.1     0.00000     2.02047     1 1s    0.42766     1 1s   -0.41251     1 3d0   0.39559     1 3d1+  0.44317     2 1s    0.42786
                                    2 1s   -0.41339     2 3d0   0.39668     2 3d1+  0.44198
   31.1     0.00000     2.27591     1 2py  -0.50627     1 3d2+ -0.32343     1 3d1-  0.50943     2 2py   0.50733     2 3d2+ -0.32719
                                    2 3d1-  0.51480     4 1s   -0.48803     5 1s   -0.49519
   32.1     0.00000     2.30441     1 1s    0.30344     1 1s   -1.12081     1 3d0   0.64557     1 3d2+  0.28989     2 1s   -0.30301
                                    2 1s    1.11959     2 3d0  -0.64110     2 3d2+ -0.28155     3 1s    0.39679     4 1s    0.40875
                                    5 1s   -0.39888     6 1s   -0.39794
   33.1     0.00000     2.39460     1 3d0   0.41692     1 3d2- -0.25621     1 3d1+ -0.40453     1 3d2+ -0.38164     1 3d1-  0.25591
                                    2 3d0   0.41436     2 3d2- -0.25455     2 3d1+ -0.40478     2 3d2+ -0.38222     2 3d1-  0.25776
   34.1     0.00000     2.53177     1 1s   -0.26459     1 1s    0.74738     1 2px   0.54656     1 2py  -0.38133     1 3d2-  0.55590
                                    1 3d2+  0.33102     1 3d1-  0.42995     2 1s    0.26490     2 1s   -0.74807     2 2px   0.54602
                                    2 2py  -0.38162     2 3d2- -0.55578     2 3d2+ -0.33357     2 3d1- -0.43136     3 1s    0.65009
                                    4 1s   -0.32236     5 1s    0.32352     6 1s   -0.65028
   35.1     0.00000     2.86500     1 2px   0.30203     1 2py  -0.30366     1 3d0   0.32445     1 3d2-  0.67489     1 3d1+ -0.29909
                                    1 3d2+  0.26859     2 1s   -0.53522     2 3d0   0.39182     2 3d2-  0.78131     3 1s    0.73639
                                    6 1s    0.78836
   36.1     0.00000     2.86773     1 1s    1.49235     1 2px   0.80477     1 2pz  -0.36660     1 3d0  -0.32833     1 3d2- -0.54465
                                    1 3d1+ -0.51991     1 3d2+  0.51722     2 1s   -1.40793     2 2px   0.85224     2 2py  -0.27935
                                    2 2pz  -0.36152     2 3d2-  0.37519     2 3d1+  0.57484     2 3d2+ -0.56483     3 1s   -0.31393


 HOMO      8.1    -0.343025 =      -9.3342eV
 LUMO      9.1     0.080913 =       2.2018eV
 LUMO-HOMO         0.423938 =      11.5359eV


 **********************************************************************************************************************************
 DATASETS  * FILE   NREC   LENGTH (MB)   RECORD NAMES
              1      19       31.11       500      610      700      900      950      970     1000      129      960     1100   
                                          VAR    BASINP    GEOM    SYMINP    ZMAT    AOBASIS   BASIS     P2S    ABASIS      S 
                                         1400     1410     1200     1210     1080     1600     1650     1300     1700   
                                           T        V       H0       H01     AOSYM     SMH    MOLCAS    ERIS     OPER   

              2       4        2.86       700     1000      520     2100   
                                         GEOM     BASIS   MCVARS     RHF  

 PROGRAMS   *        TOTAL    HF-SCF       INT
 CPU TIMES  *         0.51      0.14      0.23
 REAL TIME  *         0.77 SEC
 DISK USED  *        35.97 MB
 **********************************************************************************************************************************


 PROGRAM * MULTI (Direct Multiconfiguration SCF)       Authors: P.J. Knowles, H.-J. Werner (1984)


 Number of closed-shell orbitals:   7 (   7 )
 Number of active  orbitals:        2 (   2 )
 Number of external orbitals:      27 (  27 )

 State symmetry 1

 Number of electrons:     2    Spin symmetry=Singlet   Space symmetry=1
 Number of states:        3
 Number of CSFs:          3   (4 determinants, 4 intermediate states)

 Molecular orbitals read from record     2100.2  Type=RHF/CANONICAL (state 1.1)

 Wavefunction dump at record             2140.2

 Convergence thresholds  0.10E-01 (gradient)  0.10E-05 (energy)  0.10E-02 (step length)

 Weight factors for state symmetry  1:    0.33333   0.33333   0.33333

 Number of orbital rotations:      257   (    14 Core/Active    189 Core/Virtual   0 Active/Active     54 Active/Virtual)
 Total number of variables:        269

 Micro-Iterations solved by the two-step solver

 ITER. MIC  NCI  NEG     ENERGY(VAR)     ENERGY(PROJ)   ENERGY CHANGE     GRAD(0)  GRAD(ORB)   GRAD(CI)     STEP       TIME

   1   14    6    0     -77.66159397     -77.66827501   -0.00668104    0.09627867 0.00017351 0.00000000  0.18D+00      0.37
   2   13    6    0     -77.66813780     -77.66872316   -0.00058536    0.02511112 0.00000954 0.00000000  0.62D-01      0.56
   3   11    6    0     -77.66876764     -77.66878687   -0.00001924    0.00417752 0.00000175 0.00000000  0.78D-02      0.68
   4    8    6    0     -77.66878693     -77.66878693   -0.00000000    0.00003496 0.00000000 0.00000000  0.53D-04      0.77
   5    4    3    0     -77.66878693     -77.66878693    0.00000000    0.00000000 0.00000000 0.00000000  0.63D-08      0.82

 ** WVFN ****  CONVERGENCE REACHED, FINAL GRADIENT:  0.25D-12



 Results for state 1.1
 =====================

 !MCSCF STATE  1.1 Energy             -77.886356490532
 Nuclear energy                        30.51329708
 Kinetic energy                        77.65416878
 One electron energy                 -164.04073958
 Two electron energy                   55.64108601
 Virial ratio                           2.00299002

 !MCSCF STATE  1.1 Dipole moment       -0.09985503    -0.01327877     0.02829716
 Dipole moment /Debye                  -0.25378955    -0.03374905     0.07191951

 Results for state 2.1
 =====================

 !MCSCF STATE  2.1 Energy             -77.622824625951
 Nuclear energy                        30.51329708
 Kinetic energy                        77.82228389
 One electron energy                 -163.86483174
 Two electron energy                   55.72871003
 Virial ratio                           1.99743699

 !MCSCF STATE  2.1 Dipole moment        0.15825013    -0.04951646    -0.06215223
 Dipole moment /Debye                   0.40220536    -0.12585005    -0.15796488

 Results for state 3.1
 =====================

 !MCSCF STATE  3.1 Energy             -77.497179673698
 Nuclear energy                        30.51329708
 Kinetic energy                        78.00277745
 One electron energy                 -163.73510520
 Two electron energy                   55.72462844
 Virial ratio                           1.99351821

 !MCSCF STATE  3.1 Dipole moment       -0.15243078     0.03596705     0.25876043
 Dipole moment /Debye                  -0.38741503     0.09141312     0.65766032

 State-averaged charge density matrix saved on record  2140.2 (density set 1)

 !MCSCF expec         <1.1|DMX|1.1>    -0.099855032552 au =    -0.253789553634 Debye
 !MCSCF trans         <2.1|DMX|1.1>     1.137580418947 au =     2.891251641187 Debye
 !MCSCF expec         <2.1|DMX|2.1>     0.158250128233 au =     0.402205360914 Debye
 !MCSCF trans         <3.1|DMX|1.1>    -0.093190362838 au =    -0.236850762381 Debye
 !MCSCF trans         <3.1|DMX|2.1>     1.876482362736 au =     4.769230043483 Debye
 !MCSCF expec         <3.1|DMX|3.1>    -0.152430784393 au =    -0.387415032996 Debye

 !MCSCF expec         <1.1|DMY|1.1>    -0.013278768250 au =    -0.033749051808 Debye
 !MCSCF trans         <2.1|DMY|1.1>    -0.244233738471 au =    -0.620739585024 Debye
 !MCSCF expec         <2.1|DMY|2.1>    -0.049516461037 au =    -0.125850047043 Debye
 !MCSCF trans         <3.1|DMY|1.1>     0.010051626495 au =     0.025547012868 Debye
 !MCSCF trans         <3.1|DMY|2.1>    -0.401091376476 au =    -1.019405820624 Debye
 !MCSCF expec         <3.1|DMY|3.1>     0.035967045166 au =     0.091413122654 Debye

 !MCSCF expec         <1.1|DMZ|1.1>     0.028297163601 au =     0.071919505065 Debye
 !MCSCF trans         <2.1|DMZ|1.1>    -0.826729206201 au =    -2.101198415896 Debye
 !MCSCF expec         <2.1|DMZ|2.1>    -0.062152234832 au =    -0.157964877005 Debye
 !MCSCF trans         <3.1|DMZ|1.1>     0.017299429823 au =     0.043967884848 Debye
 !MCSCF trans         <3.1|DMZ|2.1>    -1.354698232481 au =    -3.443073933710 Debye
 !MCSCF expec         <3.1|DMZ|3.1>     0.258760425154 au =     0.657660321363 Debye


 NATURAL ORBITALS (state averaged)
 =================================

  Orbital  Occupation    Energy     Coefficients
    1.1     2.00000   -11.27723     1 1s    0.99615
    2.1     2.00000   -11.26550     2 1s   -0.99618
    3.1     2.00000    -0.97865     1 1s    0.29371     1 1s    0.26040     2 1s    0.28967     2 1s    0.26160
    4.1     2.00000    -0.84483     1 1s    0.25023     1 1s    0.26039     2 1s   -0.25075     2 1s   -0.27008
    5.1     2.00000    -0.59858     1 2py  -0.34010     2 2px  -0.27259
    6.1     2.00000    -0.58584     2 2py   0.36815
    7.1     2.00000    -0.43439     2 2px   0.29181
    8.1     1.00000    -0.22610     1 2px   0.25661     1 2pz   0.27268     1 2pz   0.29406     2 2pz   0.26039     2 2pz   0.26466
    9.1     1.00000    -0.05374     1 2pz   0.41236     1 2pz   0.50332     2 1s    0.27337     2 2pz  -0.36515     2 2pz  -0.45745
   10.1    -0.00000     0.24395     1 1s   -1.19265     1 2px   0.65444     1 2py   0.33542     1 2pz   0.31612     2 1s   -1.20640
                                    2 2px  -0.59883     2 2py  -0.26983     2 2pz  -0.31609     3 1s    0.66773     4 1s    1.17522
                                    5 1s    1.05664     6 1s    0.72319
   11.1    -0.00000     0.28109     1 1s    1.88985     1 2pz  -0.38807     2 1s   -1.88778     2 2pz  -0.41588     3 1s   -1.05399
                                    4 1s   -0.86571     5 1s    0.88285     6 1s    1.04376
   12.1    -0.00000     0.28314     1 1s    0.41111     1 2px   0.31886     1 2py   0.69172     2 2px   0.41247     2 2py   0.64729
                                    3 1s   -0.90751     4 1s    0.99706     5 1s   -1.07406     6 1s    0.67762
   13.1    -0.00000     0.34525     1 1s   -1.09454     1 2px   0.35499     1 2py  -1.18601     2 1s   -1.14136     2 2px  -0.28357
                                    2 2py   1.21491     3 1s    1.97549     4 1s   -0.50301     5 1s   -0.57109     6 1s    2.00318
   14.1    -0.00000     0.39999     1 1s    0.53901     1 2px   0.25327     1 2px   1.55434     1 2py  -0.74478     1 2pz  -0.46125
                                    2 1s   -0.47292     2 2px   0.26891     2 2px   1.56976     2 2py  -0.75738     2 2pz  -0.54115
                                    3 1s    1.46171     6 1s   -1.52290
   15.1    -0.00000     0.67807     1 2py  -0.39528     1 2px  -1.02649     1 2py   0.91254     2 2py  -0.37777     2 2px  -0.99586
                                    2 2py   0.85565     3 1s   -0.44311     3 1s   -0.46623     6 1s    0.43856     6 1s    0.43790
   16.1    -0.00000     0.76300     1 1s   -0.26571     1 2px  -0.63220     1 2px   0.98342     2 1s   -0.37681     2 2px   0.57392
                                    2 2px  -0.85987     3 1s    0.29312     6 1s    0.30126
   17.1    -0.00000     0.79874     1 2pz   0.85088     1 2pz  -0.80521     2 2pz   0.68810     2 2pz  -0.56434
   18.1    -0.00000     0.84067     1 1s    0.39367     1 2pz  -0.62232     1 2py   0.29655     1 2pz   0.81157     2 1s   -0.27287
                                    2 1s    0.35002     2 2pz   0.83058     2 2px  -0.25762     2 2py  -0.32685     2 2pz  -0.98360
   19.1    -0.00000     0.86431     1 1s   -0.29850     1 1s    0.66092     1 2px  -0.61842     1 2px   1.19472     2 1s   -0.53370
                                    2 2px  -0.66080     2 2px   1.28122     4 1s    0.37566     5 1s   -0.39312
   20.1    -0.00000     0.93473     1 1s    0.27826     1 1s    0.46902     1 2py  -0.65005     1 2px  -0.44366     1 2py   1.88070
                                    2 1s    0.26487     2 1s    0.51713     2 2py   0.64638     2 2px   0.47783     2 2py  -1.88275
                                    3 1s   -1.03629     4 1s    0.41018     5 1s    0.36348     6 1s   -1.04399
   21.1    -0.00000     1.04686     1 1s   -0.88888     1 1s    1.96430     1 2px  -0.62392     1 2py   0.67083     1 2pz  -0.60877
                                    2 1s   -0.93833     2 1s    2.02139     2 2px   0.72377     2 2py  -0.56857     2 2pz   0.61440
                                    3 1s   -0.41999     3 1s   -1.01119     4 1s   -0.52385     5 1s   -0.40119     6 1s   -0.41454
                                    6 1s   -0.98840
   22.1    -0.00000     1.07887     1 1s    0.66406     1 1s   -1.31597     1 2px  -0.37731     1 2py  -0.55724     1 2px   0.77316
                                    1 2py   0.53002     1 2pz   0.25170     2 1s   -0.33724     2 2py  -0.28541     2 2py   0.64750
                                    4 1s   -0.88852     4 1s    1.70576     5 1s   -0.57831     6 1s    0.35819
   23.1    -0.00000     1.08882     1 1s   -0.31626     1 1s    0.72390     1 2py   0.31713     2 1s   -0.68630     2 1s    1.38053
                                    2 2px  -0.37001     2 2py  -0.49946     2 2px   0.65767     2 2py   0.39422     3 1s   -0.26495
                                    4 1s    0.26082     5 1s    0.95018     5 1s   -1.61670
   24.1    -0.00000     1.25050     1 1s   -1.04746     1 1s    3.01699     1 2px  -0.25769     1 2py   0.35455     1 2px   1.24912
                                    1 2py  -0.83733     1 2pz  -0.66705     2 1s    1.09283     2 1s   -3.08872     2 2px  -0.26486
                                    2 2py   0.34477     2 2px   1.23827     2 2py  -0.82797     2 2pz  -0.66000     3 1s   -0.41839
                                    3 1s    0.42247     4 1s   -0.35013     4 1s   -0.29926     5 1s    0.36023     5 1s    0.29946
                                    6 1s    0.40495     6 1s   -0.37702
   25.1    -0.00000     1.31892     1 1s   -1.43155     1 1s    2.96081     1 2px   0.42744     1 2py  -0.48736     1 2px  -0.35863
                                    1 2py   0.54019     1 2pz  -0.35164     2 1s    0.62070     2 1s   -1.62161     3 1s    0.79670
                                    3 1s   -1.88119     4 1s   -0.27943     6 1s    0.70165
   26.1    -0.00000     1.32361     1 1s   -0.26148     2 1s   -1.28725     2 1s    2.40842     2 2px  -0.39213     2 2py   0.52277
                                    2 2px   0.43869     2 2py  -0.58640     2 2pz   0.25187     3 1s    0.39981     3 1s   -0.46441
                                    6 1s    0.89676     6 1s   -1.80954
   27.1    -0.00000     1.72033     1 1s    0.46178     1 3d1+  0.35043     1 3d2+  0.39817     1 3d1- -0.32985     2 1s   -0.48968
                                    2 3d1+ -0.33539     2 3d2+ -0.37977     2 3d1-  0.33310
   28.1    -0.00000     1.93064     1 3d2- -0.30297     1 3d1+  0.42804     1 3d1-  0.46180     2 3d2-  0.28968     2 3d1+ -0.39002
                                    2 3d1- -0.42780     6 1s    0.25792
   29.1    -0.00000     2.00455     1 1s   -0.47562     1 2px   0.36003     1 2py  -0.45695     1 3d2+  0.44330     1 3d1-  0.39289
                                    2 1s   -0.43029     2 2px  -0.35416     2 2py   0.45717     2 3d2+  0.45819     2 3d1-  0.42489
                                    3 1s    0.43215     6 1s    0.42846
   30.1    -0.00000     2.01447     1 1s    0.42392     1 1s   -0.47631     1 3d0   0.42188     1 3d1+  0.45591     2 1s    0.41236
                                    2 1s   -0.41695     2 3d0   0.40285     2 3d1+  0.47040
   31.1    -0.00000     2.26883     1 2py  -0.52655     1 3d0  -0.29613     1 3d2+ -0.34481     1 3d1-  0.53468     2 2py   0.49101
                                    2 3d2+ -0.29488     2 3d1-  0.49353     4 1s   -0.53024     5 1s   -0.44128
   32.1    -0.00000     2.29862     1 1s    0.29951     1 1s   -1.10442     1 3d0   0.59905     1 3d2+  0.25719     2 1s   -0.30974
                                    2 1s    1.13807     2 3d0  -0.67936     2 3d2+ -0.30730     3 1s    0.39927     4 1s    0.35209
                                    5 1s   -0.45289     6 1s   -0.39000
   33.1    -0.00000     2.38598     1 3d0   0.43057     1 3d2- -0.26848     1 3d1+ -0.39029     1 3d2+ -0.38114     2 3d0   0.40302
                                    2 3d1+ -0.41404     2 3d2+ -0.37997     2 3d1-  0.27503
   34.1    -0.00000     2.52436     1 1s   -0.26667     1 1s    0.73640     1 2px   0.54778     1 2py  -0.37531     1 3d2-  0.55869
                                    1 3d2+  0.32912     1 3d1-  0.42588     2 1s    0.26383     2 1s   -0.74656     2 2px   0.54039
                                    2 2py  -0.38125     2 3d2- -0.55416     2 3d2+ -0.33371     2 3d1- -0.43121     3 1s    0.66796
                                    4 1s   -0.31298     5 1s    0.32677     6 1s   -0.64438
   35.1    -0.00000     2.85636     1 1s   -1.17134     1 2px  -0.33361     1 3d0   0.46039     1 3d2-  0.85625     2 1s    0.57954
                                    2 2px  -0.66872     2 2py   0.37356     2 3d2-  0.32696     2 3d1+ -0.51806     2 3d2+  0.49678
                                    3 1s    0.74913     6 1s    0.49673
   36.1    -0.00000     2.86524     1 1s    0.96248     1 2px   0.79447     1 2py  -0.36433     1 2pz  -0.28436     1 3d1+ -0.58369
                                    1 3d2+  0.55637     2 1s   -1.39862     2 2px   0.55331     2 2pz  -0.30876     2 3d0   0.44944
                                    2 3d2-  0.80886     2 3d1+  0.30626     2 3d2+ -0.31753     3 1s    0.26481     6 1s    0.64093


 Natural orbital dump (state averaged) at molpro section  2140.2    (Orbital set 2)



 **********************************************************************************************************************************
 DATASETS  * FILE   NREC   LENGTH (MB)   RECORD NAMES
              1      20       31.84       500      610      700      900      950      970     1000      129      960     1100   
                                          VAR    BASINP    GEOM    SYMINP    ZMAT    AOBASIS   BASIS     P2S    ABASIS      S 
                                         1400     1410     1200     1210     1080     1600     1650     1300     1700     1380   
                                           T        V       H0       H01     AOSYM     SMH    MOLCAS    ERIS     OPER     JKOP   

              2       5        5.42       700     1000      520     2100     2140   
                                         GEOM     BASIS   MCVARS     RHF     MCSCF   

 PROGRAMS   *        TOTAL     MULTI    HF-SCF       INT
 CPU TIMES  *         1.37      0.86      0.14      0.23
 REAL TIME  *         1.74 SEC
 DISK USED  *        39.02 MB
 **********************************************************************************************************************************
 Molecular orbitals read from record     2140.2  Type=MCSCF/NATURAL (state averaged)
 Occupation numbers read from record     2140.2  Type=MCSCF/NATURAL (state averaged)
 Orbital energies read from record       2140.2  Type=MCSCF/NATURAL (state averaged)
 Redundancy group numbers read from rec  2140.2  Type=MCSCF/NATURAL (state averaged)

 MULTI/6-31G* energy=    -77.497179673698

           MULTI          HF-SCF
    -77.49717967    -77.87018566
 **********************************************************************************************************************************
 Molpro calculation terminated
