
 Primary working directories    : /scratch.local/johan406.molpro_temp/molpro.4IhUBLrvpC
 Secondary working directories  : /scratch.local/johan406.molpro_temp/molpro.4IhUBLrvpC
 Wavefunction directory         : /home/goodpast/johan406/wfu/
 Main file repository           : /scratch.local/johan406.molpro_temp/molpro.4IhUBLrvpC/

 id        : roweumn

 Nodes     nprocs
 acn06        1

 Using customized tuning parameters: mindgm=1; mindgv=20; mindgc=4; mindgr=1; noblas=0; minvec=7
 default implementation of scratch files=df  


 Variables initialized (934), CPU time= 0.00 sec
                                                                                 !leave this line blank
 
 gprint, orbitals=30
 memory, 125., m
 symmetry, nosym
 nelect=16
 basis=6-31g*
 
 geometry={
 C -0.724 0.178 0.287
 C 0.733 -0.227 -0.347
 H -1.262 0.913 0.199
 H -1.340 -0.862 -0.091
 H 1.350 0.810 0.034
 H 1.270 -0.964 -0.260
 }
 
 hf
 {multi,
 closed 7
 occ 9
 wf,spin=0;STATE,3
 }
 
 Commands  initialized (763), CPU time= 0.01 sec, 617 directives.
 Default parameters read. Elapsed time= 0.06 sec

 Checking input...
 Passed
1


                                         ***  PROGRAM SYSTEM MOLPRO  ***
                                       Copyright, TTI GmbH Stuttgart, 2015
                                    Version 2019.2 linked Oct 25 2019 22:50:27


 **********************************************************************************************************************************
 LABEL *                                                                                 
  64 bit serial version                                                                  DATE: 15-Mar-23          TIME: 16:50:58  
 **********************************************************************************************************************************

 SHA1:             8dbd9ae1082e4ce945b0f27595c9eb2d4aa09004
 **********************************************************************************************************************************


 Variable memory set to  125000000 words,  buffer space 

 SETTING NELECT         =        16.00000000                                  
 SETTING BASIS          =    6-31G*
 ZSYMEL=NOSYM


Geometry recognized as XYZ



 Recomputing integrals since basis changed


 Using spherical harmonics

 Library entry C      S 6-31G                selected for orbital group  1
 Library entry C      P 6-31G                selected for orbital group  1
 Library entry C      D 6-31G*               selected for orbital group  1
 Library entry H      S 6-31G                selected for orbital group  2


 PROGRAM * SEWARD (Integral evaluation for generally contracted gaussian basis sets)     Author: Roland Lindh, 1990

 Geometry written to block  1 of record 700


 Point group  C1  



 ATOMIC COORDINATES

 NR  ATOM    CHARGE       X              Y              Z

   1  C       6.00   -1.368161714    0.336371250    0.542351398
   2  C       6.00    1.385169249   -0.428967830   -0.655734965
   3  H       1.00   -2.384834369    1.725319952    0.376055499
   4  H       1.00   -2.532233007   -1.628943919   -0.171965077
   5  H       1.00    2.551130268    1.530678161    0.064250688
   6  H       1.00    2.399952178   -1.821695984   -0.491328792

 Bond lengths in Bohr (Angstrom)

 1-2  3.098707188  1-3  1.729293529  1-4  2.393276774  2-5  2.391245878  2-6  1.731041736
     ( 1.639765227)     ( 0.915102726)     ( 1.266467528)     ( 1.265392824)     ( 0.916027838)

 Bond angles

  1-2-5   96.57057702   1-2-6  133.06921448   2-1-3  133.12406302   2-1-4   96.54359297

  3-1-4  110.17605354   5-2-6  110.17607701

 NUCLEAR CHARGE:                   16
 NUMBER OF PRIMITIVE AOS:          72
 NUMBER OF SYMMETRY AOS:           70
 NUMBER OF CONTRACTIONS:           36   (   36A   )
 NUMBER OF CORE ORBITALS:           2   (    2A   )
 NUMBER OF VALENCE ORBITALS:       12   (   12A   )


 NUCLEAR REPULSION ENERGY   30.49236903

 Eigenvalues of metric

         1 0.168E-01 0.173E-01 0.337E-01 0.759E-01 0.967E-01 0.190E+00 0.226E+00 0.258E+00


 Contracted 2-electron integrals neglected if value below      1.0D-11
 AO integral compression algorithm  1   Integral accuracy      1.0D-11

     1.311 MB (compressed) written to integral file ( 67.9%)


 NUMBER OF SORTED TWO-ELECTRON INTEGRALS:     222111.     BUFFER LENGTH:  32768
 NUMBER OF SEGMENTS:   1  SEGMENT LENGTH:     222111      RECORD LENGTH: 524288

 Memory used in sort:       0.78 MW

 SORT1 READ      284735. AND WROTE      212524. INTEGRALS IN      1 RECORDS. CPU TIME:     0.00 SEC, REAL TIME:     0.01 SEC
 SORT2 READ      212524. AND WROTE      222111. INTEGRALS IN      5 RECORDS. CPU TIME:     0.02 SEC, REAL TIME:     0.02 SEC

 FILE SIZES:   FILE 1:    31.4 MBYTE,  FILE 4:     4.2 MBYTE,   TOTAL:     35.6 MBYTE

 OPERATOR DM      FOR CENTER  0  COORDINATES:    0.000000    0.000000    0.000000


 **********************************************************************************************************************************
 DATASETS  * FILE   NREC   LENGTH (MB)   RECORD NAMES
              1      19       31.11       500      610      700      900      950      970     1000      129      960     1100   
                                          VAR    BASINP    GEOM    SYMINP    ZMAT    AOBASIS   BASIS     P2S    ABASIS      S 
                                         1400     1410     1200     1210     1080     1600     1650     1300     1700   
                                           T        V       H0       H01     AOSYM     SMH    MOLCAS    ERIS     OPER   

 PROGRAMS   *        TOTAL       INT
 CPU TIMES  *         0.29      0.19
 REAL TIME  *         0.41 SEC
 DISK USED  *        35.97 MB
 **********************************************************************************************************************************


 PROGRAM * RHF-SCF (CLOSED SHELL)       Authors: W. Meyer, H.-J. Werner


 NUMBER OF ELECTRONS:       8+    8-    SPACE SYMMETRY=1    SPIN SYMMETRY: Singlet 
 CONVERGENCE THRESHOLDS:    1.00E-05 (Density)    1.00E-07 (Energy)
 MAX. NUMBER OF ITERATIONS:       60
 INTERPOLATION TYPE:            DIIS
 INTERPOLATION STEPS:              2 (START)      1 (STEP)
 LEVEL SHIFTS:                  0.00 (CLOSED)  0.00 (OPEN) 



 Orbital guess generated from atomic densities. Full valence occupancy:    8

 Molecular orbital dump at record        2100.2

 Initial occupancy:   8

 ITERATION    DDIFF          GRAD             ENERGY        2-EL.EN.            DIPOLE MOMENTS         DIIS   ORB.
    1      0.000D+00      0.000D+00       -77.78754354    111.680987    0.00048   -0.00178    0.00045    0    start
    2      0.000D+00      0.699D-02       -77.80903700    110.953637   -0.00017   -0.00015    0.00079    1    diag
    3      0.764D-02      0.241D-02       -77.81227597    111.255518    0.00075   -0.00064   -0.00008    2    diag
    4      0.346D-02      0.889D-03       -77.81295233    111.133128   -0.00008    0.00001    0.00073    3    diag
    5      0.166D-02      0.429D-03       -77.81325164    111.143893    0.00115   -0.00073   -0.00051    4    diag
    6      0.147D-02      0.144D-03       -77.81329087    111.143726   -0.00134    0.00082    0.00198    5    diag
    7      0.532D-03      0.522D-04       -77.81329328    111.144030    0.00111   -0.00073   -0.00048    6    diag
    8      0.958D-04      0.258D-04       -77.81329395    111.144454    0.00025   -0.00018    0.00039    7    diag
    9      0.547D-04      0.683D-05       -77.81329402    111.144538    0.00031   -0.00023    0.00032    8    diag
   10      0.194D-04      0.161D-05       -77.81329402    111.144510    0.00031   -0.00022    0.00032    9    orth
   11      0.434D-05      0.264D-06       -77.81329402    111.144510    0.00031   -0.00022    0.00032    0    orth

 Final occupancy:   8

 !RHF STATE  1.1 Energy               -77.813294021250
 Nuclear energy                        30.49236903
 One-electron energy                 -163.87791827
 Two-electron energy                   55.57225523
 Virial quotient                       -1.00142307
 !RHF STATE  1.1 Dipole moment          0.00031151    -0.00022294     0.00032108
 Dipole moment /Debye                   0.00079174    -0.00056663     0.00081604

 ELECTRON ORBITALS
 =================

  Orbital  Occupation    Energy     Coefficients
    1.1     2.00000   -11.28064     1 1s    0.71528     2 1s    0.69349
    2.1     2.00000   -11.28020     1 1s   -0.69355     2 1s    0.71534
    3.1     2.00000    -0.98170     1 1s    0.29027     1 1s    0.25081     2 1s    0.28988     2 1s    0.25056
    4.1     2.00000    -0.86401     1 1s   -0.25084     2 1s    0.25125
    5.1     2.00000    -0.61689     1 2px   0.27054     1 2py  -0.25700     2 2px  -0.27016     2 2py   0.25778
    6.1     2.00000    -0.57835     1 2py   0.29160     2 2py   0.29152
    7.1     2.00000    -0.42441     1 2px  -0.27862     2 2px   0.27906     4 1s    0.25425     5 1s    0.25380
    8.1     2.00000    -0.34051     1 2pz   0.31932     1 2pz   0.31273     2 2pz   0.31927     2 2pz   0.31268
    9.1     0.00000     0.07939     1 1s    0.27374     1 2pz   0.35777     1 2pz   0.51200     2 1s    0.27342     2 2pz  -0.35762
                                    2 2pz  -0.51194
   10.1     0.00000     0.23353     1 1s   -1.07172     1 2px   0.55349     1 2py   0.33476     1 2pz   0.28760     2 1s   -1.07347
                                    2 2px  -0.55098     2 2py  -0.32809     2 2pz  -0.28867     3 1s    0.61172     4 1s    1.02888
                                    5 1s    1.02104     6 1s    0.61646
   11.1     0.00000     0.27476     1 1s   -0.36315     1 2px   0.36954     1 2py   0.59031     2 1s    0.37302     2 2px   0.37564
                                    2 2py   0.59430     4 1s    1.19702     5 1s   -1.20845
   12.1     0.00000     0.28887     1 1s    1.88999     1 2pz  -0.36876     2 1s   -1.88657     2 2pz  -0.36730     3 1s   -1.33185
                                    4 1s   -0.35739     5 1s    0.35480     6 1s    1.33013
   13.1     0.00000     0.34465     1 1s   -1.40123     1 2px   0.40011     1 2py  -1.20059     2 1s   -1.39747     2 2px  -0.39841
                                    2 2py   1.20028     3 1s    2.21990     4 1s   -0.43424     5 1s   -0.43341     6 1s    2.21611
   14.1     0.00000     0.40009     1 1s    0.29912     1 2px   1.51914     1 2py  -0.85747     1 2pz  -0.50362     2 1s   -0.30346
                                    2 2px   1.51690     2 2py  -0.85760     2 2pz  -0.50514     3 1s    1.72592     6 1s   -1.72105
   15.1     0.00000     0.66476     1 2py  -0.34346     1 2px  -1.21703     1 2py   0.99209     1 2pz   0.25736     2 2py  -0.34337
                                    2 2px  -1.21370     2 2py   0.99093     2 2pz   0.25955     3 1s   -0.43707     3 1s   -0.73686
                                    6 1s    0.43714     6 1s    0.73167
   16.1     0.00000     0.77666     1 1s    0.39823     1 2px   0.61451     1 2py   0.25548     1 2px  -0.92712     2 1s    0.39788
                                    2 2px  -0.61549     2 2py  -0.25485     2 2px   0.92602     3 1s   -0.34826     6 1s   -0.34580
   17.1     0.00000     0.80046     1 2pz   0.77647     1 2pz  -0.68090     2 2pz   0.77687     2 2pz  -0.68098
   18.1     0.00000     0.84277     1 1s    0.27709     1 1s   -0.48658     1 2pz   0.74702     1 2py  -0.33714     1 2pz  -0.87036
                                    2 1s    0.27720     2 1s   -0.48644     2 2pz  -0.74701     2 2py   0.33691     2 2pz   0.87075
                                    3 1s    0.25823     6 1s    0.25819
   19.1     0.00000     0.87693     1 1s   -0.32224     1 1s    0.68963     1 2px  -0.63822     1 2px   1.12661     2 1s    0.32181
                                    2 1s   -0.69711     2 2px  -0.63632     2 2px   1.12151     2 2py   0.25100     4 1s    0.36908
                                    5 1s   -0.36920
   20.1     0.00000     0.94955     1 1s    1.03824     1 2py  -0.65427     1 2px  -0.65591     1 2py   2.04393     2 1s    1.02764
                                    2 2py   0.65329     2 2px   0.66116     2 2py  -2.04227     3 1s   -1.45723     4 1s    0.47994
                                    5 1s    0.47712     6 1s   -1.45421
   21.1     0.00000     1.02457     1 1s   -0.97419     1 1s    1.91862     1 2px  -0.52054     1 2py   0.28289     1 2pz  -0.54669
                                    2 1s   -0.97142     2 1s    1.91255     2 2px   0.51813     2 2py  -0.28384     2 2pz   0.54692
                                    3 1s   -0.36345     3 1s   -0.85765     4 1s   -0.41787     5 1s   -0.41962     6 1s   -0.36382
                                    6 1s   -0.85293
   22.1     0.00000     1.06025     1 1s   -0.40692     1 1s    0.75518     1 2px   0.28055     1 2py   0.45499     1 2px  -0.52537
                                    1 2py  -0.63454     2 1s    0.38978     2 1s   -0.70973     2 2px   0.27256     2 2py   0.45155
                                    2 2px  -0.50968     2 2py  -0.64790     4 1s    0.68780     4 1s   -1.33543     5 1s   -0.66201
                                    5 1s    1.30341
   23.1     0.00000     1.07446     1 1s   -0.58169     1 1s    1.47550     1 2px  -0.51896     1 2py   0.35205     2 1s   -0.59178
                                    2 1s    1.49020     2 2px  -0.25523     2 2px   0.53972     2 2py  -0.33223     3 1s   -0.57963
                                    4 1s    0.71592     4 1s   -0.97948     5 1s    0.73915     5 1s   -1.02407     6 1s   -0.57587
   24.1     0.00000     1.26402     1 1s    1.19637     1 1s   -3.23209     1 2py  -0.33335     1 2px  -1.25000     1 2py   0.84560
                                    1 2pz   0.70509     2 1s   -1.19932     2 1s    3.24374     2 2py  -0.33220     2 2px  -1.24489
                                    2 2py   0.83801     2 2pz   0.70836     3 1s    0.29828     4 1s    0.40256     4 1s    0.25509
                                    5 1s   -0.40078     5 1s   -0.25798     6 1s   -0.30018
   25.1     0.00000     1.38062     1 1s   -0.90302     1 1s    1.96402     1 2px   0.34817     1 2py  -0.40372     1 2px  -0.35330
                                    1 2py   0.52974     2 1s    1.01790     2 1s   -2.15200     2 2px   0.38143     2 2py  -0.46020
                                    2 2px  -0.39986     2 2py   0.59262     3 1s    0.54306     3 1s   -1.48013     6 1s   -0.64084
                                    6 1s    1.65279
   26.1     0.00000     1.39074     1 1s   -0.93579     1 1s    1.56775     1 2px   0.28507     1 2py  -0.45276     1 2px  -0.38963
                                    1 2py   0.50229     2 1s   -0.80950     2 1s    1.29699     2 2py   0.39637     2 2px   0.33885
                                    2 2py  -0.42880     3 1s    0.78538     3 1s   -1.42075     6 1s    0.70758     6 1s   -1.21384
   27.1     0.00000     1.71351     1 1s    0.28839     1 3d0  -0.25223     1 3d1+  0.35925     1 3d2+  0.37625     1 3d1- -0.30804
                                    2 1s   -0.28766     2 3d0   0.25340     2 3d1+ -0.35820     2 3d2+ -0.37506     2 3d1-  0.31024
   28.1     0.00000     1.95050     1 3d2- -0.27618     1 3d1+  0.40348     1 3d1-  0.46457     2 3d2-  0.28009     2 3d1+ -0.40467
                                    2 3d1- -0.46359
   29.1     0.00000     1.97752     1 1s   -0.25905     1 2px   0.33922     1 2py  -0.43035     1 3d2+  0.46362     1 3d1-  0.43022
                                    2 1s   -0.25968     2 2px  -0.33784     2 2py   0.43092     2 3d2+  0.46335     2 3d1-  0.42638
                                    3 1s    0.38778     6 1s    0.38638
   30.1     0.00000     2.01920     1 1s    0.30212     1 1s   -0.59352     1 3d0   0.45827     1 3d1+  0.48680     2 1s    0.30160
                                    2 1s   -0.59198     2 3d0   0.45763     2 3d1+  0.48549     3 1s    0.25875     6 1s    0.25887
   31.1     0.00000     2.23408     1 2py  -0.51749     1 3d0  -0.28739     1 3d2-  0.25383     1 3d1+  0.30103     1 3d1-  0.47248
                                    2 2py   0.51502     2 3d0  -0.28089     2 3d2-  0.25041     2 3d1+  0.30442     2 3d1-  0.47179
                                    4 1s   -0.44933     5 1s   -0.44606
   32.1     0.00000     2.28290     1 1s   -0.28189     1 1s    1.00010     1 3d0  -0.59102     1 3d2+ -0.27213     1 3d1-  0.26162
                                    2 1s    0.28260     2 1s   -1.00233     2 3d0   0.59495     2 3d2+  0.27206     2 3d1- -0.26602
                                    3 1s   -0.29299     4 1s   -0.42217     5 1s    0.42634     6 1s    0.29227
   33.1     0.00000     2.37491     1 3d0  -0.36849     1 3d1+  0.36879     1 3d2+  0.43479     1 3d1- -0.32818     2 3d0  -0.36698
                                    2 3d1+  0.36923     2 3d2+  0.43339     2 3d1- -0.33252
   34.1     0.00000     2.54139     1 1s    0.32778     1 1s   -0.73214     1 2px  -0.65815     1 2py   0.44189     1 3d2- -0.51459
                                    1 3d2+ -0.42458     1 3d1- -0.36888     2 1s   -0.32697     2 1s    0.73186     2 2px  -0.65817
                                    2 2py   0.44255     2 3d2-  0.51678     2 3d2+  0.42969     2 3d1-  0.36766     3 1s   -0.77670
                                    6 1s    0.77719
   35.1     0.00000     2.86366     1 1s   -1.41756     1 2px  -0.79468     1 2py   0.25523     1 2pz   0.35730     1 3d0   0.34105
                                    1 3d2-  0.51397     1 3d1+  0.51869     1 3d2+ -0.48229     2 1s    1.42561     2 2px  -0.79065
                                    2 2pz   0.35774     2 3d0  -0.34704     2 3d2- -0.52600     2 3d1+ -0.51593     2 3d2+  0.47758
                                    3 1s    0.35668     6 1s   -0.36963
   36.1     0.00000     2.92903     1 1s   -0.44626     1 2py  -0.31702     1 3d0   0.39168     1 3d2-  0.74880     2 1s   -0.42488
                                    2 2py   0.32023     2 3d0   0.38589     2 3d2-  0.73821     3 1s    0.88868     6 1s    0.87881


 HOMO      8.1    -0.340513 =      -9.2658eV
 LUMO      9.1     0.079393 =       2.1604eV
 LUMO-HOMO         0.419907 =      11.4262eV


 **********************************************************************************************************************************
 DATASETS  * FILE   NREC   LENGTH (MB)   RECORD NAMES
              1      19       31.11       500      610      700      900      950      970     1000      129      960     1100   
                                          VAR    BASINP    GEOM    SYMINP    ZMAT    AOBASIS   BASIS     P2S    ABASIS      S 
                                         1400     1410     1200     1210     1080     1600     1650     1300     1700   
                                           T        V       H0       H01     AOSYM     SMH    MOLCAS    ERIS     OPER   

              2       4        2.86       700     1000      520     2100   
                                         GEOM     BASIS   MCVARS     RHF  

 PROGRAMS   *        TOTAL    HF-SCF       INT
 CPU TIMES  *         0.39      0.10      0.19
 REAL TIME  *         0.58 SEC
 DISK USED  *        35.97 MB
 **********************************************************************************************************************************


 PROGRAM * MULTI (Direct Multiconfiguration SCF)       Authors: P.J. Knowles, H.-J. Werner (1984)


 Number of closed-shell orbitals:   7 (   7 )
 Number of active  orbitals:        2 (   2 )
 Number of external orbitals:      27 (  27 )

 State symmetry 1

 Number of electrons:     2    Spin symmetry=Singlet   Space symmetry=1
 Number of states:        3
 Number of CSFs:          3   (4 determinants, 4 intermediate states)

 Molecular orbitals read from record     2100.2  Type=RHF/CANONICAL (state 1.1)

 Wavefunction dump at record             2140.2

 Convergence thresholds  0.10E-01 (gradient)  0.10E-05 (energy)  0.10E-02 (step length)

 Weight factors for state symmetry  1:    0.33333   0.33333   0.33333

 Number of orbital rotations:      257   (    14 Core/Active    189 Core/Virtual   0 Active/Active     54 Active/Virtual)
 Total number of variables:        269

 Micro-Iterations solved by the two-step solver

 ITER. MIC  NCI  NEG     ENERGY(VAR)     ENERGY(PROJ)   ENERGY CHANGE     GRAD(0)  GRAD(ORB)   GRAD(CI)     STEP       TIME

   1   13    6    1     -77.60790201     -77.61622737   -0.00832536    0.09398503 0.00023750 0.00000000  0.22D+00      0.35
   2   14    7    0     -77.61808309     -77.62091988   -0.00283680    0.05603402 0.00001432 0.00000000  0.93D-01      0.55
   3   11    6    0     -77.62114469     -77.62125050   -0.00010582    0.00930655 0.00001202 0.00000000  0.20D-01      0.69
   4   11    6    0     -77.62125134     -77.62125141   -0.00000007    0.00025968 0.00000000 0.00000000  0.50D-03      0.81
   5    4    3    0     -77.62125141     -77.62125141   -0.00000000    0.00000010 0.00000000 0.00000000  0.21D-06      0.87

 ** WVFN ****  CONVERGENCE REACHED, FINAL GRADIENT:  0.32D-11



 Results for state 1.1
 =====================

 !MCSCF STATE  1.1 Energy             -77.815011418069
 Nuclear energy                        30.49236903
 Kinetic energy                        77.69226328
 One electron energy                 -163.83112984
 Two electron energy                   55.52374940
 Virial ratio                           2.00157993

 !MCSCF STATE  1.1 Dipole moment       -0.09019094    -0.02206511     0.00942914
 Dipole moment /Debye                  -0.22922748    -0.05608025     0.02396492

 Results for state 2.1
 =====================

 !MCSCF STATE  2.1 Energy             -77.608785085498
 Nuclear energy                        30.49236903
 Kinetic energy                        77.89160572
 One electron energy                 -163.71701358
 Two electron energy                   55.61585947
 Virial ratio                           1.99636905

 !MCSCF STATE  2.1 Dipole moment        0.10616885    -0.05598387    -0.02111763
 Dipole moment /Debye                   0.26983663    -0.14228749    -0.05367214

 Results for state 3.1
 =====================

 !MCSCF STATE  3.1 Energy             -77.439957740363
 Nuclear energy                        30.49236903
 Kinetic energy                        78.09909253
 One electron energy                 -163.66674495
 Two electron energy                   55.73441818
 Virial ratio                           1.99156028

 !MCSCF STATE  3.1 Dipole moment       -0.13964401    -0.00666511     0.26051807
 Dipole moment /Debye                  -0.35491643    -0.01693992     0.66212752

 State-averaged charge density matrix saved on record  2140.2 (density set 1)

 !MCSCF expec         <1.1|DMX|1.1>    -0.090190936488 au =    -0.229227480359 Debye
 !MCSCF trans         <2.1|DMX|1.1>     0.965678691156 au =     2.454349647868 Debye
 !MCSCF expec         <2.1|DMX|2.1>     0.106168850428 au =     0.269836626871 Debye
 !MCSCF trans         <3.1|DMX|1.1>    -0.069559338430 au =    -0.176790623366 Debye
 !MCSCF trans         <3.1|DMX|2.1>     1.285697759510 au =     3.267703711615 Debye
 !MCSCF expec         <3.1|DMX|3.1>    -0.139644011047 au =    -0.354916425598 Debye

 !MCSCF expec         <1.1|DMY|1.1>    -0.022065114947 au =    -0.056080254848 Debye
 !MCSCF trans         <2.1|DMY|1.1>    -0.181901752987 au =    -0.462317857357 Debye
 !MCSCF expec         <2.1|DMY|2.1>    -0.055983873771 au =    -0.142287493898 Debye
 !MCSCF trans         <3.1|DMY|1.1>     0.012209898753 au =     0.031032434472 Debye
 !MCSCF trans         <3.1|DMY|2.1>    -0.241941205519 au =    -0.614912929124 Debye
 !MCSCF expec         <3.1|DMY|3.1>    -0.006665114016 au =    -0.016939920480 Debye

 !MCSCF expec         <1.1|DMZ|1.1>     0.009429141319 au =     0.023964916992 Debye
 !MCSCF trans         <2.1|DMZ|1.1>    -0.685904258244 au =    -1.743280544668 Debye
 !MCSCF expec         <2.1|DMZ|2.1>    -0.021117628094 au =    -0.053672141211 Debye
 !MCSCF trans         <3.1|DMZ|1.1>     0.017719822557 au =     0.045036346614 Debye
 !MCSCF trans         <3.1|DMZ|2.1>    -0.904636590023 au =    -2.299206264472 Debye
 !MCSCF expec         <3.1|DMZ|3.1>     0.260518072412 au =     0.662127522481 Debye


 NATURAL ORBITALS (state averaged)
 =================================

  Orbital  Occupation    Energy     Coefficients
    1.1     2.00000   -11.27404     1 1s    0.99617
    2.1     2.00000   -11.26031     2 1s    0.99620
    3.1     2.00000    -0.97758     1 1s    0.29029     1 1s    0.25096     2 1s    0.28621     2 1s    0.25195
    4.1     2.00000    -0.85580     1 1s   -0.25005     2 1s    0.25077     2 1s    0.25449
    5.1     2.00000    -0.61258     1 2py  -0.30085     2 2px  -0.25044
    6.1     2.00000    -0.57557     1 2py   0.25772     2 2py   0.31331
    7.1     2.00000    -0.39761     1 2pz   0.25338     2 2px   0.26423
    8.1     1.00000    -0.06171     1 2pz   0.42689     1 2pz   0.47916     2 2pz  -0.38202     2 2pz  -0.44457
    9.1     1.00000    -0.24133     1 2px   0.31323
   10.1    -0.00000     0.22719     1 1s   -1.05587     1 2px   0.57661     1 2py   0.39730     1 2pz   0.27370     2 1s   -1.04608
                                    2 2px  -0.52582     2 2py  -0.32373     2 2pz  -0.25973     3 1s    0.53890     4 1s    1.10358
                                    5 1s    0.96861     6 1s    0.58687
   11.1    -0.00000     0.26733     1 1s   -0.76266     1 2py   0.56451     2 1s    0.96615     2 2px   0.29151     2 2py   0.56328
                                    4 1s    1.21361     5 1s   -1.31112
   12.1    -0.00000     0.28798     1 1s    1.79887     1 2px   0.26291     1 2py   0.34002     1 2pz  -0.28744     2 1s   -1.65339
                                    2 2px   0.31826     2 2py   0.31902     2 2pz  -0.36261     3 1s   -1.37550     6 1s    1.23701
   13.1    -0.00000     0.34890     1 1s   -1.41706     1 2px   0.45576     1 2py  -1.19077     2 1s   -1.46013     2 2px  -0.37380
                                    2 2py   1.20149     3 1s    2.24053     4 1s   -0.37962     5 1s   -0.42985     6 1s    2.23722
   14.1    -0.00000     0.40078     1 2px   1.51518     1 2py  -0.82771     1 2pz  -0.42860     2 2px   0.26143     2 2px   1.52682
                                    2 2py  -0.84588     2 2pz  -0.51446     3 1s    1.73112     6 1s   -1.80116
   15.1    -0.00000     0.66712     1 2py  -0.35834     1 2px  -1.23271     1 2py   1.02444     2 2py  -0.34112     2 2px  -1.19380
                                    2 2py   0.96191     3 1s   -0.44010     3 1s   -0.73856     6 1s    0.43418     6 1s    0.70075
   16.1    -0.00000     0.77592     1 1s    0.29668     1 2px   0.62431     1 2py   0.25880     1 2pz  -0.30525     1 2px  -0.96704
                                    1 2pz   0.26330     2 1s    0.46896     2 2px  -0.55582     2 2px   0.82619     3 1s   -0.33453
                                    6 1s   -0.36578
   17.1    -0.00000     0.79806     1 2pz   0.82449     1 2pz  -0.81580     2 2pz   0.68917     2 2px   0.33152     2 2pz  -0.57821
   18.1    -0.00000     0.84225     1 1s   -0.41370     1 2pz   0.60048     1 2py  -0.27422     1 2pz  -0.80155     2 1s   -0.32771
                                    2 2pz  -0.83418     2 2py   0.30931     2 2pz   1.00787
   19.1    -0.00000     0.87474     1 1s   -0.36562     1 1s    0.78993     1 2px  -0.58910     1 2px   1.00541     2 1s    0.31022
                                    2 1s   -0.63733     2 2px  -0.63942     2 2px   1.11245     4 1s    0.41313     5 1s   -0.43001
   20.1    -0.00000     0.95104     1 1s    0.91058     1 2py  -0.67916     1 2px  -0.57715     1 2py   2.04180     2 1s    1.00183
                                    2 2py   0.65145     2 2px   0.64584     2 2py  -2.01578     3 1s   -1.41006     4 1s    0.58230
                                    5 1s    0.46840     6 1s   -0.25241     6 1s   -1.42715
   21.1    -0.00000     1.01676     1 1s   -0.80140     1 1s    1.52134     1 2px  -0.30875     1 2py   0.26165     1 2pz  -0.48609
                                    2 1s   -0.88064     2 1s    1.62276     2 2px   0.47081     2 2pz   0.49320     3 1s   -0.31934
                                    3 1s   -0.71215     4 1s   -0.64119     5 1s   -0.45733     6 1s   -0.30865     6 1s   -0.69601
   22.1    -0.00000     1.04346     1 1s   -0.61135     1 1s    1.26213     1 2px   0.35335     1 2py   0.47100     1 2px  -0.82879
                                    1 2py  -0.39881     1 2pz  -0.25226     2 2px   0.27350     2 2py   0.42486     2 2px  -0.36866
                                    2 2py  -0.82846     3 1s   -0.28433     4 1s    0.71047     4 1s   -1.48396     5 1s   -0.54778
                                    5 1s    1.04592     6 1s   -0.37249
   23.1    -0.00000     1.06222     1 1s   -0.61360     1 1s    1.59222     1 2px  -0.49319     1 2py   0.60421     2 1s   -0.81098
                                    2 1s    1.94466     2 2px  -0.31190     2 2py  -0.25201     2 2px   0.75899     2 2py  -0.29578
                                    3 1s   -0.75547     4 1s    0.45918     4 1s   -0.63701     5 1s    0.78809     5 1s   -1.28053
                                    6 1s   -0.73757
   24.1    -0.00000     1.25704     1 1s    1.20359     1 1s   -3.25606     1 2py  -0.33462     1 2px  -1.23920     1 2py   0.83907
                                    1 2pz   0.71125     2 1s   -1.22712     2 1s    3.28036     2 2py  -0.33625     2 2px  -1.24672
                                    2 2py   0.85406     2 2pz   0.69342     3 1s    0.29624     4 1s    0.37878     4 1s    0.28197
                                    5 1s   -0.39102     5 1s   -0.27777     6 1s   -0.29616
   25.1    -0.00000     1.38702     1 1s   -1.11203     1 1s    2.28978     1 2px   0.41687     1 2py  -0.49667     1 2px  -0.46623
                                    1 2py   0.64262     2 1s    0.76254     2 1s   -1.70972     2 2px   0.31259     2 2py  -0.34132
                                    2 2px  -0.31193     2 2py   0.46851     3 1s    0.71927     3 1s   -1.79987     6 1s   -0.43509
                                    6 1s    1.28143
   26.1    -0.00000     1.39806     1 1s   -0.68128     1 1s    1.03197     1 2py  -0.32607     1 2px  -0.28930     1 2py   0.34595
                                    2 1s   -1.04206     2 1s    1.79495     2 2px  -0.32368     2 2py   0.50513     2 2px   0.42935
                                    2 2py  -0.57519     3 1s    0.61279     3 1s   -0.99413     6 1s    0.84748     6 1s   -1.59627
   27.1    -0.00000     1.71128     1 1s    0.28728     1 3d0  -0.25141     1 3d1+  0.36596     1 3d2+  0.38760     1 3d1- -0.30588
                                    2 1s   -0.31785     2 3d0   0.25460     2 3d1+ -0.34912     2 3d2+ -0.36608     2 3d1-  0.31091
   28.1    -0.00000     1.94950     1 3d2- -0.29451     1 3d1+  0.42066     1 3d1-  0.50125     2 3d2-  0.25727     2 3d1+ -0.38296
                                    2 3d1- -0.42110     6 1s    0.25647
   29.1    -0.00000     1.97714     1 1s   -0.25145     1 2px   0.34910     1 2py  -0.42643     1 3d2+  0.45497     1 3d1-  0.38244
                                    2 2px  -0.33439     2 2py   0.41861     2 3d2+  0.48218     2 3d1-  0.45375     3 1s    0.39004
                                    6 1s    0.38912
   30.1    -0.00000     2.02140     1 1s    0.30791     1 1s   -0.62115     1 3d0   0.47015     1 3d1+  0.46638     2 1s    0.29534
                                    2 1s   -0.54612     2 3d0   0.44258     2 3d1+  0.50835     3 1s    0.25556
   31.1    -0.00000     2.22918     1 2py  -0.54353     1 3d0  -0.32632     1 3d2-  0.27533     1 3d1+  0.29380     1 3d2+ -0.25292
                                    1 3d1-  0.50460     2 2py   0.50383     2 3d1+  0.30194     2 3d1-  0.45654     4 1s   -0.47502
                                    5 1s   -0.40068
   32.1    -0.00000     2.28106     1 1s   -0.27796     1 1s    0.98602     1 3d0  -0.53758     1 3d2+ -0.26399     2 1s    0.29094
                                    2 1s   -1.00064     2 3d0   0.63571     2 3d2+  0.27737     2 3d1- -0.29247     3 1s   -0.28711
                                    4 1s   -0.38145     5 1s    0.45570     6 1s    0.27987
   33.1    -0.00000     2.37219     1 3d0  -0.38606     1 3d1+  0.35424     1 3d2+  0.43032     1 3d1- -0.30948     2 3d0  -0.34786
                                    2 3d1+  0.38352     2 3d2+  0.43263     2 3d1- -0.35152
   34.1    -0.00000     2.53966     1 1s    0.33155     1 1s   -0.72407     1 2px  -0.65608     1 2py   0.43635     1 3d2- -0.51518
                                    1 3d2+ -0.42045     1 3d1- -0.36734     2 1s   -0.32639     2 1s    0.72851     2 2px  -0.65378
                                    2 2py   0.43849     2 3d2-  0.51297     2 3d2+  0.43314     2 3d1-  0.36510     3 1s   -0.79482
                                    6 1s    0.77230
   35.1    -0.00000     2.86222     1 1s   -1.46371     1 2px  -0.77726     1 2pz   0.36337     1 3d0   0.37531     1 3d2-  0.57461
                                    1 3d1+  0.49885     1 3d2+ -0.45458     2 1s    1.40109     2 2px  -0.81673     2 2py   0.27804
                                    2 2pz   0.35746     2 3d0  -0.31852     2 3d2- -0.45582     2 3d1+ -0.53483     2 3d2+  0.50089
                                    3 1s    0.43637     6 1s   -0.29112
   36.1    -0.00000     2.92956     1 1s   -0.32951     1 2px   0.29071     1 2py  -0.32929     1 3d0   0.36312     1 3d2-  0.69063
                                    1 3d1+ -0.25273     1 3d2+  0.26964     2 1s   -0.53615     2 2py   0.30128     2 3d0   0.41993
                                    2 3d2-  0.78613     3 1s    0.84790     6 1s    0.91895


 Natural orbital dump (state averaged) at molpro section  2140.2    (Orbital set 2)



 **********************************************************************************************************************************
 DATASETS  * FILE   NREC   LENGTH (MB)   RECORD NAMES
              1      20       31.83       500      610      700      900      950      970     1000      129      960     1100   
                                          VAR    BASINP    GEOM    SYMINP    ZMAT    AOBASIS   BASIS     P2S    ABASIS      S 
                                         1400     1410     1200     1210     1080     1600     1650     1300     1700     1380   
                                           T        V       H0       H01     AOSYM     SMH    MOLCAS    ERIS     OPER     JKOP   

              2       5        5.42       700     1000      520     2100     2140   
                                         GEOM     BASIS   MCVARS     RHF     MCSCF   

 PROGRAMS   *        TOTAL     MULTI    HF-SCF       INT
 CPU TIMES  *         1.31      0.91      0.10      0.19
 REAL TIME  *         1.55 SEC
 DISK USED  *        39.02 MB
 **********************************************************************************************************************************
 Molecular orbitals read from record     2140.2  Type=MCSCF/NATURAL (state averaged)
 Occupation numbers read from record     2140.2  Type=MCSCF/NATURAL (state averaged)
 Orbital energies read from record       2140.2  Type=MCSCF/NATURAL (state averaged)
 Redundancy group numbers read from rec  2140.2  Type=MCSCF/NATURAL (state averaged)

 MULTI/6-31G* energy=    -77.439957740363

           MULTI          HF-SCF
    -77.43995774    -77.81329402
 **********************************************************************************************************************************
 Molpro calculation terminated
