
 Primary working directories    : /scratch.local/johan406.molpro_temp/molpro.VJNnJzleix
 Secondary working directories  : /scratch.local/johan406.molpro_temp/molpro.VJNnJzleix
 Wavefunction directory         : /home/goodpast/johan406/wfu/
 Main file repository           : /scratch.local/johan406.molpro_temp/molpro.VJNnJzleix/

 id        : roweumn

 Nodes     nprocs
 acn06        1

 Using customized tuning parameters: mindgm=1; mindgv=20; mindgc=4; mindgr=1; noblas=0; minvec=7
 default implementation of scratch files=df  


 Variables initialized (934), CPU time= 0.01 sec
                                                                                 !leave this line blank
 
 gprint, orbitals=30
 memory, 125., m
 symmetry, nosym
 nelect=16
 basis=6-31g*
 
 geometry={
 C -0.685 0.147 0.294
 C 0.694 -0.197 -0.354
 H -1.265 0.897 -0.020
 H -1.062 -0.911 -0.049
 H 1.071 0.861 -0.011
 H 1.274 -0.947 -0.040
 }
 
 hf
 {multi,
 closed 7
 occ 9
 wf,spin=0;STATE,3
 }
 
 Commands  initialized (763), CPU time= 0.01 sec, 617 directives.
 Default parameters read. Elapsed time= 0.08 sec

 Checking input...
 Passed
1


                                         ***  PROGRAM SYSTEM MOLPRO  ***
                                       Copyright, TTI GmbH Stuttgart, 2015
                                    Version 2019.2 linked Oct 25 2019 22:50:27


 **********************************************************************************************************************************
 LABEL *                                                                                 
  64 bit serial version                                                                  DATE: 15-Mar-23          TIME: 16:16:17  
 **********************************************************************************************************************************

 SHA1:             8dbd9ae1082e4ce945b0f27595c9eb2d4aa09004
 **********************************************************************************************************************************


 Variable memory set to  125000000 words,  buffer space 

 SETTING NELECT         =        16.00000000                                  
 SETTING BASIS          =    6-31G*
 ZSYMEL=NOSYM


Geometry recognized as XYZ



 Recomputing integrals since basis changed


 Using spherical harmonics

 Library entry C      S 6-31G                selected for orbital group  1
 Library entry C      P 6-31G                selected for orbital group  1
 Library entry C      D 6-31G*               selected for orbital group  1
 Library entry H      S 6-31G                selected for orbital group  2


 PROGRAM * SEWARD (Integral evaluation for generally contracted gaussian basis sets)     Author: Roland Lindh, 1990

 Geometry written to block  1 of record 700


 Point group  C1  



 ATOMIC COORDINATES

 NR  ATOM    CHARGE       X              Y              Z

   1  C       6.00   -1.294462395    0.277789740    0.555579481
   2  C       6.00    1.311469930   -0.372276047   -0.668963048
   3  H       1.00   -2.390503548    1.695084334   -0.037794522
   4  H       1.00   -2.006889144   -1.721540499   -0.092596580
   5  H       1.00    2.023896679    1.627054193   -0.020786987
   6  H       1.00    2.407511083   -1.789570640   -0.075589045

 Bond lengths in Bohr (Angstrom)

 1-2  2.951774588  1-3  1.887358705  1-4  2.219235338  2-5  2.219235338  2-6  1.887358705
     ( 1.562011844)     ( 0.998747215)     ( 1.174368767)     ( 1.174368767)     ( 0.998747215)

 Bond angles

  1-2-5   87.92767364   1-2-6  123.20523494   2-1-3  123.20523494   2-1-4   87.92767364

  3-1-4  113.47050358   5-2-6  113.47050358

 NUCLEAR CHARGE:                   16
 NUMBER OF PRIMITIVE AOS:          72
 NUMBER OF SYMMETRY AOS:           70
 NUMBER OF CONTRACTIONS:           36   (   36A   )
 NUMBER OF CORE ORBITALS:           2   (    2A   )
 NUMBER OF VALENCE ORBITALS:       12   (   12A   )


 NUCLEAR REPULSION ENERGY   31.46215249

 Eigenvalues of metric

         1 0.124E-01 0.238E-01 0.473E-01 0.723E-01 0.742E-01 0.212E+00 0.251E+00 0.272E+00


 Contracted 2-electron integrals neglected if value below      1.0D-11
 AO integral compression algorithm  1   Integral accuracy      1.0D-11

     1.573 MB (compressed) written to integral file ( 58.0%)


 NUMBER OF SORTED TWO-ELECTRON INTEGRALS:     222111.     BUFFER LENGTH:  32768
 NUMBER OF SEGMENTS:   1  SEGMENT LENGTH:     222111      RECORD LENGTH: 524288

 Memory used in sort:       0.78 MW

 SORT1 READ      284735. AND WROTE      212529. INTEGRALS IN      1 RECORDS. CPU TIME:     0.00 SEC, REAL TIME:     0.00 SEC
 SORT2 READ      212529. AND WROTE      222111. INTEGRALS IN      6 RECORDS. CPU TIME:     0.02 SEC, REAL TIME:     0.02 SEC

 FILE SIZES:   FILE 1:    31.7 MBYTE,  FILE 4:     4.2 MBYTE,   TOTAL:     35.9 MBYTE

 OPERATOR DM      FOR CENTER  0  COORDINATES:    0.000000    0.000000    0.000000


 **********************************************************************************************************************************
 DATASETS  * FILE   NREC   LENGTH (MB)   RECORD NAMES
              1      19       31.12       500      610      700      900      950      970     1000      129      960     1100   
                                          VAR    BASINP    GEOM    SYMINP    ZMAT    AOBASIS   BASIS     P2S    ABASIS      S 
                                         1400     1410     1200     1210     1080     1600     1650     1300     1700   
                                           T        V       H0       H01     AOSYM     SMH    MOLCAS    ERIS     OPER   

 PROGRAMS   *        TOTAL       INT
 CPU TIMES  *         0.26      0.16
 REAL TIME  *         0.42 SEC
 DISK USED  *        36.24 MB
 **********************************************************************************************************************************


 PROGRAM * RHF-SCF (CLOSED SHELL)       Authors: W. Meyer, H.-J. Werner


 NUMBER OF ELECTRONS:       8+    8-    SPACE SYMMETRY=1    SPIN SYMMETRY: Singlet 
 CONVERGENCE THRESHOLDS:    1.00E-05 (Density)    1.00E-07 (Energy)
 MAX. NUMBER OF ITERATIONS:       60
 INTERPOLATION TYPE:            DIIS
 INTERPOLATION STEPS:              2 (START)      1 (STEP)
 LEVEL SHIFTS:                  0.00 (CLOSED)  0.00 (OPEN) 



 Orbital guess generated from atomic densities. Full valence occupancy:    8

 Molecular orbital dump at record        2100.2

 Initial occupancy:   8

 ITERATION    DDIFF          GRAD             ENERGY        2-EL.EN.            DIPOLE MOMENTS         DIIS   ORB.
    1      0.000D+00      0.000D+00       -77.84023859    113.925786    0.00000    0.00000   -0.00000    0    start
    2      0.000D+00      0.690D-02       -77.85934132    113.150500    0.00000    0.00000    0.00000    1    diag
    3      0.748D-02      0.225D-02       -77.86195144    113.480112   -0.00000    0.00000   -0.00000    2    diag
    4      0.319D-02      0.852D-03       -77.86254572    113.363363    0.00000   -0.00000   -0.00000    3    diag
    5      0.165D-02      0.394D-03       -77.86282340    113.373358   -0.00000    0.00000    0.00000    4    diag
    6      0.139D-02      0.154D-03       -77.86288141    113.374381    0.00000   -0.00000   -0.00000    5    diag
    7      0.694D-03      0.389D-04       -77.86288445    113.375289   -0.00000    0.00000    0.00000    6    diag
    8      0.145D-03      0.115D-04       -77.86288468    113.375540    0.00000   -0.00000   -0.00000    7    diag
    9      0.396D-04      0.317D-05       -77.86288469    113.375494   -0.00000    0.00000    0.00000    8    diag
   10      0.877D-05      0.579D-06       -77.86288469    113.375496    0.00000   -0.00000   -0.00000    0    orth

 Final occupancy:   8

 !RHF STATE  1.1 Energy               -77.862884693690
 Nuclear energy                        31.46215249
 One-electron energy                 -166.01278496
 Two-electron energy                   56.68774777
 Virial quotient                       -1.00156049
 !RHF STATE  1.1 Dipole moment          0.00000000    -0.00000000    -0.00000000
 Dipole moment /Debye                   0.00000000    -0.00000000    -0.00000000

 ELECTRON ORBITALS
 =================

  Orbital  Occupation    Energy     Coefficients
    1.1     2.00000   -11.26334     1 1s    0.70446     2 1s    0.70446
    2.1     2.00000   -11.26277     1 1s    0.70453     2 1s   -0.70453
    3.1     2.00000    -1.00104     1 1s    0.28530     1 1s    0.25555     2 1s    0.28530     2 1s    0.25555
    4.1     2.00000    -0.81971     1 1s    0.25575     2 1s   -0.25575
    5.1     2.00000    -0.61284     1 2py   0.30333     2 2py   0.30333
    6.1     2.00000    -0.58952     1 2px   0.26974     2 2px  -0.26974
    7.1     2.00000    -0.40855     1 2px   0.29736     2 2px  -0.29736     4 1s   -0.25364     5 1s   -0.25364
    8.1     2.00000    -0.36087     1 2pz   0.31301     1 2pz   0.30287     2 2pz   0.31301     2 2pz   0.30287
    9.1     0.00000     0.07230     1 1s    0.34949     1 2pz   0.34515     1 2pz   0.49012     2 1s    0.34949     2 2pz  -0.34515
                                    2 2pz  -0.49012
   10.1     0.00000     0.23423     1 1s   -1.13615     1 2px   0.48546     1 2py   0.35394     1 2pz   0.35671     2 1s   -1.13615
                                    2 2px  -0.48546     2 2py  -0.35394     2 2pz  -0.35671     3 1s    0.63290     4 1s    1.06936
                                    5 1s    1.06936     6 1s    0.63290
   11.1     0.00000     0.29779     1 1s   -1.66058     1 2py  -0.42618     1 2pz   0.43556     2 1s    1.66058     2 2py  -0.42618
                                    2 2pz   0.43556     3 1s    1.47735     6 1s   -1.47735
   12.1     0.00000     0.32029     1 1s   -1.10299     1 2px   0.29583     1 2py   0.66287     1 2pz   0.25024     2 1s    1.10299
                                    2 2px   0.29583     2 2py   0.66287     2 2pz   0.25024     4 1s    1.53913     5 1s   -1.53913
   13.1     0.00000     0.33250     1 1s   -0.99742     1 2px   0.40621     1 2py  -1.14866     1 2pz   0.36349     2 1s   -0.99742
                                    2 2px  -0.40621     2 2py   1.14866     2 2pz  -0.36349     3 1s    1.87481     4 1s   -0.51093
                                    5 1s   -0.51093     6 1s    1.87481
   14.1     0.00000     0.40204     1 1s    1.10221     1 2px   1.58676     1 2py  -0.73439     1 2pz  -0.55078     2 1s   -1.10221
                                    2 2px   1.58676     2 2py  -0.73439     2 2pz  -0.55078     3 1s    1.10507     4 1s   -0.29873
                                    5 1s    0.29873     6 1s   -1.10507
   15.1     0.00000     0.71297     1 2px   0.27893     1 2py  -0.33216     1 2px  -0.86659     1 2py   0.81980     2 2px   0.27893
                                    2 2py  -0.33216     2 2px  -0.86659     2 2py   0.81980     3 1s   -0.47364     3 1s   -0.36899
                                    6 1s    0.47364     6 1s    0.36899
   16.1     0.00000     0.73086     1 1s   -0.30016     1 2px  -0.55405     1 2px   0.89594     2 1s   -0.30016     2 2px   0.55405
                                    2 2px  -0.89594     3 1s    0.28971     4 1s    0.26521     4 1s   -0.31861     5 1s    0.26521
                                    5 1s   -0.31861     6 1s    0.28971
   17.1     0.00000     0.80250     1 2pz   0.75754     1 2pz  -0.70706     2 2pz   0.75754     2 2pz  -0.70706
   18.1     0.00000     0.82834     1 1s    0.50963     1 2py  -0.49214     1 2pz  -0.52281     1 2py   1.19392     1 2pz   0.48495
                                    2 1s    0.50963     2 2py   0.49214     2 2pz   0.52281     2 2py  -1.19392     2 2pz  -0.48495
                                    3 1s   -0.47598     6 1s   -0.47598
   19.1     0.00000     0.87513     1 1s    0.31184     1 2px   0.27603     1 2py  -0.36395     1 2pz   0.53175     1 2px  -0.58875
                                    1 2py   1.11363     1 2pz  -0.84023     2 1s    0.31184     2 2px  -0.27603     2 2py   0.36395
                                    2 2pz  -0.53175     2 2px   0.58875     2 2py  -1.11363     2 2pz   0.84023     3 1s   -0.58385
                                    6 1s   -0.58385
   20.1     0.00000     0.93128     1 1s    0.26262     1 1s   -0.45713     1 2px   0.68452     1 2py   0.32016     1 2px  -1.07640
                                    1 2py  -0.62402     2 1s   -0.26262     2 1s    0.45713     2 2px   0.68452     2 2py   0.32016
                                    2 2px  -1.07640     2 2py  -0.62402     4 1s   -0.61714     5 1s    0.61714
   21.1     0.00000     1.10365     1 1s    0.57873     1 1s   -1.11438     1 2px   0.28267     1 2py  -0.53233     1 2pz   0.58387
                                    2 1s    0.57873     2 1s   -1.11438     2 2px  -0.28267     2 2py   0.53233     2 2pz  -0.58387
                                    3 1s    0.39712     3 1s    0.60186     4 1s    0.63278     4 1s   -0.27959     5 1s    0.63278
                                    5 1s   -0.27959     6 1s    0.39712     6 1s    0.60186
   22.1     0.00000     1.11891     1 1s   -1.05654     1 1s    2.01357     1 2py   0.28481     1 2px  -0.53679     1 2pz  -0.49576
                                    2 1s   -1.05654     2 1s    2.01357     2 2py  -0.28481     2 2px   0.53679     2 2pz   0.49576
                                    3 1s   -0.27782     3 1s   -0.54347     4 1s    0.45218     4 1s   -1.13047     5 1s    0.45218
                                    5 1s   -1.13047     6 1s   -0.27782     6 1s   -0.54347
   23.1     0.00000     1.12439     1 1s   -0.34801     1 1s    0.55317     1 2py   0.51239     1 2px  -0.30427     1 2py  -0.69907
                                    2 1s    0.34801     2 1s   -0.55317     2 2py   0.51239     2 2px  -0.30427     2 2py  -0.69907
                                    4 1s    0.73624     4 1s   -1.31711     5 1s   -0.73624     5 1s    1.31711
   24.1     0.00000     1.23623     1 1s    0.46952     1 1s   -1.96892     1 2px   0.34742     1 2py  -0.44313     1 2px  -1.39127
                                    1 2py   1.06837     1 2pz   0.47740     2 1s   -0.46952     2 1s    1.96892     2 2px   0.34742
                                    2 2py  -0.44313     2 2px  -1.39127     2 2py   1.06837     2 2pz   0.47740     3 1s    0.57894
                                    3 1s   -1.05037     4 1s    0.33595     5 1s   -0.33595     6 1s   -0.57894     6 1s    1.05037
   25.1     0.00000     1.29276     1 1s   -0.81059     1 1s    1.33599     1 2py  -0.40689     1 2px  -0.35992     1 2py   0.46358
                                    1 2pz  -0.26253     2 1s   -0.81059     2 1s    1.33599     2 2py   0.40689     2 2px   0.35992
                                    2 2py  -0.46358     2 2pz   0.26253     3 1s    0.70591     3 1s   -1.28507     6 1s    0.70591
                                    6 1s   -1.28507
   26.1     0.00000     1.29491     1 1s   -1.52315     1 1s    4.03497     1 2px   0.54601     1 2pz  -0.81940     2 1s    1.52315
                                    2 1s   -4.03497     2 2px   0.54601     2 2pz  -0.81940     3 1s    0.29636     3 1s   -1.09471
                                    4 1s   -0.45529     5 1s    0.45529     6 1s   -0.29636     6 1s    1.09471
   27.1     0.00000     1.69310     1 3d0  -0.28760     1 3d2-  0.28983     1 3d1+  0.26193     1 3d2+  0.35513     1 3d1- -0.25236
                                    2 3d0   0.28760     2 3d2- -0.28983     2 3d1+ -0.26193     2 3d2+ -0.35513     2 3d1-  0.25236
   28.1     0.00000     1.91741     1 1s    0.61056     1 3d2- -0.27098     1 3d1+  0.41882     1 3d1-  0.42562     2 1s   -0.61056
                                    2 3d2-  0.27098     2 3d1+ -0.41882     2 3d1- -0.42562     3 1s   -0.26733     6 1s    0.26733
   29.1     0.00000     2.00344     1 1s    0.29829     1 1s   -0.69971     1 2pz   0.30298     1 3d0   0.36943     1 3d1+  0.40401
                                    1 3d2+  0.28014     1 3d1-  0.31523     2 1s    0.29829     2 1s   -0.69971     2 2pz  -0.30298
                                    2 3d0   0.36943     2 3d1+  0.40401     2 3d2+  0.28014     2 3d1-  0.31523     3 1s    0.34429
                                    6 1s    0.34429
   30.1     0.00000     2.10932     1 1s   -0.42333     1 2px  -0.25972     1 2px   0.31605     1 2py  -0.30462     1 3d1+ -0.29694
                                    1 3d2+  0.40015     1 3d1-  0.28548     2 1s   -0.42333     2 2px   0.25972     2 2px  -0.31605
                                    2 2py   0.30462     2 3d1+ -0.29694     2 3d2+  0.40015     2 3d1-  0.28548
   31.1     0.00000     2.28598     1 1s    0.33730     1 1s   -1.48025     1 2px  -0.35994     1 2py   0.27390     1 2pz   0.36073
                                    1 3d0   0.62635     1 3d2+  0.33846     2 1s   -0.33730     2 1s    1.48025     2 2px  -0.35994
                                    2 2py   0.27390     2 2pz   0.36073     2 3d0  -0.62635     2 3d2+ -0.33846     3 1s    0.39606
                                    4 1s    0.41979     5 1s   -0.41979     6 1s   -0.39606
   32.1     0.00000     2.32193     1 2py   0.41905     1 3d0   0.49989     1 3d2- -0.33437     1 3d1+ -0.31270     1 3d1- -0.31708
                                    2 2py  -0.41905     2 3d0   0.49989     2 3d2- -0.33437     2 3d1+ -0.31270     2 3d1- -0.31708
                                    4 1s    0.40074     5 1s    0.40074
   33.1     0.00000     2.51749     1 2py   0.38347     1 3d2-  0.27188     1 3d2+  0.54295     1 3d1- -0.49056     2 2py  -0.38347
                                    2 3d2-  0.27188     2 3d2+  0.54295     2 3d1- -0.49056     4 1s    0.35530     5 1s    0.35530
   34.1     0.00000     2.59120     1 1s    0.39333     1 2px   0.32129     1 2py  -0.37406     1 3d2-  0.55945     1 3d1-  0.54223
                                    2 1s   -0.39333     2 2px   0.32129     2 2py  -0.37406     2 3d2- -0.55945     2 3d1- -0.54223
                                    3 1s    0.63368     4 1s   -0.35451     5 1s    0.35451     6 1s   -0.63368
   35.1     0.00000     2.78817     1 1s   -0.25708     1 3d0   0.34677     1 3d2-  0.64468     1 3d1+ -0.40020     2 1s   -0.25708
                                    2 3d0   0.34677     2 3d2-  0.64468     2 3d1+ -0.40020     3 1s    0.68963     6 1s    0.68963
   36.1     0.00000     2.88830     1 1s    1.60948     1 2px   0.28913     1 2px   0.86991     1 2py  -0.25547     1 2pz  -0.40432
                                    1 3d2- -0.35318     1 3d1+ -0.61265     1 3d2+  0.62705     2 1s   -1.60948     2 2px   0.28913
                                    2 2px   0.86991     2 2py  -0.25547     2 2pz  -0.40432     2 3d2-  0.35318     2 3d1+  0.61265
                                    2 3d2+ -0.62705


 HOMO      8.1    -0.360872 =      -9.8198eV
 LUMO      9.1     0.072301 =       1.9674eV
 LUMO-HOMO         0.433174 =      11.7873eV


 **********************************************************************************************************************************
 DATASETS  * FILE   NREC   LENGTH (MB)   RECORD NAMES
              1      19       31.12       500      610      700      900      950      970     1000      129      960     1100   
                                          VAR    BASINP    GEOM    SYMINP    ZMAT    AOBASIS   BASIS     P2S    ABASIS      S 
                                         1400     1410     1200     1210     1080     1600     1650     1300     1700   
                                           T        V       H0       H01     AOSYM     SMH    MOLCAS    ERIS     OPER   

              2       4        2.86       700     1000      520     2100   
                                         GEOM     BASIS   MCVARS     RHF  

 PROGRAMS   *        TOTAL    HF-SCF       INT
 CPU TIMES  *         0.35      0.09      0.16
 REAL TIME  *         0.54 SEC
 DISK USED  *        36.24 MB
 **********************************************************************************************************************************


 PROGRAM * MULTI (Direct Multiconfiguration SCF)       Authors: P.J. Knowles, H.-J. Werner (1984)


 Number of closed-shell orbitals:   7 (   7 )
 Number of active  orbitals:        2 (   2 )
 Number of external orbitals:      27 (  27 )

 State symmetry 1

 Number of electrons:     2    Spin symmetry=Singlet   Space symmetry=1
 Number of states:        3
 Number of CSFs:          3   (4 determinants, 4 intermediate states)

 Molecular orbitals read from record     2100.2  Type=RHF/CANONICAL (state 1.1)

 Wavefunction dump at record             2140.2

 Convergence thresholds  0.10E-01 (gradient)  0.10E-05 (energy)  0.10E-02 (step length)

 Weight factors for state symmetry  1:    0.33333   0.33333   0.33333

 Number of orbital rotations:      257   (    14 Core/Active    189 Core/Virtual   0 Active/Active     54 Active/Virtual)
 Total number of variables:        269

 Micro-Iterations solved by the two-step solver

 ITER. MIC  NCI  NEG     ENERGY(VAR)     ENERGY(PROJ)   ENERGY CHANGE     GRAD(0)  GRAD(ORB)   GRAD(CI)     STEP       TIME

   1    9    8    1     -77.64311886     -77.64921946   -0.00610060    0.10149226 0.00055679 0.00000000  0.76D-01      0.98
 ? Warning
 ? No accurate parameter found! (Right and left value are equal)
 ? The problem occurs in mu_tools.F90::mu_bisec()
 ? Warning
 ? No accurate parameter found! (Right and left value are equal)
 ? The problem occurs in mu_tools.F90::mu_bisec()
 ? Warning
 ? No accurate parameter found! (Exceeded maximal number of steps)
 ? The problem occurs in mu_tools.F90::mu_bisec()
 ? Warning
 ? No accurate parameter found! (Exceeded maximal number of steps)
 ? The problem occurs in mu_tools.F90::mu_bisec()
   2   11    7    1     -77.65223192     -77.67454587   -0.02231394    0.05670505 0.00048134 0.00000000  0.27D+00      1.13
   3   14    7    0     -77.69211964     -77.69999827   -0.00787863    0.08807591 0.00001935 0.00000000  0.14D+00      1.26
   4   12    6    0     -77.70039962     -77.70055291   -0.00015329    0.01262831 0.00000170 0.00000000  0.20D-01      1.36
   5   10    6    0     -77.70055407     -77.70055412   -0.00000005    0.00021561 0.00000000 0.00000000  0.34D-03      1.45
   6    4    3    0     -77.70055412     -77.70055412   -0.00000000    0.00000005 0.00000000 0.00000000  0.11D-06      1.50

 ** WVFN ****  CONVERGENCE REACHED, FINAL GRADIENT:  0.88D-12



 Results for state 1.1
 =====================

 !MCSCF STATE  1.1 Energy             -77.855927718534
 Nuclear energy                        31.46215249
 Kinetic energy                        77.79433792
 One electron energy                 -166.08381643
 Two electron energy                   56.76573623
 Virial ratio                           2.00079170

 !MCSCF STATE  1.1 Dipole moment       -0.00000000     0.00000000    -0.00000000
 Dipole moment /Debye                  -0.00000000     0.00000000    -0.00000000

 Results for state 2.1
 =====================

 !MCSCF STATE  2.1 Energy             -77.727114025142
 Nuclear energy                        31.46215249
 Kinetic energy                        77.90145339
 One electron energy                 -165.79068612
 Two electron energy                   56.60141960
 Virial ratio                           1.99776205

 !MCSCF STATE  2.1 Dipole moment       -0.00000000     0.00000000     0.00000000
 Dipole moment /Debye                  -0.00000000     0.00000000     0.00000000

 Results for state 3.1
 =====================

 !MCSCF STATE  3.1 Energy             -77.518620611147
 Nuclear energy                        31.46215249
 Kinetic energy                        78.00507701
 One electron energy                 -165.51978260
 Two electron energy                   56.53900950
 Virial ratio                           1.99376379

 !MCSCF STATE  3.1 Dipole moment       -0.00000000     0.00000000     0.00000000
 Dipole moment /Debye                  -0.00000000     0.00000000     0.00000000

 State-averaged charge density matrix saved on record  2140.2 (density set 1)


 NATURAL ORBITALS (state averaged)
 =================================

  Orbital  Occupation    Energy     Coefficients
    1.1     2.00000   -11.25509     1 1s    0.70444     2 1s    0.70444
    2.1     2.00000   -11.25464     1 1s    0.70447     2 1s   -0.70447
    3.1     2.00000    -1.00845     1 1s    0.27999     1 1s    0.25219     2 1s    0.27999     2 1s    0.25219
    4.1     2.00000    -0.81536     1 1s    0.28263     2 1s   -0.28263
    5.1     2.00000    -0.61653     1 2py   0.29759     2 2py   0.29759
    6.1     2.00000    -0.58812     1 2py  -0.27226     2 2py   0.27226
    7.1     2.00000    -0.39184     1 2pz  -0.33431     1 2pz  -0.29981     2 2pz  -0.33431     2 2pz  -0.29981
    8.1     1.00000    -0.24936     1 2px   0.33087     2 2px  -0.33087     4 1s   -0.25719     5 1s   -0.25719
    9.1     1.00000    -0.08206     1 2pz   0.42205     1 2pz   0.43931     2 2pz  -0.42205     2 2pz  -0.43931
   10.1    -0.00000     0.22234     1 1s   -1.12845     1 2px   0.48153     1 2py   0.38386     1 2pz   0.30120     2 1s   -1.12845
                                    2 2px  -0.48153     2 2py  -0.38386     2 2pz  -0.30120     3 1s    0.57694     4 1s    1.08533
                                    5 1s    1.08533     6 1s    0.57694
   11.1    -0.00000     0.29680     1 1s   -2.01152     1 2pz   0.50332     2 1s    2.01152     2 2pz   0.50332     3 1s    1.35037
                                    4 1s    0.62646     5 1s   -0.62646     6 1s   -1.35037
   12.1    -0.00000     0.30764     1 1s   -0.32143     1 2py   0.86639     2 1s    0.32143     2 2py   0.86639     3 1s   -0.63128
                                    4 1s    1.44443     5 1s   -1.44443     6 1s    0.63128
   13.1    -0.00000     0.33495     1 1s   -1.05692     1 2px   0.41883     1 2py  -1.13543     1 2pz   0.35015     2 1s   -1.05692
                                    2 2px  -0.41883     2 2py   1.13543     2 2pz  -0.35015     3 1s    1.89987     4 1s   -0.46430
                                    5 1s   -0.46430     6 1s    1.89987
   14.1    -0.00000     0.40630     1 1s    0.95557     1 2px   0.26451     1 2px   1.61081     1 2py  -0.62021     1 2pz  -0.49747
                                    2 1s   -0.95557     2 2px   0.26451     2 2px   1.61081     2 2py  -0.62021     2 2pz  -0.49747
                                    3 1s    1.10419     6 1s   -1.10419
   15.1    -0.00000     0.71352     1 2px   0.27424     1 2py  -0.32961     1 2px  -0.87691     1 2py   0.82794     2 2px   0.27424
                                    2 2py  -0.32961     2 2px  -0.87691     2 2py   0.82794     3 1s   -0.47347     3 1s   -0.36338
                                    6 1s    0.47347     6 1s    0.36338
   16.1    -0.00000     0.72727     1 1s   -0.25996     1 2px  -0.53759     1 2px   0.87210     2 1s   -0.25996     2 2px   0.53759
                                    2 2px  -0.87210     3 1s    0.27989     4 1s    0.30180     4 1s   -0.37104     5 1s    0.30180
                                    5 1s   -0.37104     6 1s    0.27989
   17.1    -0.00000     0.79902     1 1s    0.37250     1 2pz   0.75070     1 2pz  -0.76345     2 1s   -0.37250     2 2pz   0.75070
                                    2 2pz  -0.76345
   18.1    -0.00000     0.82797     1 1s    0.39753     1 2py  -0.45666     1 2pz  -0.53440     1 2py   1.09838     1 2pz   0.61113
                                    2 1s    0.39753     2 2py   0.45666     2 2pz   0.53440     2 2py  -1.09838     2 2pz  -0.61113
                                    3 1s   -0.37505     6 1s   -0.37505
   19.1    -0.00000     0.87376     1 1s    0.28561     1 2px   0.29115     1 2py  -0.38811     1 2pz   0.47611     1 2px  -0.62447
                                    1 2py   1.18856     1 2pz  -0.83377     2 1s    0.28561     2 2px  -0.29115     2 2py   0.38811
                                    2 2pz  -0.47611     2 2px   0.62447     2 2py  -1.18856     2 2pz   0.83377     3 1s   -0.64166
                                    6 1s   -0.64166
   20.1    -0.00000     0.93537     1 1s    0.27762     1 1s   -0.43723     1 2px   0.67752     1 2py   0.29495     1 2px  -0.98427
                                    1 2py  -0.59431     2 1s   -0.27762     2 1s    0.43723     2 2px   0.67752     2 2py   0.29495
                                    2 2px  -0.98427     2 2py  -0.59431     4 1s   -0.29622     4 1s   -0.50252     5 1s    0.29622
                                    5 1s    0.50252
   21.1    -0.00000     1.08026     1 2px   0.33396     1 2py   0.31285     1 2py  -0.52426     1 2pz   0.33829     2 2px  -0.33396
                                    2 2py  -0.31285     2 2py   0.52426     2 2pz  -0.33829     3 1s    0.33712     4 1s    0.75500
                                    4 1s   -0.72593     5 1s    0.75500     5 1s   -0.72593     6 1s    0.33712
   22.1    -0.00000     1.09150     1 1s   -0.31572     1 1s    0.44697     1 2py   0.51890     1 2px  -0.44629     1 2py  -0.69075
                                    2 1s    0.31572     2 1s   -0.44697     2 2py   0.51890     2 2px  -0.44629     2 2py  -0.69075
                                    4 1s    0.73409     4 1s   -1.34817     5 1s   -0.73409     5 1s    1.34817
   23.1    -0.00000     1.10783     1 1s   -1.20543     1 1s    2.30848     1 2px  -0.58063     1 2py   0.25029     1 2pz  -0.66856
                                    2 1s   -1.20543     2 1s    2.30848     2 2px   0.58063     2 2py  -0.25029     2 2pz   0.66856
                                    3 1s   -0.42696     3 1s   -0.75496     4 1s   -0.89585     5 1s   -0.89585     6 1s   -0.42696
                                    6 1s   -0.75496
   24.1    -0.00000     1.23215     1 1s    0.61038     1 1s   -2.31696     1 2px   0.34067     1 2py  -0.43886     1 2px  -1.44162
                                    1 2py   1.10046     1 2pz   0.54495     2 1s   -0.61038     2 1s    2.31696     2 2px   0.34067
                                    2 2py  -0.43886     2 2px  -1.44162     2 2py   1.10046     2 2pz   0.54495     3 1s    0.55303
                                    3 1s   -0.96796     4 1s    0.31053     4 1s    0.32765     5 1s   -0.31053     5 1s   -0.32765
                                    6 1s   -0.55303     6 1s    0.96796
   25.1    -0.00000     1.29600     1 1s   -1.48032     1 1s    3.85903     1 2px   0.43519     1 2pz  -0.76177     2 1s    1.48032
                                    2 1s   -3.85903     2 2px   0.43519     2 2pz  -0.76177     3 1s    0.33722     3 1s   -1.17407
                                    4 1s   -0.41953     5 1s    0.41953     6 1s   -0.33722     6 1s    1.17407
   26.1    -0.00000     1.29838     1 1s   -0.81986     1 1s    1.34279     1 2py  -0.40675     1 2px  -0.35599     1 2py   0.45836
                                    2 1s   -0.81986     2 1s    1.34279     2 2py   0.40675     2 2px   0.35599     2 2py  -0.45836
                                    3 1s    0.70625     3 1s   -1.27853     6 1s    0.70625     6 1s   -1.27853
   27.1    -0.00000     1.68647     1 3d0  -0.28528     1 3d2-  0.29132     1 3d1+  0.26001     1 3d2+  0.35633     1 3d1- -0.25208
                                    2 3d0   0.28528     2 3d2- -0.29132     2 3d1+ -0.26001     2 3d2+ -0.35633     2 3d1-  0.25208
   28.1    -0.00000     1.91499     1 1s    0.58941     1 3d2- -0.26940     1 3d1+  0.42072     1 3d1-  0.42350     2 1s   -0.58941
                                    2 3d2-  0.26940     2 3d1+ -0.42072     2 3d1- -0.42350     3 1s   -0.27054     6 1s    0.27054
   29.1    -0.00000     2.00183     1 1s    0.27778     1 1s   -0.68699     1 2pz   0.29825     1 3d0   0.36073     1 3d1+  0.39102
                                    1 3d2+  0.29900     1 3d1-  0.32326     2 1s    0.27778     2 1s   -0.68699     2 2pz  -0.29825
                                    2 3d0   0.36073     2 3d1+  0.39102     2 3d2+  0.29900     2 3d1-  0.32326     3 1s    0.34792
                                    6 1s    0.34792
   30.1    -0.00000     2.10435     1 1s   -0.43082     1 2px  -0.27065     1 2px   0.30838     1 2py  -0.28349     1 3d1+ -0.31890
                                    1 3d2+  0.39471     1 3d1-  0.25734     2 1s   -0.43082     2 2px   0.27065     2 2px  -0.30838
                                    2 2py   0.28349     2 3d1+ -0.31890     2 3d2+  0.39471     2 3d1-  0.25734
   31.1    -0.00000     2.28538     1 1s    0.34072     1 1s   -1.46735     1 2px  -0.35242     1 2py   0.27738     1 2pz   0.35490
                                    1 3d0   0.62583     1 3d2+  0.34406     2 1s   -0.34072     2 1s    1.46735     2 2px  -0.35242
                                    2 2py   0.27738     2 2pz   0.35490     2 3d0  -0.62583     2 3d2+ -0.34406     3 1s    0.39075
                                    4 1s    0.41575     5 1s   -0.41575     6 1s   -0.39075
   32.1    -0.00000     2.31569     1 2py   0.43764     1 3d0   0.49820     1 3d2- -0.33429     1 3d1+ -0.30089     1 3d1- -0.33296
                                    2 2py  -0.43764     2 3d0   0.49820     2 3d2- -0.33429     2 3d1+ -0.30089     2 3d1- -0.33296
                                    4 1s    0.39421     5 1s    0.39421
   33.1    -0.00000     2.50891     1 2py   0.38567     1 3d2-  0.28454     1 3d2+  0.53880     1 3d1- -0.49016     2 2py  -0.38567
                                    2 3d2-  0.28454     2 3d2+  0.53880     2 3d1- -0.49016     4 1s    0.34279     5 1s    0.34279
   34.1    -0.00000     2.58515     1 1s    0.37455     1 2px   0.31203     1 2py  -0.37053     1 3d2-  0.56131     1 3d1-  0.54317
                                    2 1s   -0.37455     2 2px   0.31203     2 2py  -0.37053     2 3d2- -0.56131     2 3d1- -0.54317
                                    3 1s    0.64027     4 1s   -0.34462     5 1s    0.34462     6 1s   -0.64027
   35.1    -0.00000     2.78829     1 1s   -0.25600     1 3d0   0.35544     1 3d2-  0.63619     1 3d1+ -0.40467     2 1s   -0.25600
                                    2 3d0   0.35544     2 3d2-  0.63619     2 3d1+ -0.40467     3 1s    0.69060     6 1s    0.69060
   36.1    -0.00000     2.88147     1 1s    1.64449     1 2px   0.28244     1 2px   0.88423     1 2py  -0.26481     1 2pz  -0.41261
                                    1 3d2- -0.35024     1 3d1+ -0.61603     1 3d2+  0.62341     2 1s   -1.64449     2 2px   0.28244
                                    2 2px   0.88423     2 2py  -0.26481     2 2pz  -0.41261     2 3d2-  0.35024     2 3d1+  0.61603
                                    2 3d2+ -0.62341


 Natural orbital dump (state averaged) at molpro section  2140.2    (Orbital set 2)



 **********************************************************************************************************************************
 DATASETS  * FILE   NREC   LENGTH (MB)   RECORD NAMES
              1      20       31.85       500      610      700      900      950      970     1000      129      960     1100   
                                          VAR    BASINP    GEOM    SYMINP    ZMAT    AOBASIS   BASIS     P2S    ABASIS      S 
                                         1400     1410     1200     1210     1080     1600     1650     1300     1700     1380   
                                           T        V       H0       H01     AOSYM     SMH    MOLCAS    ERIS     OPER     JKOP   

              2       5        5.42       700     1000      520     2100     2140   
                                         GEOM     BASIS   MCVARS     RHF     MCSCF   

 PROGRAMS   *        TOTAL     MULTI    HF-SCF       INT
 CPU TIMES  *         1.89      1.53      0.09      0.16
 REAL TIME  *         2.15 SEC
 DISK USED  *        39.03 MB
 **********************************************************************************************************************************
 Molecular orbitals read from record     2140.2  Type=MCSCF/NATURAL (state averaged)
 Occupation numbers read from record     2140.2  Type=MCSCF/NATURAL (state averaged)
 Orbital energies read from record       2140.2  Type=MCSCF/NATURAL (state averaged)
 Redundancy group numbers read from rec  2140.2  Type=MCSCF/NATURAL (state averaged)

 MULTI/6-31G* energy=    -77.518620611147

           MULTI          HF-SCF
    -77.51862061    -77.86288469
 **********************************************************************************************************************************
 Molpro calculation terminated with 4 warning(s)
