
 Primary working directories    : /scratch.local/johan406.molpro_temp/molpro.DrXoHsYFhA
 Secondary working directories  : /scratch.local/johan406.molpro_temp/molpro.DrXoHsYFhA
 Wavefunction directory         : /home/goodpast/johan406/wfu/
 Main file repository           : /scratch.local/johan406.molpro_temp/molpro.DrXoHsYFhA/

 id        : roweumn

 Nodes     nprocs
 acn06        1

 Using customized tuning parameters: mindgm=1; mindgv=20; mindgc=4; mindgr=1; noblas=0; minvec=7
 default implementation of scratch files=df  


 Variables initialized (934), CPU time= 0.00 sec
                                                                                 !leave this line blank
 
 gprint, orbitals=30
 memory, 125., m
 symmetry, nosym
 nelect=16
 basis=6-31g*
 
 geometry={
 C -0.687 0.147 0.294
 C 0.696 -0.197 -0.354
 H -1.265 0.896 -0.017
 H -1.066 -0.910 -0.046
 H 1.075 0.861 -0.014
 H 1.274 -0.946 -0.044
 }
 
 hf
 {multi,
 closed 7
 occ 9
 wf,spin=0;STATE,3
 }
 
 Commands  initialized (763), CPU time= 0.01 sec, 617 directives.
 Default parameters read. Elapsed time= 0.08 sec

 Checking input...
 Passed
1


                                         ***  PROGRAM SYSTEM MOLPRO  ***
                                       Copyright, TTI GmbH Stuttgart, 2015
                                    Version 2019.2 linked Oct 25 2019 22:50:27


 **********************************************************************************************************************************
 LABEL *                                                                                 
  64 bit serial version                                                                  DATE: 15-Mar-23          TIME: 16:16:23  
 **********************************************************************************************************************************

 SHA1:             8dbd9ae1082e4ce945b0f27595c9eb2d4aa09004
 **********************************************************************************************************************************


 Variable memory set to  125000000 words,  buffer space 

 SETTING NELECT         =        16.00000000                                  
 SETTING BASIS          =    6-31G*
 ZSYMEL=NOSYM


Geometry recognized as XYZ



 Recomputing integrals since basis changed


 Using spherical harmonics

 Library entry C      S 6-31G                selected for orbital group  1
 Library entry C      P 6-31G                selected for orbital group  1
 Library entry C      D 6-31G*               selected for orbital group  1
 Library entry H      S 6-31G                selected for orbital group  2


 PROGRAM * SEWARD (Integral evaluation for generally contracted gaussian basis sets)     Author: Roland Lindh, 1990

 Geometry written to block  1 of record 700


 Point group  C1  



 ATOMIC COORDINATES

 NR  ATOM    CHARGE       X              Y              Z

   1  C       6.00   -1.298241848    0.277789740    0.555579481
   2  C       6.00    1.315249383   -0.372276047   -0.668963048
   3  H       1.00   -2.390503548    1.693194608   -0.032125344
   4  H       1.00   -2.014448049   -1.719650773   -0.086927402
   5  H       1.00    2.031455584    1.627054193   -0.026456166
   6  H       1.00    2.407511083   -1.787680914   -0.083147949

 Bond lengths in Bohr (Angstrom)

 1-2  2.958449990  1-3  1.881967991  1-4  2.217100589  2-5  2.218803241  2-6  1.881378720
     ( 1.565544314)     ( 0.995894573)     ( 1.173239106)     ( 1.174140111)     ( 0.995582744)

 Bond angles

  1-2-5   88.12587894   1-2-6  123.31878962   2-1-3  123.27850857   2-1-4   88.13517562

  3-1-4  113.55260714   5-2-6  113.59949421

 NUCLEAR CHARGE:                   16
 NUMBER OF PRIMITIVE AOS:          72
 NUMBER OF SYMMETRY AOS:           70
 NUMBER OF CONTRACTIONS:           36   (   36A   )
 NUMBER OF CORE ORBITALS:           2   (    2A   )
 NUMBER OF VALENCE ORBITALS:       12   (   12A   )


 NUCLEAR REPULSION ENERGY   31.44440345

 Eigenvalues of metric

         1 0.125E-01 0.236E-01 0.469E-01 0.720E-01 0.743E-01 0.211E+00 0.252E+00 0.271E+00


 Contracted 2-electron integrals neglected if value below      1.0D-11
 AO integral compression algorithm  1   Integral accuracy      1.0D-11

     1.573 MB (compressed) written to integral file ( 57.9%)


 NUMBER OF SORTED TWO-ELECTRON INTEGRALS:     222111.     BUFFER LENGTH:  32768
 NUMBER OF SEGMENTS:   1  SEGMENT LENGTH:     222111      RECORD LENGTH: 524288

 Memory used in sort:       0.78 MW

 SORT1 READ      284735. AND WROTE      212529. INTEGRALS IN      1 RECORDS. CPU TIME:     0.00 SEC, REAL TIME:     0.00 SEC
 SORT2 READ      212529. AND WROTE      222111. INTEGRALS IN      6 RECORDS. CPU TIME:     0.02 SEC, REAL TIME:     0.02 SEC

 FILE SIZES:   FILE 1:    31.7 MBYTE,  FILE 4:     4.2 MBYTE,   TOTAL:     35.9 MBYTE

 OPERATOR DM      FOR CENTER  0  COORDINATES:    0.000000    0.000000    0.000000


 **********************************************************************************************************************************
 DATASETS  * FILE   NREC   LENGTH (MB)   RECORD NAMES
              1      19       31.12       500      610      700      900      950      970     1000      129      960     1100   
                                          VAR    BASINP    GEOM    SYMINP    ZMAT    AOBASIS   BASIS     P2S    ABASIS      S 
                                         1400     1410     1200     1210     1080     1600     1650     1300     1700   
                                           T        V       H0       H01     AOSYM     SMH    MOLCAS    ERIS     OPER   

 PROGRAMS   *        TOTAL       INT
 CPU TIMES  *         0.27      0.16
 REAL TIME  *         0.42 SEC
 DISK USED  *        36.24 MB
 **********************************************************************************************************************************


 PROGRAM * RHF-SCF (CLOSED SHELL)       Authors: W. Meyer, H.-J. Werner


 NUMBER OF ELECTRONS:       8+    8-    SPACE SYMMETRY=1    SPIN SYMMETRY: Singlet 
 CONVERGENCE THRESHOLDS:    1.00E-05 (Density)    1.00E-07 (Energy)
 MAX. NUMBER OF ITERATIONS:       60
 INTERPOLATION TYPE:            DIIS
 INTERPOLATION STEPS:              2 (START)      1 (STEP)
 LEVEL SHIFTS:                  0.00 (CLOSED)  0.00 (OPEN) 



 Orbital guess generated from atomic densities. Full valence occupancy:    8

 Molecular orbital dump at record        2100.2

 Initial occupancy:   8

 ITERATION    DDIFF          GRAD             ENERGY        2-EL.EN.            DIPOLE MOMENTS         DIIS   ORB.
    1      0.000D+00      0.000D+00       -77.83988489    113.881076    0.00077    0.00005   -0.00088    0    start
    2      0.000D+00      0.690D-02       -77.85905612    113.111146    0.00001   -0.00014   -0.00019    1    diag
    3      0.749D-02      0.225D-02       -77.86169004    113.438710    0.00061   -0.00055   -0.00091    2    diag
    4      0.320D-02      0.854D-03       -77.86229115    113.322519   -0.00000   -0.00026   -0.00025    3    diag
    5      0.165D-02      0.397D-03       -77.86257502    113.332634    0.00083   -0.00079   -0.00121    4    diag
    6      0.140D-02      0.155D-03       -77.86263267    113.333667   -0.00118    0.00043    0.00107    5    diag
    7      0.676D-03      0.524D-04       -77.86263581    113.334187    0.00111   -0.00096   -0.00154    6    diag
    8      0.119D-03      0.285D-04       -77.86263669    113.334705    0.00017   -0.00038   -0.00047    7    diag
    9      0.721D-04      0.717D-05       -77.86263676    113.334796    0.00025   -0.00043   -0.00056    8    diag
   10      0.217D-04      0.187D-05       -77.86263677    113.334758    0.00025   -0.00043   -0.00055    9    orth
   11      0.488D-05      0.330D-06       -77.86263677    113.334759    0.00025   -0.00043   -0.00055    0    orth

 Final occupancy:   8

 !RHF STATE  1.1 Energy               -77.862636768942
 Nuclear energy                        31.44440345
 One-electron energy                 -165.97441984
 Two-electron energy                   56.66737962
 Virial quotient                       -1.00148422
 !RHF STATE  1.1 Dipole moment          0.00024708    -0.00043118    -0.00055425
 Dipole moment /Debye                   0.00062798    -0.00109587    -0.00140868

 ELECTRON ORBITALS
 =================

  Orbital  Occupation    Energy     Coefficients
    1.1     2.00000   -11.26328     1 1s    0.61891     2 1s    0.78069
    2.1     2.00000   -11.26270     1 1s   -0.78075     2 1s    0.61899
    3.1     2.00000    -1.00026     1 1s    0.28535     1 1s    0.25550     2 1s    0.28535     2 1s    0.25551
    4.1     2.00000    -0.82114     1 1s   -0.25459     2 1s    0.25457
    5.1     2.00000    -0.61283     1 2py   0.30331     2 2py   0.30367
    6.1     2.00000    -0.59014     1 2px   0.26864     2 2px  -0.26866
    7.1     2.00000    -0.40955     1 2px   0.29815     2 2px  -0.29821     4 1s   -0.25212     5 1s   -0.25234
    8.1     2.00000    -0.35994     1 2pz   0.31309     1 2pz   0.30343     2 2pz   0.31298     2 2pz   0.30332
    9.1     0.00000     0.07243     1 1s   -0.34705     1 2pz  -0.34550     1 2pz  -0.49069     2 1s   -0.34703     2 2pz   0.34564
                                    2 2pz   0.49087
   10.1     0.00000     0.23472     1 1s   -1.14226     1 2px   0.48618     1 2py   0.35210     1 2pz   0.35522     2 1s   -1.14201
                                    2 2px  -0.48752     2 2py  -0.35338     2 2pz  -0.35478     3 1s    0.63802     4 1s    1.07021
                                    5 1s    1.07263     6 1s    0.63780
   11.1     0.00000     0.29816     1 1s    1.66487     1 2py   0.42520     1 2pz  -0.43668     2 1s   -1.66661     2 2py   0.42511
                                    2 2pz  -0.43630     3 1s   -1.47446     6 1s    1.47552
   12.1     0.00000     0.32020     1 1s   -1.11478     1 2px   0.29745     1 2py   0.65762     1 2pz   0.25142     2 1s    1.10043
                                    2 2px   0.29194     2 2py   0.66670     4 1s    1.53856     5 1s   -1.53833
   13.1     0.00000     0.33311     1 1s   -0.99733     1 2px   0.40393     1 2py  -1.15663     1 2pz   0.35912     2 1s   -1.00880
                                    2 2px  -0.40695     2 2py   1.15046     2 2pz  -0.36093     3 1s    1.88293     4 1s   -0.52380
                                    5 1s   -0.50886     6 1s    1.88547
   14.1     0.00000     0.40133     1 1s   -1.06724     1 2px  -1.57942     1 2py   0.73588     1 2pz   0.54216     2 1s    1.06601
                                    2 2px  -1.57955     2 2py   0.73710     2 2pz   0.54258     3 1s   -1.12345     4 1s    0.29825
                                    5 1s   -0.29871     6 1s    1.12533
   15.1     0.00000     0.71137     1 2px   0.27720     1 2py  -0.33250     1 2px  -0.86985     1 2py   0.82387     2 2px   0.27964
                                    2 2py  -0.33093     2 2px  -0.87491     2 2py   0.82317     3 1s   -0.47216     3 1s   -0.37661
                                    6 1s    0.47265     6 1s    0.37981
   16.1     0.00000     0.73161     1 1s   -0.30842     1 2px  -0.55473     1 2px   0.89704     2 1s   -0.30690     2 2px   0.55325
                                    2 2px  -0.89338     3 1s    0.29135     4 1s    0.26623     4 1s   -0.31268     5 1s    0.26682
                                    5 1s   -0.31332     6 1s    0.28981
   17.1     0.00000     0.80264     1 2pz   0.75820     1 2pz  -0.70719     2 2pz   0.75812     2 2pz  -0.70728
   18.1     0.00000     0.82928     1 1s   -0.51651     1 2py   0.48572     1 2pz   0.53101     1 2py  -1.18393     1 2pz  -0.49476
                                    2 1s   -0.51806     2 2py  -0.48569     2 2pz  -0.53227     2 2py   1.18424     2 2pz   0.49570
                                    3 1s    0.47867     6 1s    0.48031
   19.1     0.00000     0.87559     1 1s    0.30760     1 2px   0.27589     1 2py  -0.37115     1 2pz   0.52416     1 2px  -0.59214
                                    1 2py   1.13778     1 2pz  -0.83461     2 1s    0.30772     2 2px  -0.27783     2 2py   0.37079
                                    2 2pz  -0.52290     2 2px   0.59612     2 2py  -1.13738     2 2pz   0.83323     3 1s   -0.60034
                                    6 1s   -0.60166
   20.1     0.00000     0.92945     1 1s    0.26444     1 1s   -0.45820     1 2px   0.68372     1 2py   0.31587     1 2px  -1.07608
                                    1 2py  -0.61508     2 1s   -0.26305     2 1s    0.45942     2 2px   0.68288     2 2py   0.31817
                                    2 2px  -1.07408     2 2py  -0.61987     4 1s   -0.60522     5 1s    0.60550
   21.1     0.00000     1.10130     1 1s    0.66027     1 1s   -1.26924     1 2px   0.27079     1 2py  -0.52115     1 2pz   0.61613
                                    2 1s    0.65612     2 1s   -1.26539     2 2px  -0.27363     2 2py   0.53403     2 2pz  -0.61490
                                    3 1s    0.41283     3 1s    0.64454     4 1s    0.58854     5 1s    0.60515     6 1s    0.41210
                                    6 1s    0.64695
   22.1     0.00000     1.11916     1 1s   -0.99256     1 1s    1.89717     1 2py   0.27526     1 2px  -0.50770     1 2pz  -0.44212
                                    2 1s   -1.02601     2 1s    1.95396     2 2py  -0.31963     2 2px   0.53172     2 2pz   0.45299
                                    3 1s   -0.50707     4 1s    0.46695     4 1s   -1.08934     5 1s    0.53008     5 1s   -1.20331
                                    6 1s   -0.49435
   23.1     0.00000     1.12456     1 1s   -0.38568     1 1s    0.62639     1 2py   0.52710     1 2px  -0.33304     1 2py  -0.70746
                                    2 1s    0.31280     2 1s   -0.48771     2 2py   0.49672     2 2px  -0.29359     2 2py  -0.69066
                                    4 1s    0.76257     4 1s   -1.37155     5 1s   -0.70664     5 1s    1.26734
   24.1     0.00000     1.23849     1 1s    0.51763     1 1s   -2.08375     1 2px   0.34122     1 2py  -0.44134     1 2px  -1.40096
                                    1 2py   1.07402     1 2pz   0.50051     2 1s   -0.51533     2 1s    2.07722     2 2px   0.34060
                                    2 2py  -0.44161     2 2px  -1.40281     2 2py   1.07625     2 2pz   0.49854     3 1s    0.57104
                                    3 1s   -1.01583     4 1s    0.34021     4 1s    0.26453     5 1s   -0.33989     5 1s   -0.26259
                                    6 1s   -0.56867     6 1s    1.01825
   25.1     0.00000     1.29623     1 1s   -1.31056     1 1s    2.70815     1 2px   0.31675     1 2py  -0.43398     1 2py   0.36348
                                    1 2pz  -0.53703     2 2py   0.32411     2 2px   0.51933     2 2py  -0.49776     3 1s    0.77377
                                    3 1s   -1.61211     6 1s    0.54121     6 1s   -0.77673
   26.1     0.00000     1.29672     1 1s    1.10249     1 1s   -3.18951     1 2px  -0.59529     1 2py   0.33736     1 2pz   0.64666
                                    2 1s   -1.69852     2 1s    4.17077     2 2px  -0.30507     2 2py   0.29024     2 2px  -0.33097
                                    2 2pz   0.83574     3 1s    0.57607     4 1s    0.41579     5 1s   -0.40940     6 1s    0.55562
                                    6 1s   -1.52487
   27.1     0.00000     1.69364     1 3d0  -0.28527     1 3d2-  0.28878     1 3d1+  0.26405     1 3d2+  0.35627     1 3d1- -0.25411
                                    2 3d0   0.28552     2 3d2- -0.28863     2 3d1+ -0.26395     2 3d2+ -0.35603     2 3d1-  0.25443
   28.1     0.00000     1.91712     1 1s    0.59586     1 3d2- -0.27029     1 3d1+  0.41842     1 3d1-  0.42727     2 1s   -0.59481
                                    2 3d2-  0.26989     2 3d1+ -0.41875     2 3d1- -0.42749     3 1s   -0.26567     6 1s    0.26572
   29.1     0.00000     2.00529     1 1s    0.30037     1 1s   -0.70239     1 2pz   0.30191     1 3d0   0.37122     1 3d1+  0.40813
                                    1 3d2+  0.27483     1 3d1-  0.31331     2 1s    0.29978     2 1s   -0.69984     2 2pz  -0.30100
                                    2 3d0   0.37086     2 3d1+  0.40805     2 3d2+  0.27490     2 3d1-  0.31281     3 1s    0.34479
                                    6 1s    0.34484
   30.1     0.00000     2.10498     1 1s   -0.41863     1 2px  -0.25842     1 2px   0.31701     1 2py  -0.30917     1 3d1+ -0.29146
                                    1 3d2+  0.40158     1 3d1-  0.29062     2 1s   -0.41840     2 2px   0.25833     2 2px  -0.31771
                                    2 2py   0.30940     2 3d1+ -0.29120     2 3d2+  0.40258     2 3d1-  0.29108
   31.1     0.00000     2.28931     1 1s   -0.33667     1 1s    1.47969     1 2px   0.35810     1 2py  -0.27056     1 2pz  -0.36062
                                    1 3d0  -0.62410     1 3d2+ -0.33732     2 1s    0.33780     2 1s   -1.47756     2 2px   0.36081
                                    2 2py  -0.27788     2 2pz  -0.35795     2 3d0   0.63195     2 3d2+  0.33730     3 1s   -0.39854
                                    4 1s   -0.41976     5 1s    0.42573     6 1s    0.39498
   32.1     0.00000     2.32220     1 2py   0.42002     1 3d0   0.50533     1 3d2- -0.33248     1 3d1+ -0.31525     1 3d1- -0.31334
                                    2 2py  -0.41674     2 3d0   0.49550     2 3d2- -0.33530     2 3d1+ -0.31631     2 3d1- -0.31381
                                    4 1s    0.40434     5 1s    0.39796
   33.1     0.00000     2.51312     1 2py   0.38453     1 3d2-  0.27064     1 3d2+  0.54337     1 3d1- -0.48782     2 2py  -0.38749
                                    2 3d2-  0.26563     2 3d2+  0.54299     2 3d1- -0.49221     4 1s    0.35474     5 1s    0.35713
   34.1     0.00000     2.59289     1 1s    0.39693     1 2px   0.32454     1 2py  -0.37753     1 3d2-  0.56116     1 3d1-  0.54263
                                    2 1s   -0.39553     2 2px   0.32543     2 2py  -0.37359     2 3d2- -0.56264     2 3d1- -0.53735
                                    3 1s    0.63961     4 1s   -0.35548     5 1s    0.35093     6 1s   -0.63906
   35.1     0.00000     2.79063     1 1s   -0.26367     1 3d0   0.34527     1 3d2-  0.64746     1 3d1+ -0.39608     2 1s   -0.26076
                                    2 2py   0.25005     2 3d0   0.34586     2 3d2-  0.64736     2 3d1+ -0.39709     3 1s    0.69590
                                    6 1s    0.69710
   36.1     0.00000     2.88616     1 1s    1.60196     1 2px   0.28458     1 2px   0.86810     1 2py  -0.25426     1 2pz  -0.40222
                                    1 3d2- -0.35299     1 3d1+ -0.61041     1 3d2+  0.62687     2 1s   -1.60229     2 2px   0.28442
                                    2 2px   0.86769     2 2py  -0.25423     2 2pz  -0.40243     2 3d2-  0.35412     2 3d1+  0.60965
                                    2 3d2+ -0.62620


 HOMO      8.1    -0.359936 =      -9.7944eV
 LUMO      9.1     0.072425 =       1.9708eV
 LUMO-HOMO         0.432361 =      11.7652eV


 **********************************************************************************************************************************
 DATASETS  * FILE   NREC   LENGTH (MB)   RECORD NAMES
              1      19       31.12       500      610      700      900      950      970     1000      129      960     1100   
                                          VAR    BASINP    GEOM    SYMINP    ZMAT    AOBASIS   BASIS     P2S    ABASIS      S 
                                         1400     1410     1200     1210     1080     1600     1650     1300     1700   
                                           T        V       H0       H01     AOSYM     SMH    MOLCAS    ERIS     OPER   

              2       4        2.86       700     1000      520     2100   
                                         GEOM     BASIS   MCVARS     RHF  

 PROGRAMS   *        TOTAL    HF-SCF       INT
 CPU TIMES  *         0.36      0.09      0.16
 REAL TIME  *         0.57 SEC
 DISK USED  *        36.24 MB
 **********************************************************************************************************************************


 PROGRAM * MULTI (Direct Multiconfiguration SCF)       Authors: P.J. Knowles, H.-J. Werner (1984)


 Number of closed-shell orbitals:   7 (   7 )
 Number of active  orbitals:        2 (   2 )
 Number of external orbitals:      27 (  27 )

 State symmetry 1

 Number of electrons:     2    Spin symmetry=Singlet   Space symmetry=1
 Number of states:        3
 Number of CSFs:          3   (4 determinants, 4 intermediate states)

 Molecular orbitals read from record     2100.2  Type=RHF/CANONICAL (state 1.1)

 Wavefunction dump at record             2140.2

 Convergence thresholds  0.10E-01 (gradient)  0.10E-05 (energy)  0.10E-02 (step length)

 Weight factors for state symmetry  1:    0.33333   0.33333   0.33333

 Number of orbital rotations:      257   (    14 Core/Active    189 Core/Virtual   0 Active/Active     54 Active/Virtual)
 Total number of variables:        269

 Micro-Iterations solved by the two-step solver

 ITER. MIC  NCI  NEG     ENERGY(VAR)     ENERGY(PROJ)   ENERGY CHANGE     GRAD(0)  GRAD(ORB)   GRAD(CI)     STEP       TIME

   1   14    6    1     -77.64361768     -77.65973326   -0.01611558    0.10122319 0.00197749 0.00000000  0.27D+00      0.42
   2   10    5    0     -77.68692512     -77.69884450   -0.01191938    0.11630115 0.00107303 0.00000000  0.15D+00      0.55
   3   12    6    0     -77.69931130     -77.69951124   -0.00019994    0.01502457 0.00000161 0.00000000  0.23D-01      0.68
   4   10    6    0     -77.69951314     -77.69951325   -0.00000010    0.00030499 0.00000000 0.00000000  0.54D-03      0.79
   5    4    3    0     -77.69951325     -77.69951325   -0.00000000    0.00000012 0.00000001 0.00000000  0.23D-06      0.85

 ** WVFN ****  CONVERGENCE REACHED, FINAL GRADIENT:  0.20D-11



 Results for state 1.1
 =====================

 !MCSCF STATE  1.1 Energy             -77.855662152753
 Nuclear energy                        31.44440345
 Kinetic energy                        77.80028140
 One electron energy                 -166.04636201
 Two electron energy                   56.74629641
 Virial ratio                           2.00071183

 !MCSCF STATE  1.1 Dipole moment        0.00014289    -0.00062863    -0.00053241
 Dipole moment /Debye                   0.00036317    -0.00159772    -0.00135317

 Results for state 2.1
 =====================

 !MCSCF STATE  2.1 Energy             -77.726015154911
 Nuclear energy                        31.44440345
 Kinetic energy                        77.90794215
 One electron energy                 -165.75168118
 Two electron energy                   56.58126257
 Virial ratio                           1.99766485

 !MCSCF STATE  2.1 Dipole moment        0.00072485    -0.00004644    -0.00065659
 Dipole moment /Debye                   0.00184226    -0.00011802    -0.00166878

 Results for state 3.1
 =====================

 !MCSCF STATE  3.1 Energy             -77.516862427425
 Nuclear energy                        31.44440345
 Kinetic energy                        78.01230291
 One electron energy                 -165.47775679
 Two electron energy                   56.51649091
 Virial ratio                           1.99364920

 !MCSCF STATE  3.1 Dipole moment        0.00138149     0.00056387    -0.00080494
 Dipole moment /Debye                   0.00351118     0.00143312    -0.00204582

 State-averaged charge density matrix saved on record  2140.2 (density set 1)

 !MCSCF expec         <1.1|DMX|1.1>     0.000142891407 au =     0.000363169942 Debye
 !MCSCF trans         <2.1|DMX|1.1>    -0.000519179336 au =    -0.001319535817 Debye
 !MCSCF expec         <2.1|DMX|2.1>     0.000724849775 au =     0.001842263692 Debye
 !MCSCF trans         <3.1|DMX|1.1>    -0.000034350328 au =    -0.000087304105 Debye
 !MCSCF trans         <3.1|DMX|2.1>    -0.000544841400 au =    -0.001384758005 Debye
 !MCSCF expec         <3.1|DMX|3.1>     0.001381494118 au =     0.003511177822 Debye

 !MCSCF expec         <1.1|DMY|1.1>    -0.000628634024 au =    -0.001597723662 Debye
 !MCSCF trans         <2.1|DMY|1.1>    -0.000199838288 au =    -0.000507904995 Debye
 !MCSCF expec         <2.1|DMY|2.1>    -0.000046437518 au =    -0.000118024668 Debye
 !MCSCF trans         <3.1|DMY|1.1>    -0.000040391762 au =    -0.000102658893 Debye
 !MCSCF trans         <3.1|DMY|2.1>    -0.000200986837 au =    -0.000510824125 Debye
 !MCSCF expec         <3.1|DMY|3.1>     0.000563871235 au =     0.001433123853 Debye

 !MCSCF expec         <1.1|DMZ|1.1>    -0.000532413701 au =    -0.001353172013 Debye
 !MCSCF trans         <2.1|DMZ|1.1>     0.000167250392 au =     0.000425080253 Debye
 !MCSCF expec         <2.1|DMZ|2.1>    -0.000656591521 au =    -0.001668779879 Debye
 !MCSCF trans         <3.1|DMZ|1.1>     0.000006264548 au =     0.000015921849 Debye
 !MCSCF trans         <3.1|DMZ|2.1>     0.000177059783 au =     0.000450011604 Debye
 !MCSCF expec         <3.1|DMZ|3.1>    -0.000804941223 au =    -0.002045822513 Debye


 NATURAL ORBITALS (state averaged)
 =================================

  Orbital  Occupation    Energy     Coefficients
    1.1     2.00000   -11.25503     1 1s    0.61007     2 1s    0.78759
    2.1     2.00000   -11.25457     1 1s   -0.78761     2 1s    0.61010
    3.1     2.00000    -1.00758     1 1s    0.28008     1 1s    0.25218     2 1s    0.28005     2 1s    0.25218
    4.1     2.00000    -0.81674     1 1s   -0.28145     2 1s    0.28148
    5.1     2.00000    -0.61657     1 2py   0.29758     2 2py   0.29797
    6.1     2.00000    -0.58886     1 2py  -0.27373     2 2py   0.27308
    7.1     2.00000    -0.39105     1 2pz   0.33455     1 2pz   0.30042     2 2pz   0.33449     2 2pz   0.30034
    8.1     1.00000    -0.08196     1 2pz  -0.42190     1 2pz  -0.43918     2 2pz   0.42210     2 2pz   0.43931
    9.1     1.00000    -0.25037     1 2px  -0.33152     2 2px   0.33163     4 1s    0.25519     5 1s    0.25540
   10.1    -0.00000     0.22284     1 1s   -1.13300     1 2px   0.48224     1 2py   0.38271     1 2pz   0.29976     2 1s   -1.13381
                                    2 2px  -0.48326     2 2py  -0.38427     2 2pz  -0.29966     3 1s    0.58048     4 1s    1.08639
                                    5 1s    1.08927     6 1s    0.58047
   11.1    -0.00000     0.29699     1 1s    2.02482     1 2pz  -0.50541     2 1s   -2.02187     2 2pz  -0.50383     3 1s   -1.33538
                                    4 1s   -0.65829     5 1s    0.65691     6 1s    1.33229
   12.1    -0.00000     0.30771     1 1s   -0.28067     1 2py   0.86590     2 1s    0.27157     2 2py   0.86842     3 1s   -0.65703
                                    4 1s    1.43143     5 1s   -1.42816     6 1s    0.66584
   13.1    -0.00000     0.33551     1 1s   -1.06055     1 2px   0.41823     1 2py  -1.14151     1 2pz   0.34695     2 1s   -1.06579
                                    2 2px  -0.41890     2 2py   1.13853     2 2pz  -0.34745     3 1s    1.90950     4 1s   -0.47244
                                    5 1s   -0.46588     6 1s    1.90992
   14.1    -0.00000     0.40555     1 1s   -0.92008     1 2px  -0.26531     1 2px  -1.60399     1 2py   0.62126     1 2pz   0.48906
                                    2 1s    0.91910     2 2px  -0.26531     2 2px  -1.60412     2 2py   0.62275     2 2pz   0.48944
                                    3 1s   -1.12219     6 1s    1.12424
   15.1    -0.00000     0.71191     1 2px   0.27199     1 2py  -0.33031     1 2px  -0.87862     1 2py   0.83207     2 2px   0.27553
                                    2 2py  -0.32837     2 2px  -0.88547     2 2py   0.83100     3 1s   -0.47193     3 1s   -0.37037
                                    6 1s    0.47261     6 1s    0.37413
   16.1    -0.00000     0.72801     1 1s   -0.26856     1 2px  -0.53862     1 2px   0.87452     2 1s   -0.26721     2 2px   0.53659
                                    2 2px  -0.86880     3 1s    0.28207     4 1s    0.30232     4 1s   -0.36489     5 1s    0.30330
                                    5 1s   -0.36559     6 1s    0.27962
   17.1    -0.00000     0.79898     1 1s    0.37174     1 2pz   0.75120     1 2pz  -0.76304     2 1s   -0.37192     2 2pz   0.75147
                                    2 2pz  -0.76360
   18.1    -0.00000     0.82877     1 1s   -0.40090     1 2py   0.44933     1 2pz   0.54295     1 2py  -1.08396     1 2pz  -0.62316
                                    2 1s   -0.40241     2 2py  -0.44940     2 2pz  -0.54366     2 2py   1.08432     2 2pz   0.62357
                                    3 1s    0.37407     6 1s    0.37563
   19.1    -0.00000     0.87427     1 1s    0.28194     1 2px   0.29062     1 2py  -0.39604     1 2pz   0.46703     1 2px  -0.62700
                                    1 2py   1.21457     1 2pz  -0.82495     2 1s    0.28213     2 2px  -0.29255     2 2py   0.39577
                                    2 2pz  -0.46557     2 2px   0.63089     2 2py  -1.21435     2 2pz   0.82337     3 1s   -0.65814
                                    6 1s   -0.65942
   20.1    -0.00000     0.93333     1 1s    0.27999     1 1s   -0.44037     1 2px   0.67640     1 2py   0.29036     1 2px  -0.98390
                                    1 2py  -0.58472     2 1s   -0.27844     2 1s    0.44125     2 2px   0.67538     2 2py   0.29256
                                    2 2px  -0.98190     2 2py  -0.58928     4 1s   -0.30042     4 1s   -0.48998     5 1s    0.30143
                                    5 1s    0.49001
   21.1    -0.00000     1.07937     1 1s   -0.33697     1 2px   0.32778     1 2py   0.28484     1 2py  -0.51724     1 2pz   0.38159
                                    2 1s   -0.31576     2 2px  -0.33702     2 2py  -0.31313     2 2py   0.55494     2 2pz  -0.37770
                                    3 1s    0.25907     3 1s    0.38682     4 1s    0.72298     4 1s   -0.62499     5 1s    0.76451
                                    5 1s   -0.70162     6 1s    0.25834     6 1s    0.39154
   22.1    -0.00000     1.09191     1 1s   -0.30251     1 1s    0.42388     1 2py   0.52686     1 2px  -0.44949     1 2py  -0.71018
                                    2 1s    0.32998     2 1s   -0.47765     2 2py   0.51186     2 2px  -0.45732     2 2py  -0.67472
                                    4 1s    0.75147     4 1s   -1.36219     5 1s   -0.71255     5 1s    1.33832
   23.1    -0.00000     1.10659     1 1s   -1.19800     1 1s    2.29424     1 2px  -0.58874     1 2pz  -0.63969     2 1s   -1.19758
                                    2 1s    2.29874     2 2px   0.57687     2 2pz   0.64012     3 1s   -0.40725     3 1s   -0.73539
                                    4 1s   -0.95270     5 1s   -0.93176     6 1s   -0.40726     6 1s   -0.73762
   24.1    -0.00000     1.23407     1 1s    0.65292     1 1s   -2.41498     1 2px   0.33368     1 2py  -0.43550     1 2px  -1.44605
                                    1 2py   1.10169     1 2pz   0.56363     2 1s   -0.64995     2 1s    2.40721     2 2px   0.33321
                                    2 2py  -0.43585     2 2px  -1.44823     2 2py   1.10409     2 2pz   0.56137     3 1s    0.54446
                                    3 1s   -0.93321     4 1s    0.31521     4 1s    0.34308     5 1s   -0.31495     5 1s   -0.34075
                                    6 1s   -0.54225     6 1s    0.93631
   25.1    -0.00000     1.29805     1 1s    1.50005     1 1s   -3.84381     1 2px  -0.26951     1 2px  -0.37265     1 2pz   0.75194
                                    2 1s   -1.42191     2 1s    3.71413     2 2px  -0.40697     2 2pz   0.72710     3 1s   -0.38547
                                    3 1s    1.26335     4 1s    0.40961     5 1s   -0.40642     6 1s    0.32140     6 1s   -1.14342
   26.1    -0.00000     1.30186     1 1s   -0.75068     1 1s    1.16685     1 2py  -0.39824     1 2px  -0.37293     1 2py   0.46115
                                    2 1s   -0.88487     2 1s    1.51366     2 2px  -0.26091     2 2py   0.41642     2 2px   0.33771
                                    2 2py  -0.45435     2 2pz   0.27513     3 1s    0.69078     3 1s   -1.22169     6 1s    0.72390
                                    6 1s   -1.33339
   27.1    -0.00000     1.68689     1 3d0  -0.28307     1 3d2-  0.29021     1 3d1+  0.26211     1 3d2+  0.35745     1 3d1- -0.25384
                                    2 3d0   0.28333     2 3d2- -0.29006     2 3d1+ -0.26200     2 3d2+ -0.35722     2 3d1-  0.25416
   28.1    -0.00000     1.91463     1 1s    0.57500     1 3d2- -0.26874     1 3d1+  0.42030     1 3d1-  0.42514     2 1s   -0.57396
                                    2 3d2-  0.26834     2 3d1+ -0.42063     2 3d1- -0.42536     3 1s   -0.26895     6 1s    0.26900
   29.1    -0.00000     2.00370     1 1s    0.27908     1 1s   -0.68975     1 2pz   0.29733     1 3d0   0.36198     1 3d1+  0.39468
                                    1 3d2+  0.29460     1 3d1-  0.32227     2 1s    0.27851     2 1s   -0.68725     2 2pz  -0.29643
                                    2 3d0   0.36169     2 3d1+  0.39462     2 3d2+  0.29473     2 3d1-  0.32180     3 1s    0.34905
                                    6 1s    0.34913
   30.1    -0.00000     2.09986     1 1s   -0.42692     1 2px  -0.26968     1 2px   0.30917     1 2py  -0.28780     1 3d1+ -0.31448
                                    1 3d2+  0.39575     1 3d1-  0.26201     2 1s   -0.42663     2 2px   0.26958     2 2px  -0.30980
                                    2 2py   0.28797     2 3d1+ -0.31421     2 3d2+  0.39678     2 3d1-  0.26247
   31.1    -0.00000     2.28862     1 1s   -0.33990     1 1s    1.46699     1 2px   0.35023     1 2py  -0.27308     1 2pz  -0.35511
                                    1 3d0  -0.62251     1 3d2+ -0.34301     2 1s    0.34148     2 1s   -1.46460     2 2px   0.35358
                                    2 2py  -0.28236     2 2pz  -0.35182     2 3d0   0.63222     2 3d2+  0.34296     3 1s   -0.39356
                                    4 1s   -0.41510     5 1s    0.42242     6 1s    0.38898
   32.1    -0.00000     2.31588     1 2py   0.43924     1 3d0   0.50480     1 3d2- -0.33245     1 3d1+ -0.30352     1 3d1- -0.32939
                                    2 2py  -0.43486     2 3d0   0.49256     2 3d2- -0.33535     2 3d1+ -0.30481     2 3d1- -0.32966
                                    4 1s    0.39874     5 1s    0.39082
   33.1    -0.00000     2.50444     1 2py   0.38684     1 3d2-  0.28309     1 3d2+  0.53918     1 3d1- -0.48756     2 2py  -0.38962
                                    2 3d2-  0.27825     2 3d2+  0.53882     2 3d1- -0.49180     4 1s    0.34224     5 1s    0.34444
   34.1    -0.00000     2.58675     1 1s    0.37816     1 2px   0.31532     1 2py  -0.37389     1 3d2-  0.56295     1 3d1-  0.54350
                                    2 1s   -0.37680     2 2px   0.31615     2 2py  -0.37000     2 3d2- -0.56446     2 3d1- -0.53834
                                    3 1s    0.64626     4 1s   -0.34549     5 1s    0.34115     6 1s   -0.64579
   35.1    -0.00000     2.79054     1 1s   -0.26285     1 3d0   0.35393     1 3d2-  0.63918     1 3d1+ -0.40043     2 1s   -0.25948
                                    2 2py   0.25002     2 3d0   0.35445     2 3d2-  0.63897     2 3d1+ -0.40157     3 1s    0.69699
                                    6 1s    0.69815
   36.1    -0.00000     2.87915     1 1s    1.63716     1 2px   0.27787     1 2px   0.88250     1 2py  -0.26367     1 2pz  -0.41054
                                    1 3d2- -0.34997     1 3d1+ -0.61386     1 3d2+  0.62321     2 1s   -1.63753     2 2px   0.27769
                                    2 2px   0.88207     2 2py  -0.26359     2 2pz  -0.41075     2 3d2-  0.35123     2 3d1+  0.61301
                                    2 3d2+ -0.62253


 Natural orbital dump (state averaged) at molpro section  2140.2    (Orbital set 2)



 **********************************************************************************************************************************
 DATASETS  * FILE   NREC   LENGTH (MB)   RECORD NAMES
              1      20       31.85       500      610      700      900      950      970     1000      129      960     1100   
                                          VAR    BASINP    GEOM    SYMINP    ZMAT    AOBASIS   BASIS     P2S    ABASIS      S 
                                         1400     1410     1200     1210     1080     1600     1650     1300     1700     1380   
                                           T        V       H0       H01     AOSYM     SMH    MOLCAS    ERIS     OPER     JKOP   

              2       5        5.42       700     1000      520     2100     2140   
                                         GEOM     BASIS   MCVARS     RHF     MCSCF   

 PROGRAMS   *        TOTAL     MULTI    HF-SCF       INT
 CPU TIMES  *         1.25      0.89      0.09      0.16
 REAL TIME  *         1.56 SEC
 DISK USED  *        39.03 MB
 **********************************************************************************************************************************
 Molecular orbitals read from record     2140.2  Type=MCSCF/NATURAL (state averaged)
 Occupation numbers read from record     2140.2  Type=MCSCF/NATURAL (state averaged)
 Orbital energies read from record       2140.2  Type=MCSCF/NATURAL (state averaged)
 Redundancy group numbers read from rec  2140.2  Type=MCSCF/NATURAL (state averaged)

 MULTI/6-31G* energy=    -77.516862427425

           MULTI          HF-SCF
    -77.51686243    -77.86263677
 **********************************************************************************************************************************
 Molpro calculation terminated
