
 Primary working directories    : /scratch.local/johan406.molpro_temp/molpro.FDuWoI4asV
 Secondary working directories  : /scratch.local/johan406.molpro_temp/molpro.FDuWoI4asV
 Wavefunction directory         : /home/goodpast/johan406/wfu/
 Main file repository           : /scratch.local/johan406.molpro_temp/molpro.FDuWoI4asV/

 id        : roweumn

 Nodes     nprocs
 acn06        1

 Using customized tuning parameters: mindgm=1; mindgv=20; mindgc=4; mindgr=1; noblas=0; minvec=7
 default implementation of scratch files=df  


 Variables initialized (934), CPU time= 0.00 sec
                                                                                 !leave this line blank
 
 gprint, orbitals=30
 memory, 125., m
 symmetry, nosym
 nelect=16
 basis=6-31g*
 
 geometry={
 C -0.771 0.136 0.295
 C 0.780 -0.185 -0.355
 H -1.310 0.925 0.092
 H -1.376 -0.909 0.115
 H 1.385 0.859 -0.175
 H 1.319 -0.975 -0.152
 }
 
 hf
 {multi,
 closed 7
 occ 9
 wf,spin=0;STATE,3
 }
 
 Commands  initialized (763), CPU time= 0.01 sec, 617 directives.
 Default parameters read. Elapsed time= 0.07 sec

 Checking input...
 Passed
1


                                         ***  PROGRAM SYSTEM MOLPRO  ***
                                       Copyright, TTI GmbH Stuttgart, 2015
                                    Version 2019.2 linked Oct 25 2019 22:50:27


 **********************************************************************************************************************************
 LABEL *                                                                                 
  64 bit serial version                                                                  DATE: 15-Mar-23          TIME: 16:19:40  
 **********************************************************************************************************************************

 SHA1:             8dbd9ae1082e4ce945b0f27595c9eb2d4aa09004
 **********************************************************************************************************************************


 Variable memory set to  125000000 words,  buffer space 

 SETTING NELECT         =        16.00000000                                  
 SETTING BASIS          =    6-31G*
 ZSYMEL=NOSYM


Geometry recognized as XYZ



 Recomputing integrals since basis changed


 Using spherical harmonics

 Library entry C      S 6-31G                selected for orbital group  1
 Library entry C      P 6-31G                selected for orbital group  1
 Library entry C      D 6-31G*               selected for orbital group  1
 Library entry H      S 6-31G                selected for orbital group  2


 PROGRAM * SEWARD (Integral evaluation for generally contracted gaussian basis sets)     Author: Roland Lindh, 1990

 Geometry written to block  1 of record 700


 Point group  C1  



 ATOMIC COORDINATES

 NR  ATOM    CHARGE       X              Y              Z

   1  C       6.00   -1.456978842    0.257002753    0.557469207
   2  C       6.00    1.473986377   -0.349599333   -0.670852774
   3  H       1.00   -2.475541223    1.747996665    0.173854803
   4  H       1.00   -2.600263147   -1.717761047    0.217318504
   5  H       1.00    2.617270683    1.623274741   -0.330702072
   6  H       1.00    2.492548758   -1.842482971   -0.287238371

 Bond lengths in Bohr (Angstrom)

 1-2  3.235320401  1-3  1.845993549  1-4  2.307053005  2-5  2.305435667  2-6  1.847520201
     ( 1.712057826)     ( 0.976857717)     ( 1.220839875)     ( 1.219984016)     ( 0.977665587)

 Bond angles

  1-2-5  103.46156826   1-2-6  124.89832148   2-1-3  124.91796904   2-1-4  103.44290638

  3-1-4  112.78561722   5-2-6  112.79588651

 NUCLEAR CHARGE:                   16
 NUMBER OF PRIMITIVE AOS:          72
 NUMBER OF SYMMETRY AOS:           70
 NUMBER OF CONTRACTIONS:           36   (   36A   )
 NUMBER OF CORE ORBITALS:           2   (    2A   )
 NUMBER OF VALENCE ORBITALS:       12   (   12A   )


 NUCLEAR REPULSION ENERGY   29.49012444

 Eigenvalues of metric

         1 0.190E-01 0.239E-01 0.473E-01 0.634E-01 0.928E-01 0.218E+00 0.264E+00 0.266E+00


 Contracted 2-electron integrals neglected if value below      1.0D-11
 AO integral compression algorithm  1   Integral accuracy      1.0D-11

     1.311 MB (compressed) written to integral file ( 67.0%)


 NUMBER OF SORTED TWO-ELECTRON INTEGRALS:     222111.     BUFFER LENGTH:  32768
 NUMBER OF SEGMENTS:   1  SEGMENT LENGTH:     222111      RECORD LENGTH: 524288

 Memory used in sort:       0.78 MW

 SORT1 READ      284735. AND WROTE      212501. INTEGRALS IN      1 RECORDS. CPU TIME:     0.00 SEC, REAL TIME:     0.00 SEC
 SORT2 READ      212501. AND WROTE      222111. INTEGRALS IN      5 RECORDS. CPU TIME:     0.03 SEC, REAL TIME:     0.02 SEC

 FILE SIZES:   FILE 1:    31.4 MBYTE,  FILE 4:     4.2 MBYTE,   TOTAL:     35.6 MBYTE

 OPERATOR DM      FOR CENTER  0  COORDINATES:    0.000000    0.000000    0.000000


 **********************************************************************************************************************************
 DATASETS  * FILE   NREC   LENGTH (MB)   RECORD NAMES
              1      19       31.10       500      610      700      900      950      970     1000      129      960     1100   
                                          VAR    BASINP    GEOM    SYMINP    ZMAT    AOBASIS   BASIS     P2S    ABASIS      S 
                                         1400     1410     1200     1210     1080     1600     1650     1300     1700   
                                           T        V       H0       H01     AOSYM     SMH    MOLCAS    ERIS     OPER   

 PROGRAMS   *        TOTAL       INT
 CPU TIMES  *         0.26      0.16
 REAL TIME  *         0.42 SEC
 DISK USED  *        35.97 MB
 **********************************************************************************************************************************


 PROGRAM * RHF-SCF (CLOSED SHELL)       Authors: W. Meyer, H.-J. Werner


 NUMBER OF ELECTRONS:       8+    8-    SPACE SYMMETRY=1    SPIN SYMMETRY: Singlet 
 CONVERGENCE THRESHOLDS:    1.00E-05 (Density)    1.00E-07 (Energy)
 MAX. NUMBER OF ITERATIONS:       60
 INTERPOLATION TYPE:            DIIS
 INTERPOLATION STEPS:              2 (START)      1 (STEP)
 LEVEL SHIFTS:                  0.00 (CLOSED)  0.00 (OPEN) 



 Orbital guess generated from atomic densities. Full valence occupancy:    8

 Molecular orbital dump at record        2100.2

 Initial occupancy:   8

 ITERATION    DDIFF          GRAD             ENERGY        2-EL.EN.            DIPOLE MOMENTS         DIIS   ORB.
    1      0.000D+00      0.000D+00       -77.83429226    109.818865    0.00082   -0.00080   -0.00048    0    start
    2      0.000D+00      0.676D-02       -77.85452674    109.291011   -0.00011    0.00028    0.00028    1    diag
    3      0.720D-02      0.226D-02       -77.85784553    109.545034    0.00110   -0.00016   -0.00070    2    diag
    4      0.350D-02      0.873D-03       -77.85857723    109.439897   -0.00013    0.00044    0.00032    3    diag
    5      0.160D-02      0.490D-03       -77.85903345    109.455706    0.00185   -0.00042   -0.00134    4    diag
    6      0.191D-02      0.146D-03       -77.85907226    109.454367   -0.00211    0.00134    0.00200    5    diag
    7      0.540D-03      0.580D-04       -77.85907424    109.454488    0.00113   -0.00011   -0.00074    6    diag
    8      0.820D-04      0.212D-04       -77.85907466    109.454963    0.00038    0.00022   -0.00011    7    diag
    9      0.427D-04      0.504D-05       -77.85907469    109.454967    0.00042    0.00021   -0.00014    8    diag
   10      0.136D-04      0.123D-05       -77.85907470    109.454968    0.00042    0.00021   -0.00014    9    orth
   11      0.289D-05      0.207D-06       -77.85907470    109.454964    0.00042    0.00021   -0.00014    0    orth

 Final occupancy:   8

 !RHF STATE  1.1 Energy               -77.859074696288
 Nuclear energy                        29.49012444
 One-electron energy                 -162.07668126
 Two-electron energy                   54.72748212
 Virial quotient                       -1.00504994
 !RHF STATE  1.1 Dipole moment          0.00041933     0.00020687    -0.00013778
 Dipole moment /Debye                   0.00106577     0.00052577    -0.00035018

 ELECTRON ORBITALS
 =================

  Orbital  Occupation    Energy     Coefficients
    1.1     2.00000   -11.28272     1 1s   -0.68882     2 1s   -0.71983
    2.1     2.00000   -11.28236     1 1s   -0.71992     2 1s    0.68890
    3.1     2.00000    -0.95810     1 1s    0.28623     1 1s    0.26460     2 1s    0.28597     2 1s    0.26444
    4.1     2.00000    -0.84165     1 1s   -0.25544     2 1s    0.25573
    5.1     2.00000    -0.58917     1 2py   0.30317     2 2py   0.30374
    6.1     2.00000    -0.57548     1 2py  -0.27312     2 2py   0.27296
    7.1     2.00000    -0.45480     1 2px   0.30571     2 2px  -0.30569
    8.1     2.00000    -0.32659     1 2pz   0.31341     1 2pz   0.31793     2 2pz   0.31338     2 2pz   0.31793
    9.1     0.00000     0.07351     1 1s    0.26669     1 2pz   0.35783     1 2pz   0.49909     2 1s    0.26667     2 2pz  -0.35783
                                    2 2pz  -0.49914
   10.1     0.00000     0.24604     1 1s   -1.21964     1 2px   0.57711     1 2py   0.27842     1 2pz   0.25921     2 1s   -1.21864
                                    2 2px  -0.57561     2 2py  -0.27499     2 2pz  -0.25939     3 1s    0.76146     4 1s    1.07737
                                    5 1s    1.07233     6 1s    0.76316
   11.1     0.00000     0.27486     1 1s    1.67161     1 2pz  -0.35603     2 1s   -1.67601     2 2pz  -0.35696     3 1s   -0.75281
                                    4 1s   -1.00306     5 1s    1.00599     6 1s    0.75633
   12.1     0.00000     0.29137     1 1s    0.63443     1 2px   0.47092     1 2py   0.62421     2 1s   -0.62650     2 2px   0.47451
                                    2 2py   0.62596     3 1s   -0.90127     4 1s    0.84249     5 1s   -0.84895     6 1s    0.89678
   13.1     0.00000     0.34480     1 1s   -0.94544     1 2px   0.26419     1 2py  -1.22086     2 1s   -0.94032     2 2px  -0.26739
                                    2 2py   1.22332     3 1s    1.89902     4 1s   -0.67979     5 1s   -0.68210     6 1s    1.90036
   14.1     0.00000     0.37476     1 2px  -0.27157     1 2px  -1.29013     1 2py   0.68228     1 2pz   0.30174     2 2px  -0.27135
                                    2 2px  -1.28849     2 2py   0.67799     2 2pz   0.30281     3 1s   -1.51500     6 1s    1.50616
   15.1     0.00000     0.67738     1 2py  -0.37320     1 2px  -0.83665     1 2py   0.83053     2 2py  -0.37319     2 2px  -0.83425
                                    2 2py   0.82873     3 1s   -0.43978     3 1s   -0.40037     6 1s    0.43959     6 1s    0.39661
   16.1     0.00000     0.78898     1 1s    0.66992     1 2px   0.61264     1 2px  -0.96223     2 1s    0.66831     2 2px  -0.61542
                                    2 2px   0.96681     3 1s   -0.35017     6 1s   -0.34997
   17.1     0.00000     0.80376     1 2pz   0.77956     1 2pz  -0.69076     2 2pz   0.77999     2 2pz  -0.69097
   18.1     0.00000     0.82432     1 1s    0.49976     1 2px  -0.61495     1 2px   1.15272     2 1s   -0.50318     2 2px  -0.61252
                                    2 2px   1.14902     4 1s    0.40253     5 1s   -0.40196
   19.1     0.00000     0.84664     1 1s   -0.28969     1 1s    0.33040     1 2px  -0.25034     1 2pz  -0.71172     1 2px   0.28025
                                    1 2py   0.33266     1 2pz   0.82057     2 1s   -0.28912     2 1s    0.32893     2 2pz   0.71180
                                    2 2px  -0.27773     2 2py  -0.33175     2 2pz  -0.82096
   20.1     0.00000     0.93624     1 1s    0.98216     1 2py  -0.62974     1 2px  -0.45081     1 2py   1.95105     1 2pz  -0.48543
                                    2 1s    0.97831     2 2py   0.62958     2 2px   0.45211     2 2py  -1.95040     2 2pz   0.48483
                                    3 1s   -0.32917     3 1s   -1.19374     4 1s    0.47185     5 1s    0.47077     6 1s   -0.32938
                                    6 1s   -1.19150
   21.1     0.00000     1.01378     1 1s   -0.80880     1 1s    1.16479     1 2px  -0.26525     1 2py  -0.40915     1 2pz  -0.40700
                                    2 1s   -0.80996     2 1s    1.16773     2 2px   0.26603     2 2py   0.41066     2 2pz   0.40756
                                    3 1s   -0.28002     4 1s   -0.50172     5 1s   -0.50119     6 1s   -0.28088
   22.1     0.00000     1.08856     1 1s   -0.39248     1 1s    0.68667     1 2px   0.32442     1 2py   0.48045     1 2px  -0.58511
                                    1 2py  -0.65235     2 1s    0.35141     2 1s   -0.60829     2 2px   0.31675     2 2py   0.46869
                                    2 2px  -0.56377     2 2py  -0.65795     4 1s    0.69191     4 1s   -1.33418     5 1s   -0.65762
                                    5 1s    1.28072
   23.1     0.00000     1.09687     1 1s   -0.76994     1 1s    1.47066     1 2px  -0.39687     2 1s   -0.78797     2 1s    1.50006
                                    2 2py  -0.25929     2 2px   0.42760     3 1s   -0.37618     4 1s    0.64504     4 1s   -1.01530
                                    5 1s    0.68050     5 1s   -1.08322     6 1s   -0.37151
   24.1     0.00000     1.24456     1 1s   -1.04808     1 1s    2.67175     1 2px  -0.27732     1 2py   0.36292     1 2px   1.11985
                                    1 2py  -0.71417     1 2pz  -0.50392     2 1s    1.04359     2 1s   -2.66559     2 2px  -0.27816
                                    2 2py   0.36442     2 2px   1.12109     2 2py  -0.71497     2 2pz  -0.50318     3 1s   -0.43954
                                    3 1s    0.37618     4 1s   -0.30782     4 1s   -0.29179     5 1s    0.30606     5 1s    0.29279
                                    6 1s    0.44380     6 1s   -0.38254
   25.1     0.00000     1.30555     1 1s   -0.78095     1 1s    1.24485     1 2py  -0.37237     1 2px  -0.35427     1 2py   0.38551
                                    2 1s   -0.90862     2 1s    1.52264     2 2px  -0.25324     2 2py   0.41094     2 2px   0.36059
                                    2 2py  -0.42919     3 1s    0.69342     3 1s   -1.18613     6 1s    0.74713     6 1s   -1.33764
   26.1     0.00000     1.31457     1 1s   -1.20103     1 1s    2.56742     1 2px   0.29130     1 2py  -0.40657     1 2py   0.47567
                                    1 2pz  -0.35492     2 1s    1.11222     2 1s   -2.42119     2 2px   0.26559     2 2py  -0.36512
                                    2 2py   0.43241     2 2pz  -0.33657     3 1s    0.57180     3 1s   -1.52943     6 1s   -0.49546
                                    6 1s    1.39521
   27.1     0.00000     1.76816     1 1s    0.39119     1 3d1+  0.41346     1 3d2+  0.39598     1 3d1- -0.26735     2 1s   -0.39119
                                    2 3d1+ -0.41326     2 3d2+ -0.39595     2 3d1-  0.26788
   28.1     0.00000     1.91591     1 3d2- -0.25200     1 3d1+  0.33393     1 3d1-  0.54548     2 3d2-  0.25204     2 3d1+ -0.33476
                                    2 3d1- -0.54495
   29.1     0.00000     1.93916     1 1s    0.35237     1 3d0   0.34094     1 3d1+  0.39333     1 3d2+ -0.31001     2 1s    0.35246
                                    2 3d0   0.34118     2 3d1+  0.39270     2 3d2+ -0.30997
   30.1     0.00000     2.07439     1 1s   -0.53078     1 2px   0.25209     1 2py  -0.42657     1 3d1+  0.34583     1 3d2+  0.29637
                                    1 3d1-  0.49113     2 1s   -0.52967     2 2px  -0.25159     2 2py   0.42671     2 3d1+  0.34608
                                    2 3d2+  0.29632     2 3d1-  0.49107     3 1s    0.40660     6 1s    0.40572
   31.1     0.00000     2.22933     1 2py   0.55415     1 3d0   0.26131     1 3d2+  0.49368     1 3d1- -0.45698     2 2py  -0.55308
                                    2 3d0   0.25758     2 3d2+  0.49176     2 3d1- -0.45637     4 1s    0.43730     5 1s    0.43480
   32.1     0.00000     2.31365     1 1s    0.35348     1 1s   -1.10620     1 3d0   0.64289     1 3d2+  0.25684     2 1s   -0.35397
                                    2 1s    1.10840     2 3d0  -0.63757     2 3d2+ -0.26361     4 1s    0.45555     5 1s   -0.45589
   33.1     0.00000     2.33478     1 3d0   0.48485     1 3d2- -0.31336     1 3d1+ -0.42289     2 3d0   0.49486     2 3d2- -0.31517
                                    2 3d1+ -0.42169
   34.1     0.00000     2.55151     1 2py   0.29293     1 3d2- -0.63236     1 3d1- -0.37471     2 2py   0.29491     2 3d2-  0.63582
                                    2 3d1-  0.37531     3 1s   -0.74837     6 1s    0.75020
   35.1     0.00000     2.76409     1 1s   -0.32750     1 2py  -0.36704     1 3d0   0.29988     1 3d2-  0.71427     2 1s   -0.33254
                                    2 2py   0.36499     2 3d0   0.29954     2 3d2-  0.71276     3 1s    0.76673     6 1s    0.76200
   36.1     0.00000     2.78793     1 1s    0.30193     1 1s   -1.37455     1 2px  -0.82125     1 2pz   0.34044     1 3d0   0.25302
                                    1 3d2-  0.30754     1 3d1+  0.53324     1 3d2+ -0.60271     2 1s   -0.30240     2 1s    1.37312
                                    2 2px  -0.82218     2 2pz   0.34018     2 3d0  -0.25138     2 3d2- -0.30434     2 3d1+ -0.53444
                                    2 3d2+  0.60374


 HOMO      8.1    -0.326587 =      -8.8869eV
 LUMO      9.1     0.073510 =       2.0003eV
 LUMO-HOMO         0.400097 =      10.8872eV


 **********************************************************************************************************************************
 DATASETS  * FILE   NREC   LENGTH (MB)   RECORD NAMES
              1      19       31.10       500      610      700      900      950      970     1000      129      960     1100   
                                          VAR    BASINP    GEOM    SYMINP    ZMAT    AOBASIS   BASIS     P2S    ABASIS      S 
                                         1400     1410     1200     1210     1080     1600     1650     1300     1700   
                                           T        V       H0       H01     AOSYM     SMH    MOLCAS    ERIS     OPER   

              2       4        2.86       700     1000      520     2100   
                                         GEOM     BASIS   MCVARS     RHF  

 PROGRAMS   *        TOTAL    HF-SCF       INT
 CPU TIMES  *         0.36      0.10      0.16
 REAL TIME  *         0.64 SEC
 DISK USED  *        35.97 MB
 **********************************************************************************************************************************


 PROGRAM * MULTI (Direct Multiconfiguration SCF)       Authors: P.J. Knowles, H.-J. Werner (1984)


 Number of closed-shell orbitals:   7 (   7 )
 Number of active  orbitals:        2 (   2 )
 Number of external orbitals:      27 (  27 )

 State symmetry 1

 Number of electrons:     2    Spin symmetry=Singlet   Space symmetry=1
 Number of states:        3
 Number of CSFs:          3   (4 determinants, 4 intermediate states)

 Molecular orbitals read from record     2100.2  Type=RHF/CANONICAL (state 1.1)

 Wavefunction dump at record             2140.2

 Convergence thresholds  0.10E-01 (gradient)  0.10E-05 (energy)  0.10E-02 (step length)

 Weight factors for state symmetry  1:    0.33333   0.33333   0.33333

 Number of orbital rotations:      257   (    14 Core/Active    189 Core/Virtual   0 Active/Active     54 Active/Virtual)
 Total number of variables:        269

 Micro-Iterations solved by the two-step solver

 ITER. MIC  NCI  NEG     ENERGY(VAR)     ENERGY(PROJ)   ENERGY CHANGE     GRAD(0)  GRAD(ORB)   GRAD(CI)     STEP       TIME

   1   13    6    0     -77.66952617     -77.67596056   -0.00643439    0.09050819 0.00116212 0.00000000  0.15D+00      0.33
   2   12    7    0     -77.67577536     -77.67591694   -0.00014159    0.01377155 0.00000144 0.00000000  0.53D-01      0.48
   3   14    7    0     -77.67593131     -77.67594331   -0.00001200    0.00200772 0.00001560 0.00000000  0.15D-01      0.64
   4    8    6    0     -77.67594342     -77.67594342   -0.00000000    0.00009734 0.00000000 0.00000000  0.13D-03      0.75
   5    5    3    0     -77.67594342     -77.67594342   -0.00000000    0.00000001 0.00000000 0.00000000  0.13D-06      0.82

 ** WVFN ****  CONVERGENCE REACHED, FINAL GRADIENT:  0.17D-12



 Results for state 1.1
 =====================

 !MCSCF STATE  1.1 Energy             -77.883419385486
 Nuclear energy                        29.49012444
 Kinetic energy                        77.52672212
 One electron energy                 -162.00994361
 Two electron energy                   54.63639978
 Virial ratio                           2.00460096

 !MCSCF STATE  1.1 Dipole moment       -0.05985984    -0.00276059     0.02106674
 Dipole moment /Debye                  -0.15213857    -0.00701627     0.05354281

 Results for state 2.1
 =====================

 !MCSCF STATE  2.1 Energy             -77.618918019841
 Nuclear energy                        29.49012444
 Kinetic energy                        77.67716773
 One electron energy                 -161.89529108
 Two electron energy                   54.78624862
 Virial ratio                           1.99925011

 !MCSCF STATE  2.1 Dipole moment        0.10758072    -0.02879459    -0.01507156
 Dipole moment /Debye                   0.27342500    -0.07318374    -0.03830556

 Results for state 3.1
 =====================

 !MCSCF STATE  3.1 Energy             -77.525492865436
 Nuclear energy                        29.49012444
 Kinetic energy                        77.83488502
 One electron energy                 -161.79879035
 Two electron energy                   54.78317305
 Virial ratio                           1.99602502

 !MCSCF STATE  3.1 Dipole moment       -0.07024872     0.01632321     0.17903450
 Dipole moment /Debye                  -0.17854274     0.04148676     0.45503051

 State-averaged charge density matrix saved on record  2140.2 (density set 1)

 !MCSCF expec         <1.1|DMX|1.1>    -0.059859839661 au =    -0.152138571284 Debye
 !MCSCF trans         <2.1|DMX|1.1>     1.151125744237 au =     2.925678169039 Debye
 !MCSCF expec         <2.1|DMX|2.1>     0.107580717935 au =     0.273425001090 Debye
 !MCSCF trans         <3.1|DMX|1.1>    -0.066589949855 au =    -0.169243684753 Debye
 !MCSCF trans         <3.1|DMX|2.1>     2.211529888316 au =     5.620780133547 Debye
 !MCSCF expec         <3.1|DMX|3.1>    -0.070248719013 au =    -0.178542739269 Debye

 !MCSCF expec         <1.1|DMY|1.1>    -0.002760592161 au =    -0.007016265826 Debye
 !MCSCF trans         <2.1|DMY|1.1>    -0.237430676268 au =    -0.603449058189 Debye
 !MCSCF expec         <2.1|DMY|2.1>    -0.028794585830 au =    -0.073183743454 Debye
 !MCSCF trans         <3.1|DMY|1.1>     0.007797608107 au =     0.019818244812 Debye
 !MCSCF trans         <3.1|DMY|2.1>    -0.455632640923 au =    -1.158026807518 Debye
 !MCSCF expec         <3.1|DMY|3.1>     0.016323214722 au =     0.041486756073 Debye

 !MCSCF expec         <1.1|DMZ|1.1>     0.021066742313 au =     0.053542810929 Debye
 !MCSCF trans         <2.1|DMZ|1.1>    -0.769517221787 au =    -1.955789580550 Debye
 !MCSCF expec         <2.1|DMZ|2.1>    -0.015071555030 au =    -0.038305562834 Debye
 !MCSCF trans         <3.1|DMZ|1.1>    -0.008413246662 au =    -0.021382939450 Debye
 !MCSCF trans         <3.1|DMZ|2.1>    -1.473783321684 au =    -3.745738214726 Debye
 !MCSCF expec         <3.1|DMZ|3.1>     0.179034502747 au =     0.455030511492 Debye


 NATURAL ORBITALS (state averaged)
 =================================

  Orbital  Occupation    Energy     Coefficients
    1.1     2.00000   -11.28265     1 1s   -0.99608
    2.1     2.00000   -11.27694     2 1s   -0.99610
    3.1     2.00000    -0.95725     1 1s    0.29010     1 1s    0.26446     2 1s    0.28870     2 1s    0.26794
    4.1     2.00000    -0.84206     1 1s   -0.25749     1 1s   -0.26555     2 1s    0.25702     2 1s    0.27027
    5.1     2.00000    -0.59279     1 2py   0.33753     2 2py   0.26427
    6.1     2.00000    -0.57622     2 2py   0.31456
    7.1     2.00000    -0.45113     1 2px   0.27059     2 2px  -0.32878
    8.1     1.00000    -0.20261     1 2pz   0.27981     1 2pz   0.30909     2 2pz   0.27787     2 2pz   0.29492
    9.1     1.00000    -0.05602     1 2pz   0.41334     1 2pz   0.50228     2 1s    0.27841     2 2pz  -0.35585     2 2pz  -0.44313
   10.1    -0.00000     0.24381     1 1s   -1.19493     1 2px   0.60177     1 2py   0.30886     2 1s   -1.22621     2 2px  -0.55628
                                    2 2py  -0.27032     2 2pz  -0.25969     3 1s    0.72040     4 1s    1.11450     5 1s    1.05106
                                    6 1s    0.76117
   11.1    -0.00000     0.26966     1 1s    1.72548     1 2pz  -0.37376     2 1s   -1.71010     2 2pz  -0.42115     3 1s   -0.77177
                                    4 1s   -0.90809     5 1s    0.89877     6 1s    0.77535
   12.1    -0.00000     0.28449     1 1s    0.49937     1 2px   0.44931     1 2py   0.65620     2 1s   -0.32870     2 2px   0.50887
                                    2 2py   0.61319     3 1s   -0.84218     4 1s    0.92829     5 1s   -0.97688     6 1s    0.68206
   13.1    -0.00000     0.34451     1 1s   -0.96113     1 2px   0.30851     1 2py  -1.21357     2 1s   -0.96387     2 2py   1.22355
                                    3 1s    1.91825     4 1s   -0.63895     5 1s   -0.69491     6 1s    1.90157
   14.1    -0.00000     0.36909     1 2px  -0.25930     1 2px  -1.23983     1 2py   0.67100     2 2px  -0.27093     2 2px  -1.25471
                                    2 2py   0.70185     2 2pz   0.30763     3 1s   -1.54469     6 1s    1.60933
   15.1    -0.00000     0.67404     1 2py  -0.38550     1 2px  -0.83050     1 2py   0.84417     2 2py  -0.37175     2 2px  -0.81486
                                    2 2py   0.81188     3 1s   -0.44158     3 1s   -0.39059     6 1s    0.43605     6 1s    0.38020
   16.1    -0.00000     0.78577     1 1s    0.51729     1 2px   0.65799     1 2pz  -0.31834     1 2px  -1.06041     2 1s    0.68034
                                    2 2px  -0.55741     2 2px   0.81511     3 1s   -0.32890     6 1s   -0.30401
   17.1    -0.00000     0.79884     1 2pz   0.80457     1 2pz  -0.75305     2 2pz   0.74069     2 2px   0.25859     2 2pz  -0.61860
   18.1    -0.00000     0.81893     1 1s    0.61224     1 2px  -0.53789     1 2px   1.06362     1 2pz  -0.26785     2 1s   -0.48280
                                    2 2px  -0.67170     2 2px   1.27783     4 1s    0.38556     5 1s   -0.42034
   19.1    -0.00000     0.84119     1 1s   -0.28630     1 1s    0.37082     1 2px  -0.26941     1 2pz  -0.62826     1 2px   0.34041
                                    1 2py   0.29082     1 2pz   0.76806     2 1s   -0.25983     2 2pz   0.78557     2 2py  -0.30653
                                    2 2pz  -0.91715
   20.1    -0.00000     0.93486     1 1s    0.95341     1 2py  -0.64008     1 2px  -0.44219     1 2py   1.96069     1 2pz  -0.46060
                                    2 1s    0.99150     2 2py   0.63139     2 2px   0.44711     2 2py  -1.95340     2 2pz   0.47711
                                    3 1s   -0.32141     3 1s   -1.19469     4 1s    0.50277     5 1s    0.46513     6 1s   -0.33174
                                    6 1s   -1.19229
   21.1    -0.00000     1.00841     1 1s   -0.82121     1 1s    1.21401     1 2py  -0.39343     1 2pz  -0.41197     2 1s   -0.83654
                                    2 1s    1.22273     2 2py  -0.25232     2 2py   0.41443     2 2pz   0.39845     3 1s   -0.28967
                                    4 1s   -0.51585     5 1s   -0.48150     6 1s   -0.27695
   22.1    -0.00000     1.08465     1 1s   -0.54230     1 1s    0.97363     1 2px   0.34959     1 2py   0.52196     1 2px  -0.68093
                                    1 2py  -0.60787     2 2px   0.27849     2 2py   0.40522     2 2px  -0.46143     2 2py  -0.67256
                                    4 1s    0.80679     4 1s   -1.51990     5 1s   -0.49572     5 1s    1.01207
   23.1    -0.00000     1.09455     1 1s   -0.64522     1 1s    1.26434     1 2px  -0.26731     2 1s   -0.83391     2 1s    1.58861
                                    2 2py  -0.34899     2 2px   0.54566     3 1s   -0.37700     4 1s    0.47929     4 1s   -0.68730
                                    5 1s    0.81730     5 1s   -1.33335     6 1s   -0.34938
   24.1    -0.00000     1.23364     1 1s   -1.08588     1 1s    2.76068     1 2px  -0.25568     1 2py   0.34650     1 2px   1.10563
                                    1 2py  -0.69018     1 2pz  -0.51439     2 1s    1.10420     2 1s   -2.78248     2 2px  -0.26399
                                    2 2py   0.34751     2 2px   1.10948     2 2py  -0.69906     2 2pz  -0.50009     3 1s   -0.41972
                                    3 1s    0.31598     4 1s   -0.30775     4 1s   -0.30015     5 1s    0.31055     5 1s    0.30486
                                    6 1s    0.41586     6 1s   -0.31167
   25.1    -0.00000     1.30533     1 1s   -0.93694     1 1s    1.58332     1 2px   0.26874     1 2py  -0.41045     1 2px  -0.37944
                                    1 2py   0.43558     2 1s   -0.75693     2 1s    1.19572     2 2py   0.36359     2 2px   0.34621
                                    2 2py  -0.37636     3 1s    0.75568     3 1s   -1.37231     6 1s    0.67928     6 1s   -1.15005
   26.1    -0.00000     1.31376     1 1s   -1.05345     1 1s    2.28013     1 2px   0.28061     1 2py  -0.35975     1 2py   0.44485
                                    1 2pz  -0.31102     2 1s    1.17109     2 1s   -2.46941     2 2px   0.31350     2 2py  -0.42550
                                    2 2py   0.51187     2 2pz  -0.32478     3 1s    0.49284     3 1s   -1.38374     6 1s   -0.60431
                                    6 1s    1.56868
   27.1    -0.00000     1.76148     1 1s    0.38144     1 3d1+  0.41824     1 3d2+  0.40330     1 3d1- -0.26623     2 1s   -0.39388
                                    2 3d1+ -0.40726     2 3d2+ -0.39162     2 3d1-  0.26936
   28.1    -0.00000     1.90894     1 3d2- -0.25001     1 3d1+  0.34229     1 3d1-  0.54912     2 3d1+ -0.32602     2 3d1- -0.54290
   29.1    -0.00000     1.93150     1 1s    0.34779     1 3d0   0.34245     1 3d1+  0.39289     1 3d2+ -0.31273     2 1s    0.34401
                                    2 2px  -0.25307     2 3d0   0.33556     2 3d1+  0.39594     2 3d2+ -0.31055
   30.1    -0.00000     2.07026     1 1s   -0.54453     1 2px   0.25369     1 2py  -0.42084     1 3d1+  0.34310     1 3d2+  0.30110
                                    1 3d1-  0.48252     2 1s   -0.51074     2 2px  -0.25527     2 2py   0.42414     2 3d1+  0.35667
                                    2 3d2+  0.30218     2 3d1-  0.49076     3 1s    0.40687     6 1s    0.40339
   31.1    -0.00000     2.22389     1 2py   0.56290     1 3d0   0.27441     1 3d2+  0.50129     1 3d1- -0.46731     2 2py  -0.54967
                                    2 3d2+  0.48312     2 3d1- -0.45954     4 1s    0.44918     5 1s    0.41170
   32.1    -0.00000     2.30754     1 1s    0.35318     1 1s   -1.10111     1 3d0   0.62871     2 1s   -0.35920     2 1s    1.12533
                                    2 3d0  -0.65014     2 3d2+ -0.28126     4 1s    0.44052     5 1s   -0.47346
   33.1    -0.00000     2.32558     1 3d0   0.49100     1 3d2- -0.32098     1 3d1+ -0.41135     2 3d0   0.50338     2 3d2- -0.31146
                                    2 3d1+ -0.42511
   34.1    -0.00000     2.54469     1 2px  -0.25040     1 2py   0.29302     1 3d2- -0.64185     1 3d1- -0.37486     2 2py   0.28959
                                    2 3d2-  0.62565     2 3d1-  0.37142     3 1s   -0.76705     6 1s    0.73848
   35.1    -0.00000     2.75835     1 1s   -0.45029     1 2py  -0.33943     1 3d0   0.31903     1 3d2-  0.72559     2 2px  -0.25774
                                    2 2py   0.38640     2 3d0   0.27797     2 3d2-  0.69602     2 3d1+ -0.27923     3 1s    0.75755
                                    6 1s    0.77011
   36.1    -0.00000     2.78217     1 1s    0.30758     1 1s   -1.34341     1 2px  -0.83633     1 2pz   0.33717     1 3d1+  0.55365
                                    1 3d2+ -0.61354     2 1s   -0.29875     2 1s    1.40145     2 2px  -0.80686     2 2pz   0.34413
                                    2 3d0  -0.27846     2 3d2- -0.36504     2 3d1+ -0.51121     2 3d2+  0.58865


 Natural orbital dump (state averaged) at molpro section  2140.2    (Orbital set 2)



 **********************************************************************************************************************************
 DATASETS  * FILE   NREC   LENGTH (MB)   RECORD NAMES
              1      20       31.83       500      610      700      900      950      970     1000      129      960     1100   
                                          VAR    BASINP    GEOM    SYMINP    ZMAT    AOBASIS   BASIS     P2S    ABASIS      S 
                                         1400     1410     1200     1210     1080     1600     1650     1300     1700     1380   
                                           T        V       H0       H01     AOSYM     SMH    MOLCAS    ERIS     OPER     JKOP   

              2       5        5.42       700     1000      520     2100     2140   
                                         GEOM     BASIS   MCVARS     RHF     MCSCF   

 PROGRAMS   *        TOTAL     MULTI    HF-SCF       INT
 CPU TIMES  *         1.23      0.87      0.10      0.16
 REAL TIME  *         1.62 SEC
 DISK USED  *        39.01 MB
 **********************************************************************************************************************************
 Molecular orbitals read from record     2140.2  Type=MCSCF/NATURAL (state averaged)
 Occupation numbers read from record     2140.2  Type=MCSCF/NATURAL (state averaged)
 Orbital energies read from record       2140.2  Type=MCSCF/NATURAL (state averaged)
 Redundancy group numbers read from rec  2140.2  Type=MCSCF/NATURAL (state averaged)

 MULTI/6-31G* energy=    -77.525492865436

           MULTI          HF-SCF
    -77.52549287    -77.85907470
 **********************************************************************************************************************************
 Molpro calculation terminated
