
 Primary working directories    : /scratch.local/johan406.molpro_temp/molpro.WIZ6Y2EwFc
 Secondary working directories  : /scratch.local/johan406.molpro_temp/molpro.WIZ6Y2EwFc
 Wavefunction directory         : /home/goodpast/johan406/wfu/
 Main file repository           : /scratch.local/johan406.molpro_temp/molpro.WIZ6Y2EwFc/

 id        : roweumn

 Nodes     nprocs
 acn06        1

 Using customized tuning parameters: mindgm=1; mindgv=20; mindgc=4; mindgr=1; noblas=0; minvec=7
 default implementation of scratch files=df  


 Variables initialized (934), CPU time= 0.00 sec
                                                                                 !leave this line blank
 
 gprint, orbitals=30
 memory, 125., m
 symmetry, nosym
 nelect=16
 basis=6-31g*
 
 geometry={
 C -0.778 0.132 0.295
 C 0.787 -0.182 -0.355
 H -1.310 0.933 0.098
 H -1.407 -0.903 0.134
 H 1.416 0.853 -0.194
 H 1.319 -0.983 -0.158
 }
 
 hf
 {multi,
 closed 7
 occ 9
 wf,spin=0;STATE,3
 }
 
 Commands  initialized (763), CPU time= 0.01 sec, 617 directives.
 Default parameters read. Elapsed time= 0.07 sec

 Checking input...
 Passed
1


                                         ***  PROGRAM SYSTEM MOLPRO  ***
                                       Copyright, TTI GmbH Stuttgart, 2015
                                    Version 2019.2 linked Oct 25 2019 22:50:27


 **********************************************************************************************************************************
 LABEL *                                                                                 
  64 bit serial version                                                                  DATE: 15-Mar-23          TIME: 16:19:56  
 **********************************************************************************************************************************

 SHA1:             8dbd9ae1082e4ce945b0f27595c9eb2d4aa09004
 **********************************************************************************************************************************


 Variable memory set to  125000000 words,  buffer space 

 SETTING NELECT         =        16.00000000                                  
 SETTING BASIS          =    6-31G*
 ZSYMEL=NOSYM


Geometry recognized as XYZ



 Recomputing integrals since basis changed


 Using spherical harmonics

 Library entry C      S 6-31G                selected for orbital group  1
 Library entry C      P 6-31G                selected for orbital group  1
 Library entry C      D 6-31G*               selected for orbital group  1
 Library entry H      S 6-31G                selected for orbital group  2


 PROGRAM * SEWARD (Integral evaluation for generally contracted gaussian basis sets)     Author: Roland Lindh, 1990

 Geometry written to block  1 of record 700


 Point group  C1  



 ATOMIC COORDINATES

 NR  ATOM    CHARGE       X              Y              Z

   1  C       6.00   -1.470206925    0.249443848    0.557469207
   2  C       6.00    1.487214460   -0.343930155   -0.670852774
   3  H       1.00   -2.475541223    1.763114474    0.185193160
   4  H       1.00   -2.658844657   -1.706422690    0.253223301
   5  H       1.00    2.675852192    1.611936384   -0.366606868
   6  H       1.00    2.492548758   -1.857600780   -0.298576728

 Bond lengths in Bohr (Angstrom)

 1-2  3.256871021  1-3  1.854854514  1-4  2.308861007  2-5  2.308861007  2-6  1.854854514
     ( 1.723461923)     ( 0.981546739)     ( 1.221796628)     ( 1.221796628)     ( 0.981546739)

 Bond angles

  1-2-5  105.27467654   1-2-6  124.41284118   2-1-3  124.41284118   2-1-4  105.27467654

  3-1-4  112.69440638   5-2-6  112.69440638

 NUCLEAR CHARGE:                   16
 NUMBER OF PRIMITIVE AOS:          72
 NUMBER OF SYMMETRY AOS:           70
 NUMBER OF CONTRACTIONS:           36   (   36A   )
 NUMBER OF CORE ORBITALS:           2   (    2A   )
 NUMBER OF VALENCE ORBITALS:       12   (   12A   )


 NUCLEAR REPULSION ENERGY   29.31880056

 Eigenvalues of metric

         1 0.197E-01 0.245E-01 0.486E-01 0.619E-01 0.935E-01 0.220E+00 0.267E+00 0.268E+00


 Contracted 2-electron integrals neglected if value below      1.0D-11
 AO integral compression algorithm  1   Integral accuracy      1.0D-11

     1.311 MB (compressed) written to integral file ( 66.8%)


 NUMBER OF SORTED TWO-ELECTRON INTEGRALS:     222111.     BUFFER LENGTH:  32768
 NUMBER OF SEGMENTS:   1  SEGMENT LENGTH:     222111      RECORD LENGTH: 524288

 Memory used in sort:       0.78 MW

 SORT1 READ      284735. AND WROTE      212485. INTEGRALS IN      1 RECORDS. CPU TIME:     0.00 SEC, REAL TIME:     0.00 SEC
 SORT2 READ      212485. AND WROTE      222111. INTEGRALS IN      5 RECORDS. CPU TIME:     0.02 SEC, REAL TIME:     0.02 SEC

 FILE SIZES:   FILE 1:    31.4 MBYTE,  FILE 4:     4.2 MBYTE,   TOTAL:     35.6 MBYTE

 OPERATOR DM      FOR CENTER  0  COORDINATES:    0.000000    0.000000    0.000000


 **********************************************************************************************************************************
 DATASETS  * FILE   NREC   LENGTH (MB)   RECORD NAMES
              1      19       31.10       500      610      700      900      950      970     1000      129      960     1100   
                                          VAR    BASINP    GEOM    SYMINP    ZMAT    AOBASIS   BASIS     P2S    ABASIS      S 
                                         1400     1410     1200     1210     1080     1600     1650     1300     1700   
                                           T        V       H0       H01     AOSYM     SMH    MOLCAS    ERIS     OPER   

 PROGRAMS   *        TOTAL       INT
 CPU TIMES  *         0.26      0.17
 REAL TIME  *         0.42 SEC
 DISK USED  *        35.97 MB
 **********************************************************************************************************************************


 PROGRAM * RHF-SCF (CLOSED SHELL)       Authors: W. Meyer, H.-J. Werner


 NUMBER OF ELECTRONS:       8+    8-    SPACE SYMMETRY=1    SPIN SYMMETRY: Singlet 
 CONVERGENCE THRESHOLDS:    1.00E-05 (Density)    1.00E-07 (Energy)
 MAX. NUMBER OF ITERATIONS:       60
 INTERPOLATION TYPE:            DIIS
 INTERPOLATION STEPS:              2 (START)      1 (STEP)
 LEVEL SHIFTS:                  0.00 (CLOSED)  0.00 (OPEN) 



 Orbital guess generated from atomic densities. Full valence occupancy:    8

 Molecular orbital dump at record        2100.2

 Initial occupancy:   8

 ITERATION    DDIFF          GRAD             ENERGY        2-EL.EN.            DIPOLE MOMENTS         DIIS   ORB.
    1      0.000D+00      0.000D+00       -77.83517987    109.478190    0.00000    0.00000   -0.00000    0    start
    2      0.000D+00      0.674D-02       -77.85530946    108.967965   -0.00000   -0.00000   -0.00000    1    diag
    3      0.716D-02      0.225D-02       -77.85861746    109.217153    0.00000   -0.00000   -0.00000    2    diag
    4      0.350D-02      0.867D-03       -77.85934396    109.113379    0.00000   -0.00000    0.00000    3    diag
    5      0.158D-02      0.493D-03       -77.85980880    109.129693    0.00000    0.00000    0.00000    4    diag
    6      0.195D-02      0.142D-03       -77.85984677    109.127790    0.00000   -0.00000   -0.00000    5    diag
    7      0.554D-03      0.270D-04       -77.85984787    109.128538    0.00000    0.00000    0.00000    6    diag
    8      0.731D-04      0.758D-05       -77.85984794    109.128580    0.00000   -0.00000   -0.00000    7    diag
    9      0.213D-04      0.178D-05       -77.85984795    109.128587   -0.00000    0.00000    0.00000    8    diag
   10      0.422D-05      0.359D-06       -77.85984795    109.128582    0.00000   -0.00000   -0.00000    0    orth

 Final occupancy:   8

 !RHF STATE  1.1 Energy               -77.859847948174
 Nuclear energy                        29.31880056
 One-electron energy                 -161.74293930
 Two-electron energy                   54.56429080
 Virial quotient                       -1.00552881
 !RHF STATE  1.1 Dipole moment          0.00000000    -0.00000000    -0.00000000
 Dipole moment /Debye                   0.00000000    -0.00000000    -0.00000000

 ELECTRON ORBITALS
 =================

  Orbital  Occupation    Energy     Coefficients
    1.1     2.00000   -11.28435     1 1s    0.70450     2 1s    0.70450
    2.1     2.00000   -11.28400     1 1s    0.70458     2 1s   -0.70458
    3.1     2.00000    -0.95485     1 1s    0.28591     1 1s    0.26583     2 1s    0.28591     2 1s    0.26583
    4.1     2.00000    -0.84092     1 1s    0.25609     2 1s   -0.25609
    5.1     2.00000    -0.58824     1 2py   0.30370     2 2py   0.30370
    6.1     2.00000    -0.57148     1 2py  -0.27654     2 2py   0.27654
    7.1     2.00000    -0.45939     1 2px   0.30857     2 2px  -0.30857
    8.1     2.00000    -0.32395     1 2pz   0.31338     1 2pz   0.31914     2 2pz   0.31338     2 2pz   0.31914
    9.1     0.00000     0.07368     1 1s    0.25941     1 2pz   0.35845     1 2pz   0.49988     2 1s    0.25941     2 2pz  -0.35845
                                    2 2pz  -0.49988
   10.1     0.00000     0.24729     1 1s   -1.23232     1 2px   0.58476     1 2py   0.25638     1 2pz   0.25021     2 1s   -1.23232
                                    2 2px  -0.58476     2 2py  -0.25638     2 2pz  -0.25021     3 1s    0.78132     4 1s    1.07424
                                    5 1s    1.07424     6 1s    0.78132
   11.1     0.00000     0.27006     1 1s   -1.62026     1 2py   0.26234     1 2pz   0.33873     2 1s    1.62026     2 2py   0.26234
                                    2 2pz   0.33873     3 1s    0.69146     4 1s    1.01331     5 1s   -1.01331     6 1s   -0.69146
   12.1     0.00000     0.29159     1 1s    0.67349     1 2px   0.48405     1 2py   0.61618     1 2pz  -0.25714     2 1s   -0.67349
                                    2 2px   0.48405     2 2py   0.61618     2 2pz  -0.25714     3 1s   -0.91903     4 1s    0.81229
                                    5 1s   -0.81229     6 1s    0.91903
   13.1     0.00000     0.34545     1 1s   -0.90280     1 2py  -1.22734     2 1s   -0.90280     2 2py   1.22734     3 1s    1.87291
                                    4 1s   -0.70873     5 1s   -0.70873     6 1s    1.87291
   14.1     0.00000     0.37201     1 2px   0.27416     1 2px   1.26376     1 2py  -0.66375     1 2pz  -0.28782     2 2px   0.27416
                                    2 2px   1.26376     2 2py  -0.66375     2 2pz  -0.28782     3 1s    1.50708     6 1s   -1.50708
   15.1     0.00000     0.67724     1 2py  -0.38143     1 2px  -0.79263     1 2py   0.82313     2 2py  -0.38143     2 2px  -0.79263
                                    2 2py   0.82313     3 1s   -0.43678     3 1s   -0.37468     6 1s    0.43678     6 1s    0.37468
   16.1     0.00000     0.79467     1 1s   -0.71620     1 2px  -0.61630     1 2px   0.97295     2 1s   -0.71620     2 2px   0.61630
                                    2 2px  -0.97295     3 1s    0.36580     6 1s    0.36580
   17.1     0.00000     0.80367     1 2pz   0.78061     1 2pz  -0.69006     2 2pz   0.78061     2 2pz  -0.69006
   18.1     0.00000     0.81588     1 1s    0.48447     1 2px  -0.61132     1 2px   1.17715     2 1s   -0.48447     2 2px  -0.61132
                                    2 2px   1.17715     4 1s    0.40698     5 1s   -0.40698
   19.1     0.00000     0.84695     1 1s   -0.28726     1 1s    0.29315     1 2px  -0.27221     1 2pz  -0.70720     1 2px   0.31545
                                    1 2py   0.28776     1 2pz   0.82337     2 1s   -0.28726     2 1s    0.29315     2 2px   0.27221
                                    2 2pz   0.70720     2 2px  -0.31545     2 2py  -0.28776     2 2pz  -0.82337
   20.1     0.00000     0.93982     1 1s    1.02418     1 2py  -0.61645     1 2px  -0.39062     1 2py   1.93024     1 2pz  -0.48889
                                    2 1s    1.02418     2 2py   0.61645     2 2px   0.39062     2 2py  -1.93024     2 2pz   0.48889
                                    3 1s   -0.34668     3 1s   -1.18327     4 1s    0.49721     5 1s    0.49721     6 1s   -0.34668
                                    6 1s   -1.18327
   21.1     0.00000     1.01079     1 1s   -0.79204     1 1s    1.07373     1 2px  -0.25384     1 2py   0.31146     1 2py  -0.60767
                                    1 2pz  -0.36147     2 1s   -0.79204     2 1s    1.07373     2 2px   0.25384     2 2py  -0.31146
                                    2 2py   0.60767     2 2pz   0.36147     3 1s   -0.25007     4 1s   -0.49138     5 1s   -0.49138
                                    6 1s   -0.25007
   22.1     0.00000     1.08827     1 1s   -0.36516     1 1s    0.62641     1 2px   0.33419     1 2py   0.46549     1 2px  -0.59297
                                    1 2py  -0.63825     2 1s    0.36516     2 1s   -0.62641     2 2px   0.33419     2 2py   0.46549
                                    2 2px  -0.59297     2 2py  -0.63825     4 1s    0.67634     4 1s   -1.29735     5 1s   -0.67634
                                    5 1s    1.29735
   23.1     0.00000     1.09559     1 1s   -0.77189     1 1s    1.45756     1 2px  -0.39497     2 1s   -0.77189     2 1s    1.45756
                                    2 2px   0.39497     3 1s   -0.36434     4 1s    0.66941     4 1s   -1.03498     5 1s    0.66941
                                    5 1s   -1.03498     6 1s   -0.36434
   24.1     0.00000     1.23875     1 1s    1.05435     1 1s   -2.63427     1 2px   0.27666     1 2py  -0.36097     1 2px  -1.08276
                                    1 2py   0.67725     1 2pz   0.48441     2 1s   -1.05435     2 1s    2.63427     2 2px   0.27666
                                    2 2py  -0.36097     2 2px  -1.08276     2 2py   0.67725     2 2pz   0.48441     3 1s    0.44421
                                    3 1s   -0.35589     4 1s    0.29037     4 1s    0.29180     5 1s   -0.29037     5 1s   -0.29180
                                    6 1s   -0.44421     6 1s    0.35589
   25.1     0.00000     1.29940     1 1s   -0.84645     1 1s    1.38522     1 2py  -0.38988     1 2px  -0.35554     1 2py   0.40104
                                    2 1s   -0.84645     2 1s    1.38522     2 2py   0.38988     2 2px   0.35554     2 2py  -0.40104
                                    3 1s    0.72003     3 1s   -1.25629     6 1s    0.72003     6 1s   -1.25629
   26.1     0.00000     1.31030     1 1s   -1.15043     1 1s    2.45913     1 2px   0.27117     1 2py  -0.39500     1 2py   0.47668
                                    1 2pz  -0.33071     2 1s    1.15043     2 1s   -2.45913     2 2px   0.27117     2 2py  -0.39500
                                    2 2py   0.47668     2 2pz  -0.33071     3 1s    0.53674     3 1s   -1.46466     6 1s   -0.53674
                                    6 1s    1.46466
   27.1     0.00000     1.77597     1 1s    0.39497     1 3d1+  0.43296     1 3d2+  0.39477     1 3d1- -0.25332     2 1s   -0.39497
                                    2 3d1+ -0.43296     2 3d2+ -0.39477     2 3d1-  0.25332
   28.1     0.00000     1.91667     1 3d2- -0.25114     1 3d1+  0.31343     1 3d1-  0.56062     2 3d2-  0.25114     2 3d1+ -0.31343
                                    2 3d1- -0.56062
   29.1     0.00000     1.92979     1 1s    0.34109     1 3d0   0.33950     1 3d1+  0.39119     1 3d2+ -0.31833     2 1s    0.34109
                                    2 3d0   0.33950     2 3d1+  0.39119     2 3d2+ -0.31833
   30.1     0.00000     2.08097     1 1s   -0.51046     1 2py  -0.46159     1 3d1+  0.34796     1 3d2+  0.26625     1 3d1-  0.51757
                                    2 1s   -0.51046     2 2py   0.46159     2 3d1+  0.34796     2 3d2+  0.26625     2 3d1-  0.51757
                                    3 1s    0.40912     6 1s    0.40912
   31.1     0.00000     2.20996     1 2py   0.52099     1 3d2+  0.51314     1 3d1- -0.43305     2 2py  -0.52099     2 3d2+  0.51314
                                    2 3d1- -0.43305     4 1s    0.41502     5 1s    0.41502
   32.1     0.00000     2.31072     1 1s    0.34922     1 1s   -1.06040     1 3d0   0.63434     2 1s   -0.34922     2 1s    1.06040
                                    2 3d0  -0.63434     4 1s    0.45682     5 1s   -0.45682
   33.1     0.00000     2.33434     1 3d0   0.51057     1 3d2- -0.30552     1 3d1+ -0.42277     2 3d0   0.51057     2 3d2- -0.30552
                                    2 3d1+ -0.42277
   34.1     0.00000     2.54708     1 2py  -0.28012     1 3d2-  0.63614     1 3d1-  0.35813     2 2py  -0.28012     2 3d2- -0.63614
                                    2 3d1- -0.35813     3 1s    0.75012     6 1s   -0.75012
   35.1     0.00000     2.75301     1 1s   -0.32131     1 2py  -0.37633     1 3d0   0.29045     1 3d2-  0.71610     2 1s   -0.32131
                                    2 2py   0.37633     2 3d0   0.29045     2 3d2-  0.71610     3 1s    0.75663     6 1s    0.75663
   36.1     0.00000     2.77957     1 1s   -0.31140     1 1s    1.35296     1 2px   0.82013     1 2pz  -0.33485     1 3d2- -0.28782
                                    1 3d1+ -0.53128     1 3d2+  0.60774     2 1s    0.31140     2 1s   -1.35296     2 2px   0.82013
                                    2 2pz  -0.33485     2 3d2-  0.28782     2 3d1+  0.53128     2 3d2+ -0.60774


 HOMO      8.1    -0.323952 =      -8.8152eV
 LUMO      9.1     0.073678 =       2.0049eV
 LUMO-HOMO         0.397630 =      10.8201eV


 **********************************************************************************************************************************
 DATASETS  * FILE   NREC   LENGTH (MB)   RECORD NAMES
              1      19       31.10       500      610      700      900      950      970     1000      129      960     1100   
                                          VAR    BASINP    GEOM    SYMINP    ZMAT    AOBASIS   BASIS     P2S    ABASIS      S 
                                         1400     1410     1200     1210     1080     1600     1650     1300     1700   
                                           T        V       H0       H01     AOSYM     SMH    MOLCAS    ERIS     OPER   

              2       4        2.86       700     1000      520     2100   
                                         GEOM     BASIS   MCVARS     RHF  

 PROGRAMS   *        TOTAL    HF-SCF       INT
 CPU TIMES  *         0.34      0.08      0.17
 REAL TIME  *         0.56 SEC
 DISK USED  *        35.97 MB
 **********************************************************************************************************************************


 PROGRAM * MULTI (Direct Multiconfiguration SCF)       Authors: P.J. Knowles, H.-J. Werner (1984)


 Number of closed-shell orbitals:   7 (   7 )
 Number of active  orbitals:        2 (   2 )
 Number of external orbitals:      27 (  27 )

 State symmetry 1

 Number of electrons:     2    Spin symmetry=Singlet   Space symmetry=1
 Number of states:        3
 Number of CSFs:          3   (4 determinants, 4 intermediate states)

 Molecular orbitals read from record     2100.2  Type=RHF/CANONICAL (state 1.1)

 Wavefunction dump at record             2140.2

 Convergence thresholds  0.10E-01 (gradient)  0.10E-05 (energy)  0.10E-02 (step length)

 Weight factors for state symmetry  1:    0.33333   0.33333   0.33333

 Number of orbital rotations:      257   (    14 Core/Active    189 Core/Virtual   0 Active/Active     54 Active/Virtual)
 Total number of variables:        269

 Micro-Iterations solved by the two-step solver

 ITER. MIC  NCI  NEG     ENERGY(VAR)     ENERGY(PROJ)   ENERGY CHANGE     GRAD(0)  GRAD(ORB)   GRAD(CI)     STEP       TIME

   1    6    5    0     -77.67235268     -77.67859984   -0.00624716    0.08956589 0.00067979 0.00000000  0.89D-01      0.09
   2    5    5    0     -77.67853976     -77.67854504   -0.00000527    0.00340953 0.00000167 0.00000000  0.24D-02      0.17
   3    3    3    0     -77.67854504     -77.67854504   -0.00000000    0.00000470 0.00000001 0.00000000  0.86D-05      0.23
   4   33    9    0     -77.67854504     -77.67855192   -0.00000688    0.00000000 0.00000044 0.00000000  0.52D-01      0.91
   5   18    8    0     -77.67855309     -77.67856202   -0.00000893    0.00164947 0.00000395 0.00000000  0.34D-01      1.13
   6    9    6    0     -77.67856240     -77.67856263   -0.00000023    0.00062279 0.00000004 0.00000000  0.24D-02      1.22
   7    8    4    0     -77.67856263     -77.67856263   -0.00000000    0.00000250 0.00000001 0.00000000  0.34D-04      1.29
   8    4    3    0     -77.67856263     -77.67856263    0.00000000    0.00000000 0.00000000 0.00000000  0.29D-08      1.34

 ** WVFN ****  CONVERGENCE REACHED, FINAL GRADIENT:  0.76D-13



 Results for state 1.1
 =====================

 !MCSCF STATE  1.1 Energy             -77.887438279013
 Nuclear energy                        29.31880056
 Kinetic energy                        77.49490999
 One electron energy                 -161.66582804
 Two electron energy                   54.45958920
 Virial ratio                           2.00506521

 !MCSCF STATE  1.1 Dipole moment        0.03115288     0.00141776    -0.01128566
 Dipole moment /Debye                   0.07917754     0.00360336    -0.02868342

 Results for state 2.1
 =====================

 !MCSCF STATE  2.1 Energy             -77.616535555632
 Nuclear energy                        29.31880056
 Kinetic energy                        77.63530238
 One electron energy                 -161.56707735
 Two electron energy                   54.63174123
 Virial ratio                           1.99975827

 !MCSCF STATE  2.1 Dipole moment       -0.05975980     0.01564750     0.00344524
 Dipole moment /Debye                  -0.15188431     0.03976937     0.00875635

 Results for state 3.1
 =====================

 !MCSCF STATE  3.1 Energy             -77.531714056478
 Nuclear energy                        29.31880056
 Kinetic energy                        77.77802089
 One electron energy                 -161.47361578
 Two electron energy                   54.62310116
 Virial ratio                           1.99683321

 !MCSCF STATE  3.1 Dipole moment        0.03198908    -0.00731583    -0.10096012
 Dipole moment /Debye                   0.08130282    -0.01859377    -0.25659821

 State-averaged charge density matrix saved on record  2140.2 (density set 1)

 !MCSCF expec         <1.1|DMX|1.1>     0.031152880080 au =     0.079177536953 Debye
 !MCSCF trans         <2.1|DMX|1.1>     1.150780579350 au =     2.924800904864 Debye
 !MCSCF expec         <2.1|DMX|2.1>    -0.059759797513 au =    -0.151884306162 Debye
 !MCSCF trans         <3.1|DMX|1.1>     0.037941796869 au =     0.096432112088 Debye
 !MCSCF trans         <3.1|DMX|2.1>     2.322820018071 au =     5.903632901530 Debye
 !MCSCF expec         <3.1|DMX|3.1>     0.031989084736 au =     0.081302817983 Debye

 !MCSCF expec         <1.1|DMY|1.1>     0.001417764645 au =     0.003603362267 Debye
 !MCSCF trans         <2.1|DMY|1.1>    -0.234375518457 au =    -0.595684130200 Debye
 !MCSCF expec         <2.1|DMY|2.1>     0.015647498975 au =     0.039769370446 Debye
 !MCSCF trans         <3.1|DMY|1.1>    -0.004466402370 au =    -0.011351718935 Debye
 !MCSCF trans         <3.1|DMY|2.1>    -0.472938422516 au =    -1.202010835897 Debye
 !MCSCF expec         <3.1|DMY|3.1>    -0.007315831176 au =    -0.018593770201 Debye

 !MCSCF expec         <1.1|DMZ|1.1>    -0.011285663764 au =    -0.028683417309 Debye
 !MCSCF trans         <2.1|DMZ|1.1>    -0.751155986676 au =    -1.909123032615 Debye
 !MCSCF expec         <2.1|DMZ|2.1>     0.003445237513 au =     0.008756346757 Debye
 !MCSCF trans         <3.1|DMZ|1.1>     0.009175997265 au =     0.023321531129 Debye
 !MCSCF trans         <3.1|DMZ|2.1>    -1.514706962824 au =    -3.849748922574 Debye
 !MCSCF expec         <3.1|DMZ|3.1>    -0.100960115372 au =    -0.256598210028 Debye


 NATURAL ORBITALS (state averaged)
 =================================

  Orbital  Occupation    Energy     Coefficients
    1.1     2.00000   -11.28371     2 1s    0.99533
    2.1     2.00000   -11.28102     1 1s    0.99535
    3.1     2.00000    -0.95406     1 1s    0.28962     1 1s    0.26903     2 1s    0.28942     2 1s    0.26596
    4.1     2.00000    -0.84202     1 1s    0.25717     1 1s    0.26873     2 1s   -0.25828     2 1s   -0.26717
    5.1     2.00000    -0.59182     1 2py   0.28768     2 2py   0.31952
    6.1     2.00000    -0.57284     1 2py  -0.29588     2 2py   0.26220
    7.1     2.00000    -0.45831     1 2px   0.32316     2 2px  -0.29087
    8.1     1.00000    -0.05571     1 1s    0.25083     1 2pz   0.36668     1 2pz   0.45843     2 2pz  -0.40174     2 2pz  -0.49585
    9.1     1.00000    -0.19722     1 2pz   0.28180     1 2pz   0.30334     2 2pz   0.28278     2 2pz   0.31066
   10.1    -0.00000     0.24549     1 1s   -1.24366     1 2px   0.57541     1 2py   0.25811     1 2pz   0.25046     2 1s   -1.20947
                                    2 2px  -0.60178     2 2py  -0.27498     3 1s    0.77948     4 1s    1.06958     5 1s    1.09245
                                    6 1s    0.75095
   11.1    -0.00000     0.26515     1 1s   -1.64824     1 2pz   0.39242     2 1s    1.66971     2 2pz   0.36559     3 1s    0.70127
                                    4 1s    0.91846     5 1s   -0.93618     6 1s   -0.70551
   12.1    -0.00000     0.28445     1 1s    0.44353     1 2px   0.51260     1 2py   0.61014     1 2pz  -0.25466     2 1s   -0.53231
                                    2 2px   0.48253     2 2py   0.63425     3 1s   -0.75331     4 1s    0.92079     5 1s   -0.89658
                                    6 1s    0.83648
   13.1    -0.00000     0.34492     1 1s   -0.92148     1 2py  -1.22707     2 1s   -0.91875     2 2px  -0.26413     2 2py   1.22209
                                    3 1s    1.87859     4 1s   -0.71143     5 1s   -0.68254     6 1s    1.88534
   14.1    -0.00000     0.36615     1 2px   0.27015     1 2px   1.22442     1 2py  -0.67992     1 2pz  -0.28313     2 2px   0.26370
                                    2 2px   1.21642     2 2py  -0.66396     3 1s    1.58996     6 1s   -1.55518
   15.1    -0.00000     0.67349     1 2py  -0.38346     1 2px  -0.77490     1 2py   0.81349     2 2py  -0.39108     2 2px  -0.78055
                                    2 2py   0.82871     3 1s   -0.43429     3 1s   -0.36058     6 1s    0.43696     6 1s    0.36249
   16.1    -0.00000     0.79146     1 1s   -0.70522     1 2px  -0.56929     1 2px   0.83775     2 1s   -0.57187     2 2px   0.66076
                                    2 2pz  -0.31633     2 2px  -1.06173     3 1s    0.31453     6 1s    0.34397
   17.1    -0.00000     0.79884     1 2pz   0.76626     1 2pz  -0.64708     2 2pz   0.78076     2 2pz  -0.70595
   18.1    -0.00000     0.81089     1 1s    0.47615     1 2px  -0.66180     1 2px   1.29863     2 1s   -0.59892     2 2px  -0.54513
                                    2 2px   1.11392     2 2pz  -0.27308     4 1s    0.41865     5 1s   -0.38642
   19.1    -0.00000     0.84093     1 1s   -0.26830     1 2pz  -0.74815     1 2px   0.27781     1 2py   0.26505     1 2pz   0.88543
                                    2 1s   -0.28152     2 1s    0.31062     2 2px   0.27339     2 2pz   0.66350     2 2px  -0.33661
                                    2 2py  -0.25359     2 2pz  -0.80690
   20.1    -0.00000     0.93812     1 1s    1.04141     1 2py  -0.61760     1 2px  -0.39227     1 2py   1.93224     1 2pz  -0.47984
                                    2 1s    1.01921     2 2py   0.62266     2 2px   0.39110     2 2py  -1.93660     2 2pz   0.47251
                                    3 1s   -0.34777     3 1s   -1.18885     4 1s    0.49463     5 1s    0.51534     6 1s   -0.34345
                                    6 1s   -1.18936
   21.1    -0.00000     1.00584     1 1s   -0.82022     1 1s    1.13616     1 2py   0.31896     1 2py  -0.61148     1 2pz  -0.35520
                                    2 1s   -0.81237     2 1s    1.13224     2 2py  -0.31372     2 2py   0.60216     2 2pz   0.36346
                                    3 1s   -0.25001     4 1s   -0.47570     5 1s   -0.49182     6 1s   -0.25803
   22.1    -0.00000     1.08567     1 1s    0.37096     1 2px   0.31325     1 2py   0.43282     1 2px  -0.53982     1 2py  -0.65681
                                    2 1s    0.45206     2 1s   -0.78689     2 2px   0.35075     2 2py   0.49532     2 2px  -0.65447
                                    2 2py  -0.61766     4 1s    0.58119     4 1s   -1.14558     5 1s   -0.75671     5 1s    1.42235
   23.1    -0.00000     1.09349     1 1s   -0.79744     1 1s    1.51480     1 2py   0.29025     1 2px  -0.47539     2 1s   -0.69377
                                    2 1s    1.33758     2 2px   0.31842     3 1s   -0.35441     4 1s    0.76414     4 1s   -1.19470
                                    5 1s    0.57700     5 1s   -0.84055     6 1s   -0.36774
   24.1    -0.00000     1.22748     1 1s    1.10733     1 1s   -2.73917     1 2px   0.26129     1 2py  -0.34443     1 2px  -1.07045
                                    1 2py   0.65944     1 2pz   0.48219     2 1s   -1.09653     2 1s    2.72671     2 2px   0.25691
                                    2 2py  -0.34427     2 2px  -1.06817     2 2py   0.65427     2 2pz   0.49111     3 1s    0.41876
                                    3 1s   -0.28981     4 1s    0.29387     4 1s    0.30249     5 1s   -0.29190     5 1s   -0.30049
                                    6 1s   -0.42287     6 1s    0.29364
   25.1    -0.00000     1.29874     1 1s   -0.79522     1 1s    1.27685     1 2py  -0.37164     1 2px  -0.35219     1 2py   0.38210
                                    2 1s   -0.90183     2 1s    1.50499     2 2px  -0.25472     2 2py   0.39936     2 2px   0.36984
                                    2 2py  -0.41749     3 1s    0.69570     3 1s   -1.19147     6 1s    0.73996     6 1s   -1.32058
   26.1    -0.00000     1.30903     1 1s   -1.14200     1 1s    2.40125     1 2px   0.29975     1 2py  -0.42016     1 2py   0.51765
                                    1 2pz  -0.30824     2 1s    1.07349     2 1s   -2.29049     2 2px   0.28060     2 2py  -0.38184
                                    2 2py   0.47893     2 2pz  -0.30085     3 1s    0.58466     3 1s   -1.53244     6 1s   -0.51913
                                    6 1s    1.42401
   27.1    -0.00000     1.76909     1 1s    0.39307     1 3d1+  0.42929     1 3d2+  0.39301     1 3d1- -0.25451     2 1s   -0.38648
                                    2 3d1+ -0.43539     2 3d2+ -0.39950     2 3d1-  0.25297
   28.1    -0.00000     1.90940     1 3d1+  0.30783     1 3d1-  0.56116     2 3d1+ -0.31904     2 3d1- -0.56168
   29.1    -0.00000     1.92180     1 1s    0.33360     1 2px   0.25009     1 3d0   0.33562     1 3d1+  0.39474     1 3d2+ -0.31900
                                    2 1s    0.33553     2 3d0   0.33985     2 3d1+  0.39050     2 3d2+ -0.32039
   30.1    -0.00000     2.07666     1 1s   -0.50039     1 2py  -0.45794     1 3d1+  0.35546     1 3d2+  0.27270     1 3d1-  0.51453
                                    2 1s   -0.51615     2 2py   0.45622     2 3d1+  0.34900     2 3d2+  0.27219     2 3d1-  0.51143
                                    3 1s    0.40747     6 1s    0.40858
   31.1    -0.00000     2.20423     1 2py   0.52163     1 3d2+  0.50901     1 3d1- -0.43893     2 2py  -0.52633     2 3d2+  0.51586
                                    2 3d1- -0.44219     4 1s    0.40110     5 1s    0.41732
   32.1    -0.00000     2.30420     1 1s    0.35314     1 1s   -1.07321     1 3d0   0.63965     1 3d2+  0.25638     2 1s   -0.35061
                                    2 1s    1.06146     2 3d0  -0.62858     4 1s    0.46545     5 1s   -0.45187
   33.1    -0.00000     2.32514     1 3d0   0.51927     1 3d2- -0.30431     1 3d1+ -0.42145     2 3d0   0.51637     2 3d2- -0.31021
                                    2 3d1+ -0.41384
   34.1    -0.00000     2.54008     1 2py  -0.27614     1 3d2-  0.63039     1 3d1-  0.35503     2 2py  -0.27953     2 3d2- -0.64153
                                    2 3d1- -0.35742     3 1s    0.74498     6 1s   -0.76179
   35.1    -0.00000     2.74724     1 1s   -0.26437     1 2py  -0.38595     1 3d0   0.28094     1 3d2-  0.71099     2 1s   -0.37710
                                    2 2py   0.36286     2 3d0   0.29906     2 3d2-  0.72004     3 1s    0.76405     6 1s    0.75226
   36.1    -0.00000     2.77354     1 1s   -0.31112     1 1s    1.36841     1 2px   0.81580     1 2pz  -0.33756     1 3d0  -0.26128
                                    1 3d2- -0.31585     1 3d1+ -0.52158     1 3d2+  0.60134     2 1s    0.31503     2 1s   -1.34147
                                    2 2px   0.82898     2 2pz  -0.33470     2 3d2-  0.25894     2 3d1+  0.54121     2 3d2+ -0.61390


 Natural orbital dump (state averaged) at molpro section  2140.2    (Orbital set 2)



 **********************************************************************************************************************************
 DATASETS  * FILE   NREC   LENGTH (MB)   RECORD NAMES
              1      20       31.83       500      610      700      900      950      970     1000      129      960     1100   
                                          VAR    BASINP    GEOM    SYMINP    ZMAT    AOBASIS   BASIS     P2S    ABASIS      S 
                                         1400     1410     1200     1210     1080     1600     1650     1300     1700     1380   
                                           T        V       H0       H01     AOSYM     SMH    MOLCAS    ERIS     OPER     JKOP   

              2       5        5.42       700     1000      520     2100     2140   
                                         GEOM     BASIS   MCVARS     RHF     MCSCF   

 PROGRAMS   *        TOTAL     MULTI    HF-SCF       INT
 CPU TIMES  *         1.71      1.37      0.08      0.17
 REAL TIME  *         2.06 SEC
 DISK USED  *        39.01 MB
 **********************************************************************************************************************************
 Molecular orbitals read from record     2140.2  Type=MCSCF/NATURAL (state averaged)
 Occupation numbers read from record     2140.2  Type=MCSCF/NATURAL (state averaged)
 Orbital energies read from record       2140.2  Type=MCSCF/NATURAL (state averaged)
 Redundancy group numbers read from rec  2140.2  Type=MCSCF/NATURAL (state averaged)

 MULTI/6-31G* energy=    -77.531714056478

           MULTI          HF-SCF
    -77.53171406    -77.85984795
 **********************************************************************************************************************************
 Molpro calculation terminated
