
 Primary working directories    : /scratch.local/johan406.molpro_temp/molpro.xKJc8Jp5By
 Secondary working directories  : /scratch.local/johan406.molpro_temp/molpro.xKJc8Jp5By
 Wavefunction directory         : /home/goodpast/johan406/wfu/
 Main file repository           : /scratch.local/johan406.molpro_temp/molpro.xKJc8Jp5By/

 id        : roweumn

 Nodes     nprocs
 cn0416       1

 Using customized tuning parameters: mindgm=1; mindgv=20; mindgc=4; mindgr=1; noblas=0; minvec=7
 default implementation of scratch files=df  


 Variables initialized (934), CPU time= 0.00 sec
                                                                                 !leave this line blank
 
 gprint, orbitals=30
 memory, 125., m
 symmetry, nosym
 nelect=16
 basis=6-31g*
 
 geometry={
 C 0.000 0.000 0.701
 C 0.000 -0.000 -0.701
 H 0.000 0.904 1.247
 H 0.000 -0.904 1.247
 H 0.000 0.904 -1.247
 H 0.000 -0.904 -1.247
 }
 
 hf
 {multi,
 closed 7
 occ 9
 wf,spin=0;STATE,3
 }
 
 Commands  initialized (763), CPU time= 0.01 sec, 617 directives.
 Default parameters read. Elapsed time= 0.04 sec

 Checking input...
 Passed
1


                                         ***  PROGRAM SYSTEM MOLPRO  ***
                                       Copyright, TTI GmbH Stuttgart, 2015
                                    Version 2019.2 linked Oct 25 2019 22:50:27


 **********************************************************************************************************************************
 LABEL *                                                                                 
  64 bit serial version                                                                  DATE: 15-Mar-23          TIME: 16:23:58  
 **********************************************************************************************************************************

 SHA1:             8dbd9ae1082e4ce945b0f27595c9eb2d4aa09004
 **********************************************************************************************************************************


 Variable memory set to  125000000 words,  buffer space 

 SETTING NELECT         =        16.00000000                                  
 SETTING BASIS          =    6-31G*
 ZSYMEL=NOSYM


Geometry recognized as XYZ



 Recomputing integrals since basis changed


 Using spherical harmonics

 Library entry C      S 6-31G                selected for orbital group  1
 Library entry C      P 6-31G                selected for orbital group  1
 Library entry C      D 6-31G*               selected for orbital group  1
 Library entry H      S 6-31G                selected for orbital group  2


 PROGRAM * SEWARD (Integral evaluation for generally contracted gaussian basis sets)     Author: Roland Lindh, 1990

 Geometry written to block  1 of record 700


 Point group  C1  



 ATOMIC COORDINATES

 NR  ATOM    CHARGE       X              Y              Z

   1  C       6.00    0.000000000    0.000000000    1.324698013
   2  C       6.00    0.000000000   -0.000000000   -1.324698013
   3  H       1.00    0.000000000    1.708312417    2.356488477
   4  H       1.00    0.000000000   -1.708312417    2.356488477
   5  H       1.00    0.000000000    1.708312417   -2.356488477
   6  H       1.00    0.000000000   -1.708312417   -2.356488477

 Bond lengths in Bohr (Angstrom)

 1-2  2.649396027  1-3  1.995726152  1-4  1.995726152  2-5  1.995726152  2-6  1.995726152
     ( 1.402000000)     ( 1.056092799)     ( 1.056092799)     ( 1.056092799)     ( 1.056092799)

 Bond angles

  1-2-5  121.13123316   1-2-6  121.13123316   2-1-3  121.13123316   2-1-4  121.13123316

  3-1-4  117.73753367   5-2-6  117.73753367

 NUCLEAR CHARGE:                   16
 NUMBER OF PRIMITIVE AOS:          72
 NUMBER OF SYMMETRY AOS:           70
 NUMBER OF CONTRACTIONS:           36   (   36A   )
 NUMBER OF CORE ORBITALS:           2   (    2A   )
 NUMBER OF VALENCE ORBITALS:       12   (   12A   )


 NUCLEAR REPULSION ENERGY   32.88087628

 EXTRA SYMMETRY OF AOS IN SYMMETRY 1:   1 1 1 2 1 1 2 1 1 1   3 2 1 1 1 1 1 2 1 1   2 1 1 1 3 2 1 1 1 1   1 1 1 1 1 1

 Eigenvalues of metric

         1 0.101E-01 0.174E-01 0.362E-01 0.451E-01 0.674E-01 0.210E+00 0.235E+00 0.235E+00


 Contracted 2-electron integrals neglected if value below      1.0D-11
 AO integral compression algorithm  1   Integral accuracy      1.0D-11

     0.786 MB (compressed) written to integral file ( 37.5%)


 NUMBER OF SORTED TWO-ELECTRON INTEGRALS:     222111.     BUFFER LENGTH:  32768
 NUMBER OF SEGMENTS:   1  SEGMENT LENGTH:     222111      RECORD LENGTH: 524288

 Memory used in sort:       0.78 MW

 SORT1 READ      284735. AND WROTE       98250. INTEGRALS IN      1 RECORDS. CPU TIME:     0.01 SEC, REAL TIME:     0.01 SEC
 SORT2 READ       98250. AND WROTE      222111. INTEGRALS IN      3 RECORDS. CPU TIME:     0.01 SEC, REAL TIME:     0.02 SEC

 FILE SIZES:   FILE 1:    30.9 MBYTE,  FILE 4:     4.2 MBYTE,   TOTAL:     35.1 MBYTE

 OPERATOR DM      FOR CENTER  0  COORDINATES:    0.000000    0.000000    0.000000


 **********************************************************************************************************************************
 DATASETS  * FILE   NREC   LENGTH (MB)   RECORD NAMES
              1      19       30.63       500      610      700      900      950      970     1000      129      960     1100   
                                          VAR    BASINP    GEOM    SYMINP    ZMAT    AOBASIS   BASIS     P2S    ABASIS      S 
                                         1400     1410     1200     1210     1080     1600     1650     1300     1700   
                                           T        V       H0       H01     AOSYM     SMH    MOLCAS    ERIS     OPER   

 PROGRAMS   *        TOTAL       INT
 CPU TIMES  *         0.31      0.21
 REAL TIME  *         0.50 SEC
 DISK USED  *        35.45 MB
 **********************************************************************************************************************************


 PROGRAM * RHF-SCF (CLOSED SHELL)       Authors: W. Meyer, H.-J. Werner


 NUMBER OF ELECTRONS:       8+    8-    SPACE SYMMETRY=1    SPIN SYMMETRY: Singlet 
 CONVERGENCE THRESHOLDS:    1.00E-05 (Density)    1.00E-07 (Energy)
 MAX. NUMBER OF ITERATIONS:       60
 INTERPOLATION TYPE:            DIIS
 INTERPOLATION STEPS:              2 (START)      1 (STEP)
 LEVEL SHIFTS:                  0.00 (CLOSED)  0.00 (OPEN) 



 Orbital guess generated from atomic densities. Full valence occupancy:    8

 Molecular orbital dump at record        2100.2

 Initial occupancy:   8

 ITERATION    DDIFF          GRAD             ENERGY        2-EL.EN.            DIPOLE MOMENTS         DIIS   ORB.
    1      0.000D+00      0.000D+00       -78.00002540    117.411792    0.00000    0.00000   -0.00000    0    start
    2      0.000D+00      0.802D-02       -78.02028920    115.907794    0.00000   -0.00000   -0.00000    1    diag
    3      0.782D-02      0.258D-02       -78.02204675    116.437025   -0.00000   -0.00000    0.00000    2    diag
    4      0.237D-02      0.677D-03       -78.02223153    116.337034   -0.00000    0.00000   -0.00000    3    diag
    5      0.987D-03      0.619D-04       -78.02223324    116.339647   -0.00000    0.00000    0.00000    4    diag
    6      0.130D-03      0.615D-05       -78.02223326    116.339313   -0.00000    0.00000    0.00000    5    diag
    7      0.101D-04      0.966D-06       -78.02223326    116.339321    0.00000    0.00000   -0.00000    6    diag
    8      0.131D-05      0.963D-07       -78.02223326    116.339317   -0.00000   -0.00000   -0.00000    0    orth

 Final occupancy:   8

 !RHF STATE  1.1 Energy               -78.022233259132
 Nuclear energy                        32.88087628
 One-electron energy                 -169.07276812
 Two-electron energy                   58.16965858
 Virial quotient                       -1.00077976
 !RHF STATE  1.1 Dipole moment         -0.00000000    -0.00000000    -0.00000000
 Dipole moment /Debye                  -0.00000000    -0.00000000    -0.00000000

 ELECTRON ORBITALS
 =================

  Orbital  Occupation    Energy     Coefficients
    1.1     2.00000   -11.23012     1 1s    0.70427     2 1s    0.70427
    2.1     2.00000   -11.22895     1 1s    0.70450     2 1s   -0.70450
    3.1     2.00000    -1.01229     1 1s    0.29947     2 1s    0.29947
    4.1     2.00000    -0.80594     2 1s   -0.24516
    5.1     2.00000    -0.64048     1 2py   0.32284     2 2py   0.32284
    6.1     2.00000    -0.57171     1 2pz   0.40743     2 2pz  -0.40743
    7.1     2.00000    -0.52324     1 2py   0.31310     2 2py  -0.31310
    8.1     2.00000    -0.35399     1 2px   0.36731     1 2px   0.32021     2 2px   0.36731     2 2px   0.32021
    9.1     0.00000     0.16384     1 2px   0.34757     1 2px   0.69580     2 2px  -0.34757     2 2px  -0.69580
   10.1     0.00000     0.26907     1 1s   -1.54038     1 2pz  -0.63606     2 1s   -1.54038     2 2pz   0.63606     3 1s    1.06701
                                    4 1s    1.06701     5 1s    1.06701     6 1s    1.06701
   11.1     0.00000     0.30510     1 2py  -0.85568     2 2py  -0.85568     3 1s    1.15233     4 1s   -1.15233     5 1s    1.15233
                                    6 1s   -1.15233
   12.1     0.00000     0.31143     1 1s    1.99569     2 1s   -1.99569     3 1s   -1.08522     4 1s   -1.08522     5 1s    1.08522
                                    6 1s    1.08522
   13.1     0.00000     0.38795     1 2py  -1.83166     2 2py   1.83166     3 1s    1.65739     4 1s   -1.65739     5 1s   -1.65739
                                    6 1s    1.65739
   14.1     0.00000     0.47407     1 1s   -2.28689     1 2pz   2.65985     2 1s    2.28689     2 2pz   2.65985     3 1s   -0.61933
                                    4 1s   -0.61933     5 1s    0.61933     6 1s    0.61933
   15.1     0.00000     0.68814     1 1s    0.36950     1 2pz  -0.57039     1 2pz   1.03052     2 1s    0.36950     2 2pz   0.57039
                                    2 2pz  -1.03052
   16.1     0.00000     0.74352     1 2py  -0.39708     1 2py   0.79713     2 2py  -0.39708     2 2py   0.79713     3 1s   -0.37391
                                    4 1s    0.37391     5 1s   -0.37391     6 1s    0.37391
   17.1     0.00000     0.79013     1 2px  -0.75418     1 2px   0.63981     2 2px  -0.75418     2 2px   0.63981
   18.1     0.00000     0.86245     1 1s   -0.90934     1 1s    1.49784     1 2pz   0.26590     2 1s   -0.90934     2 1s    1.49784
                                    2 2pz  -0.26590     3 1s   -0.38051     3 1s   -0.25498     4 1s   -0.38051     4 1s   -0.25498
                                    5 1s   -0.38051     5 1s   -0.25498     6 1s   -0.38051     6 1s   -0.25498
   19.1     0.00000     0.88294     1 2px  -0.81239     1 2px   1.05127     2 2px   0.81239     2 2px  -1.05127
   20.1     0.00000     0.90864     1 1s   -0.48289     1 2pz   0.64002     1 2pz  -0.78198     2 1s    0.48289     2 2pz   0.64002
                                    2 2pz  -0.78198     3 1s    0.34968     4 1s    0.34968     5 1s   -0.34968     6 1s   -0.34968
   21.1     0.00000     1.15165     1 2py   0.70415     1 2py  -1.10183     2 2py   0.70415     2 2py  -1.10183     3 1s   -0.39223
                                    3 1s    1.06972     4 1s    0.39223     4 1s   -1.06972     5 1s   -0.39223     5 1s    1.06972
                                    6 1s    0.39223     6 1s   -1.06972
   22.1     0.00000     1.16346     1 2py   0.92250     1 2py  -3.00843     2 2py  -0.92250     2 2py   3.00843     3 1s    1.58187
                                    4 1s   -1.58187     5 1s   -1.58187     6 1s    1.58187
   23.1     0.00000     1.22854     1 1s   -0.57705     1 2pz  -0.63275     1 2pz   1.54188     2 1s    0.57705     2 2pz  -0.63275
                                    2 2pz   1.54188     3 1s    0.50759     3 1s   -0.86255     4 1s    0.50759     4 1s   -0.86255
                                    5 1s   -0.50759     5 1s    0.86255     6 1s   -0.50759     6 1s    0.86255
   24.1     0.00000     1.23126     1 1s    1.04077     1 1s   -1.75426     1 2pz   0.36199     1 2pz  -0.49408     2 1s    1.04077
                                    2 1s   -1.75426     2 2pz  -0.36199     2 2pz   0.49408     3 1s   -0.44388     3 1s    0.87893
                                    4 1s   -0.44388     4 1s    0.87893     5 1s   -0.44388     5 1s    0.87893     6 1s   -0.44388
                                    6 1s    0.87893
   25.1     0.00000     1.30880     1 1s   -1.66703     1 1s    5.00590     1 2pz  -1.40654     2 1s    1.66703     2 1s   -5.00590
                                    2 2pz  -1.40654     3 1s   -0.58050     4 1s   -0.58050     5 1s    0.58050     6 1s    0.58050
   26.1     0.00000     1.45775     1 2py   2.32997     2 2py  -2.32997     3 1s   -0.69274     3 1s   -0.62252     4 1s    0.69274
                                    4 1s    0.62252     5 1s    0.69274     5 1s    0.62252     6 1s   -0.69274     6 1s   -0.62252
   27.1     0.00000     1.72083     1 3d1+  0.62797     2 3d1+ -0.62797
   28.1     0.00000     1.83905     1 3d2-  0.68669     2 3d2-  0.68669
   29.1     0.00000     2.09885     1 3d2-  0.72946     2 3d2- -0.72946
   30.1     0.00000     2.23408     1 1s    0.33093     1 1s   -0.62654     1 3d0  -0.32761     1 3d2+  0.64173     2 1s    0.33093
                                    2 1s   -0.62654     2 3d0  -0.32761     2 3d2+  0.64173     3 1s    0.31797     4 1s    0.31797
                                    5 1s    0.31797     6 1s    0.31797
   31.1     0.00000     2.34720     1 2py   0.27576     1 3d1-  0.70965     2 2py   0.27576     2 3d1- -0.70965     3 1s   -0.53697
                                    4 1s    0.53697     5 1s   -0.53697     6 1s    0.53697
   32.1     0.00000     2.35094     1 1s   -0.41010     1 2pz  -0.45872     1 3d0   0.59925     1 3d2+  0.37742     2 1s   -0.41010
                                    2 2pz   0.45872     2 3d0   0.59925     2 3d2+  0.37742     3 1s    0.28558     4 1s    0.28558
                                    5 1s    0.28558     6 1s    0.28558
   33.1     0.00000     2.62063     1 1s    0.26547     1 1s   -1.24571     1 3d2+  0.79844     2 1s   -0.26547     2 1s    1.24571
                                    2 3d2+ -0.79844     3 1s    0.46218     4 1s    0.46218     5 1s   -0.46218     6 1s   -0.46218
   34.1     0.00000     2.64002     1 2px  -0.25318     1 3d1+  0.86635     2 2px   0.25318     2 3d1+  0.86635
   35.1     0.00000     2.99733     1 1s    1.92096     1 2pz  -0.63530     1 2pz  -1.15362     1 3d0   1.07040     2 1s   -1.92096
                                    2 2pz  -0.63530     2 2pz  -1.15362     2 3d0  -1.07040
   36.1     0.00000     3.02547     1 2py   0.62529     1 3d1-  0.94016     2 2py  -0.62529     2 3d1-  0.94016     3 1s   -0.50590
                                    4 1s    0.50590     5 1s    0.50590     6 1s   -0.50590


 HOMO      8.1    -0.353992 =      -9.6326eV
 LUMO      9.1     0.163842 =       4.4584eV
 LUMO-HOMO         0.517834 =      14.0910eV


 **********************************************************************************************************************************
 DATASETS  * FILE   NREC   LENGTH (MB)   RECORD NAMES
              1      19       30.63       500      610      700      900      950      970     1000      129      960     1100   
                                          VAR    BASINP    GEOM    SYMINP    ZMAT    AOBASIS   BASIS     P2S    ABASIS      S 
                                         1400     1410     1200     1210     1080     1600     1650     1300     1700   
                                           T        V       H0       H01     AOSYM     SMH    MOLCAS    ERIS     OPER   

              2       4        2.86       700     1000      520     2100   
                                         GEOM     BASIS   MCVARS     RHF  

 PROGRAMS   *        TOTAL    HF-SCF       INT
 CPU TIMES  *         0.40      0.10      0.21
 REAL TIME  *         0.62 SEC
 DISK USED  *        35.45 MB
 **********************************************************************************************************************************


 PROGRAM * MULTI (Direct Multiconfiguration SCF)       Authors: P.J. Knowles, H.-J. Werner (1984)


 Number of closed-shell orbitals:   7 (   7 )
 Number of active  orbitals:        2 (   2 )
 Number of external orbitals:      27 (  27 )

 State symmetry 1

 Number of electrons:     2    Spin symmetry=Singlet   Space symmetry=1
 Number of states:        3
 Number of CSFs:          3   (4 determinants, 4 intermediate states)

 Molecular orbitals read from record     2100.2  Type=RHF/CANONICAL (state 1.1)

 EXTRA SYMMETRY OF MOS IN SYMMETRY 1:   1 1 1 1 1 1 1 2 2 1   1 1 1 1 1 1 2 1 2 1   1 1 1 1 1 1 2 3 3 1   1 1 1 2 1 1

 Wavefunction dump at record             2140.2

 Convergence thresholds  0.10E-01 (gradient)  0.10E-05 (energy)  0.10E-02 (step length)

 Weight factors for state symmetry  1:    0.33333   0.33333   0.33333

 Number of orbital rotations:      257   (    14 Core/Active    189 Core/Virtual   0 Active/Active     54 Active/Virtual)
 Total number of variables:        269

 Micro-Iterations solved by the two-step solver

 ITER. MIC  NCI  NEG     ENERGY(VAR)     ENERGY(PROJ)   ENERGY CHANGE     GRAD(0)  GRAD(ORB)   GRAD(CI)     STEP       TIME

   1    3    3    0     -77.74493047     -77.75013065   -0.00520018    0.12005729 0.00000094 0.00000000  0.58D-01      0.06
   2    2    3    0     -77.75006174     -77.75006406   -0.00000232    0.00240271 0.00000114 0.00000000  0.13D-02      0.09
   3    2    3    0     -77.75006406     -77.75006406   -0.00000000    0.00000131 0.00000000 0.00000000  0.79D-06      0.12

 ** WVFN ****  CONVERGENCE REACHED, FINAL GRADIENT:  0.45D-12



 Results for state 1.1
 =====================

 !MCSCF STATE  1.1 Energy             -78.043781456955
 Nuclear energy                        32.88087628
 Kinetic energy                        78.00503281
 One electron energy                 -169.14426649
 Two electron energy                   58.21960875
 Virial ratio                           2.00049675

 !MCSCF STATE  1.1 Dipole moment        0.00000000    -0.00000000    -0.00000000
 Dipole moment /Debye                   0.00000000    -0.00000000    -0.00000000

 Results for state 2.1
 =====================

 !MCSCF STATE  2.1 Energy             -77.683457982718
 Nuclear energy                        32.88087628
 Kinetic energy                        78.20437066
 One electron energy                 -168.69380603
 Two electron energy                   58.12947176
 Virial ratio                           1.99333908

 !MCSCF STATE  2.1 Dipole moment        0.00000000    -0.00000000    -0.00000000
 Dipole moment /Debye                   0.00000000    -0.00000000    -0.00000000

 Results for state 3.1
 =====================

 !MCSCF STATE  3.1 Energy             -77.522952749698
 Nuclear energy                        32.88087628
 Kinetic energy                        78.40370851
 One electron energy                 -168.24334556
 Two electron energy                   57.83951653
 Virial ratio                           1.98876640

 !MCSCF STATE  3.1 Dipole moment        0.00000000    -0.00000000     0.00000000
 Dipole moment /Debye                   0.00000000    -0.00000000     0.00000000

 State-averaged charge density matrix saved on record  2140.2 (density set 1)

 !MCSCF trans         <2.1|DMZ|1.1>    -1.512305307245 au =    -3.843644922787 Debye
 !MCSCF trans         <3.1|DMZ|2.1>    -2.396898803643 au =    -6.091910061363 Debye


 NATURAL ORBITALS (state averaged)
 =================================

  Orbital  Occupation    Energy     Coefficients
    1.1     2.00000   -11.24158     1 1s    0.70428     2 1s    0.70428
    2.1     2.00000   -11.24065     1 1s    0.70446     2 1s   -0.70446
    3.1     2.00000    -1.02305     1 1s    0.30693     2 1s    0.30693
    4.1     2.00000    -0.81238     1 1s    0.27612     2 1s   -0.27612
    5.1     2.00000    -0.65085     1 2py   0.32725     2 2py   0.32725
    6.1     2.00000    -0.58542     1 2pz   0.40966     2 2pz  -0.40966
    7.1     2.00000    -0.52869     1 2py   0.31828     2 2py  -0.31828
    8.1     1.00000     0.02193     1 2px   0.38103     1 2px   0.65500     2 2px  -0.38103     2 2px  -0.65500
    9.1     1.00000    -0.21311     1 2px   0.35066     1 2px   0.33265     2 2px   0.35066     2 2px   0.33265
   10.1    -0.00000     0.26681     1 1s   -1.53734     1 2pz  -0.64245     2 1s   -1.53734     2 2pz   0.64245     3 1s    1.06678
                                    4 1s    1.06678     5 1s    1.06678     6 1s    1.06678
   11.1    -0.00000     0.29802     1 2py  -0.84943     2 2py  -0.84943     3 1s    1.14562     4 1s   -1.14562     5 1s    1.14562
                                    6 1s   -1.14562
   12.1    -0.00000     0.30864     1 1s    2.02282     2 1s   -2.02282     3 1s   -1.07764     4 1s   -1.07764     5 1s    1.07764
                                    6 1s    1.07764
   13.1    -0.00000     0.38481     1 2py  -1.82083     2 2py   1.82083     3 1s    1.65192     4 1s   -1.65192     5 1s   -1.65192
                                    6 1s    1.65192
   14.1    -0.00000     0.47057     1 1s   -2.25253     1 2pz   2.63669     2 1s    2.25253     2 2pz   2.63669     3 1s   -0.63261
                                    4 1s   -0.63261     5 1s    0.63261     6 1s    0.63261
   15.1    -0.00000     0.67898     1 1s    0.26953     1 2pz  -0.56685     1 2pz   1.00820     2 1s    0.26953     2 2pz   0.56685
                                    2 2pz  -1.00820
   16.1    -0.00000     0.73384     1 2py  -0.40694     1 2py   0.80014     2 2py  -0.40694     2 2py   0.80014     3 1s   -0.37041
                                    4 1s    0.37041     5 1s   -0.37041     6 1s    0.37041
   17.1    -0.00000     0.78481     1 2px  -0.76156     1 2px   0.63365     2 2px  -0.76156     2 2px   0.63365
   18.1    -0.00000     0.85945     1 1s   -0.90525     1 1s    1.53115     1 2pz   0.31935     2 1s   -0.90525     2 1s    1.53115
                                    2 2pz  -0.31935     3 1s   -0.38442     3 1s   -0.26839     4 1s   -0.38442     4 1s   -0.26839
                                    5 1s   -0.38442     5 1s   -0.26839     6 1s   -0.38442     6 1s   -0.26839
   19.1    -0.00000     0.86755     1 2px  -0.79809     1 2px   1.07708     2 2px   0.79809     2 2px  -1.07708
   20.1    -0.00000     0.89274     1 1s   -0.35126     1 2pz   0.63996     1 2pz  -0.85430     2 1s    0.35126     2 2pz   0.63996
                                    2 2pz  -0.85430     3 1s    0.35146     4 1s    0.35146     5 1s   -0.35146     6 1s   -0.35146
   21.1    -0.00000     1.13831     1 2py   0.69459     1 2py  -1.10436     2 2py   0.69459     2 2py  -1.10436     3 1s   -0.39191
                                    3 1s    1.07743     4 1s    0.39191     4 1s   -1.07743     5 1s   -0.39191     5 1s    1.07743
                                    6 1s    0.39191     6 1s   -1.07743
   22.1    -0.00000     1.15310     1 2py   0.92016     1 2py  -3.01254     2 2py  -0.92016     2 2py   3.01254     3 1s    1.58846
                                    4 1s   -1.58846     5 1s   -1.58846     6 1s    1.58846
   23.1    -0.00000     1.22401     1 1s   -1.07861     1 2pz  -0.64265     1 2pz   1.67734     2 1s    1.07861     2 2pz  -0.64265
                                    2 2pz   1.67734     3 1s    0.50473     3 1s   -0.79819     4 1s    0.50473     4 1s   -0.79819
                                    5 1s   -0.50473     5 1s    0.79819     6 1s   -0.50473     6 1s    0.79819
   24.1    -0.00000     1.22920     1 1s    1.03592     1 1s   -1.74973     1 2pz   0.36623     1 2pz  -0.49965     2 1s    1.03592
                                    2 1s   -1.74973     2 2pz  -0.36623     2 2pz   0.49965     3 1s   -0.44426     3 1s    0.87806
                                    4 1s   -0.44426     4 1s    0.87806     5 1s   -0.44426     5 1s    0.87806     6 1s   -0.44426
                                    6 1s    0.87806
   25.1    -0.00000     1.29416     1 1s   -1.67577     1 1s    4.92692     1 2pz  -1.23636     2 1s    1.67577     2 1s   -4.92692
                                    2 2pz  -1.23636     3 1s   -0.66773     4 1s   -0.66773     5 1s    0.66773     6 1s    0.66773
   26.1    -0.00000     1.44971     1 2py   2.33195     2 2py  -2.33195     3 1s   -0.69166     3 1s   -0.62293     4 1s    0.69166
                                    4 1s    0.62293     5 1s    0.69166     5 1s    0.62293     6 1s   -0.69166     6 1s   -0.62293
   27.1    -0.00000     1.69909     1 3d1+  0.62781     2 3d1+ -0.62781
   28.1    -0.00000     1.82792     1 3d2-  0.68669     2 3d2-  0.68669
   29.1    -0.00000     2.07869     1 3d2-  0.72946     2 3d2- -0.72946
   30.1    -0.00000     2.22057     1 1s    0.33275     1 1s   -0.62048     1 3d0  -0.33709     1 3d2+  0.63547     2 1s    0.33275
                                    2 1s   -0.62048     2 3d0  -0.33709     2 3d2+  0.63547     3 1s    0.31523     4 1s    0.31523
                                    5 1s    0.31523     6 1s    0.31523
   31.1    -0.00000     2.33347     1 2py   0.28244     1 3d1-  0.70796     2 2py   0.28244     2 3d1- -0.70796     3 1s   -0.54013
                                    4 1s    0.54013     5 1s   -0.54013     6 1s    0.54013
   32.1    -0.00000     2.33364     1 1s   -0.40422     1 2pz  -0.46260     1 3d0   0.59388     1 3d2+  0.38720     2 1s   -0.40422
                                    2 2pz   0.46260     2 3d0   0.59388     2 3d2+  0.38720     3 1s    0.29074     4 1s    0.29074
                                    5 1s    0.29074     6 1s    0.29074
   33.1    -0.00000     2.60370     1 1s    0.26594     1 1s   -1.24991     1 3d2+  0.79774     2 1s   -0.26594     2 1s    1.24991
                                    2 3d2+ -0.79774     3 1s    0.46501     4 1s    0.46501     5 1s   -0.46501     6 1s   -0.46501
   34.1    -0.00000     2.61961     1 2px  -0.25350     1 3d1+  0.86668     2 2px   0.25350     2 3d1+  0.86668
   35.1    -0.00000     2.98235     1 1s    1.94180     1 2pz  -0.62845     1 2pz  -1.16446     1 3d0   1.07160     2 1s   -1.94180
                                    2 2pz  -0.62845     2 2pz  -1.16446     2 3d0  -1.07160
   36.1    -0.00000     3.01444     1 2py   0.62538     1 3d1-  0.93973     2 2py  -0.62538     2 3d1-  0.93973     3 1s   -0.50809
                                    4 1s    0.50809     5 1s    0.50809     6 1s   -0.50809


 Natural orbital dump (state averaged) at molpro section  2140.2    (Orbital set 2)



 **********************************************************************************************************************************
 DATASETS  * FILE   NREC   LENGTH (MB)   RECORD NAMES
              1      20       31.36       500      610      700      900      950      970     1000      129      960     1100   
                                          VAR    BASINP    GEOM    SYMINP    ZMAT    AOBASIS   BASIS     P2S    ABASIS      S 
                                         1400     1410     1200     1210     1080     1600     1650     1300     1700     1380   
                                           T        V       H0       H01     AOSYM     SMH    MOLCAS    ERIS     OPER     JKOP   

              2       5        5.42       700     1000      520     2100     2140   
                                         GEOM     BASIS   MCVARS     RHF     MCSCF   

 PROGRAMS   *        TOTAL     MULTI    HF-SCF       INT
 CPU TIMES  *         0.56      0.15      0.10      0.21
 REAL TIME  *         0.84 SEC
 DISK USED  *        38.54 MB
 **********************************************************************************************************************************
 Molecular orbitals read from record     2140.2  Type=MCSCF/NATURAL (state averaged)
 Occupation numbers read from record     2140.2  Type=MCSCF/NATURAL (state averaged)
 Orbital energies read from record       2140.2  Type=MCSCF/NATURAL (state averaged)
 Redundancy group numbers read from rec  2140.2  Type=MCSCF/NATURAL (state averaged)

 MULTI/6-31G* energy=    -77.522952749698

           MULTI          HF-SCF
    -77.52295275    -78.02223326
 **********************************************************************************************************************************
 Molpro calculation terminated
