
 Primary working directories    : /scratch.local/johan406.molpro_temp/molpro.xR1aYS3a6S
 Secondary working directories  : /scratch.local/johan406.molpro_temp/molpro.xR1aYS3a6S
 Wavefunction directory         : /home/goodpast/johan406/wfu/
 Main file repository           : /scratch.local/johan406.molpro_temp/molpro.xR1aYS3a6S/

 id        : roweumn

 Nodes     nprocs
 cn0416       1

 Using customized tuning parameters: mindgm=1; mindgv=20; mindgc=4; mindgr=1; noblas=0; minvec=7
 default implementation of scratch files=df  


 Variables initialized (934), CPU time= 0.00 sec
                                                                                 !leave this line blank
 
 gprint, orbitals=30
 memory, 125., m
 symmetry, nosym
 nelect=16
 basis=6-31g*
 
 geometry={
 C 0.000 0.000 0.701
 C 0.000 -0.000 -0.701
 H 0.000 0.905 1.246
 H 0.000 -0.905 1.246
 H 0.000 0.905 -1.246
 H 0.000 -0.905 -1.246
 }
 
 hf
 {multi,
 closed 7
 occ 9
 wf,spin=0;STATE,3
 }
 
 Commands  initialized (763), CPU time= 0.01 sec, 617 directives.
 Default parameters read. Elapsed time= 0.05 sec

 Checking input...
 Passed
1


                                         ***  PROGRAM SYSTEM MOLPRO  ***
                                       Copyright, TTI GmbH Stuttgart, 2015
                                    Version 2019.2 linked Oct 25 2019 22:50:27


 **********************************************************************************************************************************
 LABEL *                                                                                 
  64 bit serial version                                                                  DATE: 15-Mar-23          TIME: 16:24:12  
 **********************************************************************************************************************************

 SHA1:             8dbd9ae1082e4ce945b0f27595c9eb2d4aa09004
 **********************************************************************************************************************************


 Variable memory set to  125000000 words,  buffer space 

 SETTING NELECT         =        16.00000000                                  
 SETTING BASIS          =    6-31G*
 ZSYMEL=NOSYM


Geometry recognized as XYZ



 Recomputing integrals since basis changed


 Using spherical harmonics

 Library entry C      S 6-31G                selected for orbital group  1
 Library entry C      P 6-31G                selected for orbital group  1
 Library entry C      D 6-31G*               selected for orbital group  1
 Library entry H      S 6-31G                selected for orbital group  2


 PROGRAM * SEWARD (Integral evaluation for generally contracted gaussian basis sets)     Author: Roland Lindh, 1990

 Geometry written to block  1 of record 700


 Point group  C1  



 ATOMIC COORDINATES

 NR  ATOM    CHARGE       X              Y              Z

   1  C       6.00    0.000000000    0.000000000    1.324698013
   2  C       6.00    0.000000000   -0.000000000   -1.324698013
   3  H       1.00    0.000000000    1.710202143    2.354598751
   4  H       1.00    0.000000000   -1.710202143    2.354598751
   5  H       1.00    0.000000000    1.710202143   -2.354598751
   6  H       1.00    0.000000000   -1.710202143   -2.354598751

 Bond lengths in Bohr (Angstrom)

 1-2  2.649396027  1-3  1.996368428  1-4  1.996368428  2-5  1.996368428  2-6  1.996368428
     ( 1.402000000)     ( 1.056432677)     ( 1.056432677)     ( 1.056432677)     ( 1.056432677)

 Bond angles

  1-2-5  121.05676908   1-2-6  121.05676908   2-1-3  121.05676908   2-1-4  121.05676908

  3-1-4  117.88646184   5-2-6  117.88646184

 NUCLEAR CHARGE:                   16
 NUMBER OF PRIMITIVE AOS:          72
 NUMBER OF SYMMETRY AOS:           70
 NUMBER OF CONTRACTIONS:           36   (   36A   )
 NUMBER OF CORE ORBITALS:           2   (    2A   )
 NUMBER OF VALENCE ORBITALS:       12   (   12A   )


 NUCLEAR REPULSION ENERGY   32.87808855

 EXTRA SYMMETRY OF AOS IN SYMMETRY 1:   1 1 1 2 1 1 2 1 1 1   3 2 1 1 1 1 1 2 1 1   2 1 1 1 3 2 1 1 1 1   1 1 1 1 1 1

 Eigenvalues of metric

         1 0.101E-01 0.174E-01 0.363E-01 0.453E-01 0.673E-01 0.210E+00 0.235E+00 0.235E+00


 Contracted 2-electron integrals neglected if value below      1.0D-11
 AO integral compression algorithm  1   Integral accuracy      1.0D-11

     0.786 MB (compressed) written to integral file ( 37.5%)


 NUMBER OF SORTED TWO-ELECTRON INTEGRALS:     222111.     BUFFER LENGTH:  32768
 NUMBER OF SEGMENTS:   1  SEGMENT LENGTH:     222111      RECORD LENGTH: 524288

 Memory used in sort:       0.78 MW

 SORT1 READ      284735. AND WROTE       98250. INTEGRALS IN      1 RECORDS. CPU TIME:     0.00 SEC, REAL TIME:     0.00 SEC
 SORT2 READ       98250. AND WROTE      222111. INTEGRALS IN      3 RECORDS. CPU TIME:     0.02 SEC, REAL TIME:     0.02 SEC

 FILE SIZES:   FILE 1:    30.9 MBYTE,  FILE 4:     4.2 MBYTE,   TOTAL:     35.1 MBYTE

 OPERATOR DM      FOR CENTER  0  COORDINATES:    0.000000    0.000000    0.000000


 **********************************************************************************************************************************
 DATASETS  * FILE   NREC   LENGTH (MB)   RECORD NAMES
              1      19       30.63       500      610      700      900      950      970     1000      129      960     1100   
                                          VAR    BASINP    GEOM    SYMINP    ZMAT    AOBASIS   BASIS     P2S    ABASIS      S 
                                         1400     1410     1200     1210     1080     1600     1650     1300     1700   
                                           T        V       H0       H01     AOSYM     SMH    MOLCAS    ERIS     OPER   

 PROGRAMS   *        TOTAL       INT
 CPU TIMES  *         0.34      0.25
 REAL TIME  *         0.57 SEC
 DISK USED  *        35.45 MB
 **********************************************************************************************************************************


 PROGRAM * RHF-SCF (CLOSED SHELL)       Authors: W. Meyer, H.-J. Werner


 NUMBER OF ELECTRONS:       8+    8-    SPACE SYMMETRY=1    SPIN SYMMETRY: Singlet 
 CONVERGENCE THRESHOLDS:    1.00E-05 (Density)    1.00E-07 (Energy)
 MAX. NUMBER OF ITERATIONS:       60
 INTERPOLATION TYPE:            DIIS
 INTERPOLATION STEPS:              2 (START)      1 (STEP)
 LEVEL SHIFTS:                  0.00 (CLOSED)  0.00 (OPEN) 



 Orbital guess generated from atomic densities. Full valence occupancy:    8

 Molecular orbital dump at record        2100.2

 Initial occupancy:   8

 ITERATION    DDIFF          GRAD             ENERGY        2-EL.EN.            DIPOLE MOMENTS         DIIS   ORB.
    1      0.000D+00      0.000D+00       -78.00008025    117.408273    0.00000   -0.00000   -0.00000    0    start
    2      0.000D+00      0.802D-02       -78.02033342    115.904155   -0.00000   -0.00000    0.00000    1    diag
    3      0.782D-02      0.258D-02       -78.02209011    116.433467   -0.00000   -0.00000    0.00000    2    diag
    4      0.237D-02      0.677D-03       -78.02227478    116.333471   -0.00000   -0.00000   -0.00000    3    diag
    5      0.987D-03      0.619D-04       -78.02227649    116.336083   -0.00000   -0.00000   -0.00000    4    diag
    6      0.130D-03      0.614D-05       -78.02227651    116.335749   -0.00000   -0.00000   -0.00000    5    diag
    7      0.101D-04      0.962D-06       -78.02227651    116.335757    0.00000    0.00000    0.00000    6    diag
    8      0.130D-05      0.956D-07       -78.02227651    116.335753   -0.00000   -0.00000    0.00000    0    orth

 Final occupancy:   8

 !RHF STATE  1.1 Energy               -78.022276511286
 Nuclear energy                        32.87808855
 One-electron energy                 -169.06824148
 Two-electron energy                   58.16787642
 Virial quotient                       -1.00080474
 !RHF STATE  1.1 Dipole moment         -0.00000000    -0.00000000     0.00000000
 Dipole moment /Debye                  -0.00000000    -0.00000000     0.00000000

 ELECTRON ORBITALS
 =================

  Orbital  Occupation    Energy     Coefficients
    1.1     2.00000   -11.23015     1 1s    0.70427     2 1s    0.70427
    2.1     2.00000   -11.22898     1 1s    0.70450     2 1s   -0.70450
    3.1     2.00000    -1.01228     1 1s    0.29944     2 1s    0.29944
    4.1     2.00000    -0.80559     2 1s   -0.24519
    5.1     2.00000    -0.64065     1 2py   0.32276     2 2py   0.32276
    6.1     2.00000    -0.57129     1 2pz   0.40743     2 2pz  -0.40743
    7.1     2.00000    -0.52332     1 2py   0.31306     2 2py  -0.31306
    8.1     2.00000    -0.35399     1 2px   0.36730     1 2px   0.32022     2 2px   0.36730     2 2px   0.32022
    9.1     0.00000     0.16387     1 2px   0.34757     1 2px   0.69581     2 2px  -0.34757     2 2px  -0.69581
   10.1     0.00000     0.26884     1 1s   -1.53806     1 2pz  -0.63451     2 1s   -1.53806     2 2pz   0.63451     3 1s    1.06539
                                    4 1s    1.06539     5 1s    1.06539     6 1s    1.06539
   11.1     0.00000     0.30503     1 2py  -0.85638     2 2py  -0.85638     3 1s    1.15249     4 1s   -1.15249     5 1s    1.15249
                                    6 1s   -1.15249
   12.1     0.00000     0.31148     1 1s    1.99542     2 1s   -1.99542     3 1s   -1.08486     4 1s   -1.08486     5 1s    1.08486
                                    6 1s    1.08486
   13.1     0.00000     0.38786     1 2py  -1.83291     2 2py   1.83291     3 1s    1.65751     4 1s   -1.65751     5 1s   -1.65751
                                    6 1s    1.65751
   14.1     0.00000     0.47380     1 1s   -2.28706     1 2pz   2.65587     2 1s    2.28706     2 2pz   2.65587     3 1s   -0.61630
                                    4 1s   -0.61630     5 1s    0.61630     6 1s    0.61630
   15.1     0.00000     0.68794     1 1s    0.36931     1 2pz  -0.57013     1 2pz   1.02939     2 1s    0.36931     2 2pz   0.57013
                                    2 2pz  -1.02939
   16.1     0.00000     0.74422     1 2py  -0.39709     1 2py   0.79879     2 2py  -0.39709     2 2py   0.79879     3 1s   -0.37409
                                    4 1s    0.37409     5 1s   -0.37409     6 1s    0.37409
   17.1     0.00000     0.79012     1 2px  -0.75419     1 2px   0.63981     2 2px  -0.75419     2 2px   0.63981
   18.1     0.00000     0.86227     1 1s   -0.90886     1 1s    1.49249     1 2pz   0.26091     2 1s   -0.90886     2 1s    1.49249
                                    2 2pz  -0.26091     3 1s   -0.38047     3 1s   -0.25232     4 1s   -0.38047     4 1s   -0.25232
                                    5 1s   -0.38047     5 1s   -0.25232     6 1s   -0.38047     6 1s   -0.25232
   19.1     0.00000     0.88296     1 2px  -0.81239     1 2px   1.05126     2 2px   0.81239     2 2px  -1.05126
   20.1     0.00000     0.90886     1 1s   -0.48587     1 2pz   0.64045     1 2pz  -0.77587     2 1s    0.48587     2 2pz   0.64045
                                    2 2pz  -0.77587     3 1s    0.34957     4 1s    0.34957     5 1s   -0.34957     6 1s   -0.34957
   21.1     0.00000     1.15154     1 2py   0.70444     1 2py  -1.10263     2 2py   0.70444     2 2py  -1.10263     3 1s   -0.39223
                                    3 1s    1.06961     4 1s    0.39223     4 1s   -1.06961     5 1s   -0.39223     5 1s    1.06961
                                    6 1s    0.39223     6 1s   -1.06961
   22.1     0.00000     1.16341     1 2py   0.92266     1 2py  -3.00701     2 2py  -0.92266     2 2py   3.00701     3 1s    1.58137
                                    4 1s   -1.58137     5 1s   -1.58137     6 1s    1.58137
   23.1     0.00000     1.22776     1 1s   -0.57525     1 2pz  -0.63205     1 2pz   1.54185     2 1s    0.57525     2 2pz  -0.63205
                                    2 2pz   1.54185     3 1s    0.50745     3 1s   -0.86331     4 1s    0.50745     4 1s   -0.86331
                                    5 1s   -0.50745     5 1s    0.86331     6 1s   -0.50745     6 1s    0.86331
   24.1     0.00000     1.23049     1 1s    1.04119     1 1s   -1.75448     1 2pz   0.36161     1 2pz  -0.49344     2 1s    1.04119
                                    2 1s   -1.75448     2 2pz  -0.36161     2 2pz   0.49344     3 1s   -0.44339     3 1s    0.87866
                                    4 1s   -0.44339     4 1s    0.87866     5 1s   -0.44339     5 1s    0.87866     6 1s   -0.44339
                                    6 1s    0.87866
   25.1     0.00000     1.30893     1 1s   -1.66712     1 1s    5.00881     1 2pz  -1.41028     2 1s    1.66712     2 1s   -5.00881
                                    2 2pz  -1.41028     3 1s   -0.57962     4 1s   -0.57962     5 1s    0.57962     6 1s    0.57962
   26.1     0.00000     1.45954     1 2py   2.33874     2 2py  -2.33874     3 1s   -0.69322     3 1s   -0.62661     4 1s    0.69322
                                    4 1s    0.62661     5 1s    0.69322     5 1s    0.62661     6 1s   -0.69322     6 1s   -0.62661
   27.1     0.00000     1.72095     1 3d1+  0.62797     2 3d1+ -0.62797
   28.1     0.00000     1.83902     1 3d2-  0.68669     2 3d2-  0.68669
   29.1     0.00000     2.09882     1 3d2-  0.72946     2 3d2- -0.72946
   30.1     0.00000     2.23388     1 1s    0.33198     1 1s   -0.62554     1 3d0  -0.32830     1 3d2+  0.64125     2 1s    0.33198
                                    2 1s   -0.62554     2 3d0  -0.32830     2 3d2+  0.64125     3 1s    0.31708     4 1s    0.31708
                                    5 1s    0.31708     6 1s    0.31708
   31.1     0.00000     2.34623     1 2py   0.27501     1 3d1-  0.70941     2 2py   0.27501     2 3d1- -0.70941     3 1s   -0.53652
                                    4 1s    0.53652     5 1s   -0.53652     6 1s    0.53652
   32.1     0.00000     2.35172     1 1s   -0.40981     1 2pz  -0.45770     1 3d0   0.59892     1 3d2+  0.37839     2 1s   -0.40981
                                    2 2pz   0.45770     2 3d0   0.59892     2 3d2+  0.37839     3 1s    0.28644     4 1s    0.28644
                                    5 1s    0.28644     6 1s    0.28644
   33.1     0.00000     2.62141     1 1s    0.26612     1 1s   -1.25265     1 3d2+  0.79856     2 1s   -0.26612     2 1s    1.25265
                                    2 3d2+ -0.79856     3 1s    0.46235     4 1s    0.46235     5 1s   -0.46235     6 1s   -0.46235
   34.1     0.00000     2.64014     1 2px  -0.25317     1 3d1+  0.86635     2 2px   0.25317     2 3d1+  0.86635
   35.1     0.00000     2.99745     1 1s    1.91895     1 2pz  -0.63562     1 2pz  -1.15208     1 3d0   1.07039     2 1s   -1.91895
                                    2 2pz  -0.63562     2 2pz  -1.15208     2 3d0  -1.07039
   36.1     0.00000     3.02297     1 2py   0.62582     1 3d1-  0.93954     2 2py  -0.62582     2 3d1-  0.93954     3 1s   -0.50507
                                    4 1s    0.50507     5 1s    0.50507     6 1s   -0.50507


 HOMO      8.1    -0.353985 =      -9.6324eV
 LUMO      9.1     0.163875 =       4.4593eV
 LUMO-HOMO         0.517860 =      14.0917eV


 **********************************************************************************************************************************
 DATASETS  * FILE   NREC   LENGTH (MB)   RECORD NAMES
              1      19       30.63       500      610      700      900      950      970     1000      129      960     1100   
                                          VAR    BASINP    GEOM    SYMINP    ZMAT    AOBASIS   BASIS     P2S    ABASIS      S 
                                         1400     1410     1200     1210     1080     1600     1650     1300     1700   
                                           T        V       H0       H01     AOSYM     SMH    MOLCAS    ERIS     OPER   

              2       4        2.86       700     1000      520     2100   
                                         GEOM     BASIS   MCVARS     RHF  

 PROGRAMS   *        TOTAL    HF-SCF       INT
 CPU TIMES  *         0.43      0.09      0.25
 REAL TIME  *         0.69 SEC
 DISK USED  *        35.45 MB
 **********************************************************************************************************************************


 PROGRAM * MULTI (Direct Multiconfiguration SCF)       Authors: P.J. Knowles, H.-J. Werner (1984)


 Number of closed-shell orbitals:   7 (   7 )
 Number of active  orbitals:        2 (   2 )
 Number of external orbitals:      27 (  27 )

 State symmetry 1

 Number of electrons:     2    Spin symmetry=Singlet   Space symmetry=1
 Number of states:        3
 Number of CSFs:          3   (4 determinants, 4 intermediate states)

 Molecular orbitals read from record     2100.2  Type=RHF/CANONICAL (state 1.1)

 EXTRA SYMMETRY OF MOS IN SYMMETRY 1:   1 1 1 1 1 1 1 2 2 1   1 1 1 1 1 1 2 1 2 1   1 1 1 1 1 1 2 3 3 1   1 1 1 2 1 1

 Wavefunction dump at record             2140.2

 Convergence thresholds  0.10E-01 (gradient)  0.10E-05 (energy)  0.10E-02 (step length)

 Weight factors for state symmetry  1:    0.33333   0.33333   0.33333

 Number of orbital rotations:      257   (    14 Core/Active    189 Core/Virtual   0 Active/Active     54 Active/Virtual)
 Total number of variables:        269

 Micro-Iterations solved by the two-step solver

 ITER. MIC  NCI  NEG     ENERGY(VAR)     ENERGY(PROJ)   ENERGY CHANGE     GRAD(0)  GRAD(ORB)   GRAD(CI)     STEP       TIME

   1    3    3    0     -77.74495229     -77.75015180   -0.00519951    0.12004645 0.00000094 0.00000000  0.58D-01      0.06
   2    2    3    0     -77.75008290     -77.75008522   -0.00000232    0.00240258 0.00000114 0.00000000  0.13D-02      0.09
   3    2    3    0     -77.75008522     -77.75008522   -0.00000000    0.00000131 0.00000000 0.00000000  0.79D-06      0.12

 ** WVFN ****  CONVERGENCE REACHED, FINAL GRADIENT:  0.44D-12



 Results for state 1.1
 =====================

 !MCSCF STATE  1.1 Energy             -78.043822311447
 Nuclear energy                        32.87808855
 Kinetic energy                        78.00316547
 One electron energy                 -169.13970377
 Two electron energy                   58.21779292
 Virial ratio                           2.00052122

 !MCSCF STATE  1.1 Dipole moment        0.00000000    -0.00000000     0.00000000
 Dipole moment /Debye                   0.00000000    -0.00000000     0.00000000

 Results for state 2.1
 =====================

 !MCSCF STATE  2.1 Energy             -77.683480576415
 Nuclear energy                        32.87808855
 Kinetic energy                        78.20255776
 One electron energy                 -168.68915258
 Two electron energy                   58.12758346
 Virial ratio                           1.99336240

 !MCSCF STATE  2.1 Dipole moment        0.00000000    -0.00000000     0.00000000
 Dipole moment /Debye                   0.00000000    -0.00000000     0.00000000

 Results for state 3.1
 =====================

 !MCSCF STATE  3.1 Energy             -77.522952779181
 Nuclear energy                        32.87808855
 Kinetic energy                        78.40195005
 One electron energy                 -168.23860139
 Two electron energy                   57.83756006
 Virial ratio                           1.98878858

 !MCSCF STATE  3.1 Dipole moment        0.00000000    -0.00000000     0.00000000
 Dipole moment /Debye                   0.00000000    -0.00000000     0.00000000

 State-averaged charge density matrix saved on record  2140.2 (density set 1)

 !MCSCF trans         <2.1|DMZ|1.1>    -1.512339349041 au =    -3.843731442736 Debye
 !MCSCF trans         <3.1|DMZ|2.1>    -2.396822408329 au =    -6.091715896562 Debye


 NATURAL ORBITALS (state averaged)
 =================================

  Orbital  Occupation    Energy     Coefficients
    1.1     2.00000   -11.24161     1 1s    0.70428     2 1s    0.70428
    2.1     2.00000   -11.24068     1 1s    0.70446     2 1s   -0.70446
    3.1     2.00000    -1.02305     1 1s    0.30690     2 1s    0.30690
    4.1     2.00000    -0.81205     1 1s    0.27635     2 1s   -0.27635
    5.1     2.00000    -0.65103     1 2py   0.32716     2 2py   0.32716
    6.1     2.00000    -0.58500     1 2pz   0.40965     2 2pz  -0.40965
    7.1     2.00000    -0.52878     1 2py   0.31824     2 2py  -0.31824
    8.1     1.00000    -0.21311     1 2px   0.35065     1 2px   0.33266     2 2px   0.35065     2 2px   0.33266
    9.1     1.00000     0.02196     1 2px   0.38104     1 2px   0.65500     2 2px  -0.38104     2 2px  -0.65500
   10.1    -0.00000     0.26657     1 1s   -1.53499     1 2pz  -0.64089     2 1s   -1.53499     2 2pz   0.64089     3 1s    1.06515
                                    4 1s    1.06515     5 1s    1.06515     6 1s    1.06515
   11.1    -0.00000     0.29795     1 2py  -0.85013     2 2py  -0.85013     3 1s    1.14578     4 1s   -1.14578     5 1s    1.14578
                                    6 1s   -1.14578
   12.1    -0.00000     0.30868     1 1s    2.02259     2 1s   -2.02259     3 1s   -1.07730     4 1s   -1.07730     5 1s    1.07730
                                    6 1s    1.07730
   13.1    -0.00000     0.38471     1 2py  -1.82209     2 2py   1.82209     3 1s    1.65205     4 1s   -1.65205     5 1s   -1.65205
                                    6 1s    1.65205
   14.1    -0.00000     0.47033     1 1s   -2.25274     1 2pz   2.63287     2 1s    2.25274     2 2pz   2.63287     3 1s   -0.62962
                                    4 1s   -0.62962     5 1s    0.62962     6 1s    0.62962
   15.1    -0.00000     0.67883     1 1s    0.26953     1 2pz  -0.56667     1 2pz   1.00732     2 1s    0.26953     2 2pz   0.56667
                                    2 2pz  -1.00732
   16.1    -0.00000     0.73452     1 2py  -0.40694     1 2py   0.80178     2 2py  -0.40694     2 2py   0.80178     3 1s   -0.37060
                                    4 1s    0.37060     5 1s   -0.37060     6 1s    0.37060
   17.1    -0.00000     0.78480     1 2px  -0.76156     1 2px   0.63364     2 2px  -0.76156     2 2px   0.63364
   18.1    -0.00000     0.85923     1 1s   -0.90487     1 1s    1.52590     1 2pz   0.31440     2 1s   -0.90487     2 1s    1.52590
                                    2 2pz  -0.31440     3 1s   -0.38443     3 1s   -0.26571     4 1s   -0.38443     4 1s   -0.26571
                                    5 1s   -0.38443     5 1s   -0.26571     6 1s   -0.38443     6 1s   -0.26571
   19.1    -0.00000     0.86756     1 2px  -0.79809     1 2px   1.07709     2 2px   0.79809     2 2px  -1.07709
   20.1    -0.00000     0.89293     1 1s   -0.35434     1 2pz   0.64039     1 2pz  -0.84795     2 1s    0.35434     2 2pz   0.64039
                                    2 2pz  -0.84795     3 1s    0.35138     4 1s    0.35138     5 1s   -0.35138     6 1s   -0.35138
   21.1    -0.00000     1.13819     1 2py   0.69490     1 2py  -1.10517     2 2py   0.69490     2 2py  -1.10517     3 1s   -0.39191
                                    3 1s    1.07732     4 1s    0.39191     4 1s   -1.07732     5 1s   -0.39191     5 1s    1.07732
                                    6 1s    0.39191     6 1s   -1.07732
   22.1    -0.00000     1.15305     1 2py   0.92031     1 2py  -3.01115     2 2py  -0.92031     2 2py   3.01115     3 1s    1.58796
                                    4 1s   -1.58796     5 1s   -1.58796     6 1s    1.58796
   23.1    -0.00000     1.22325     1 1s   -1.07008     1 2pz  -0.64200     1 2pz   1.67597     2 1s    1.07008     2 2pz  -0.64200
                                    2 2pz   1.67597     3 1s    0.50466     3 1s   -0.79998     4 1s    0.50466     4 1s   -0.79998
                                    5 1s   -0.50466     5 1s    0.79998     6 1s   -0.50466     6 1s    0.79998
   24.1    -0.00000     1.22843     1 1s    1.03632     1 1s   -1.74994     1 2pz   0.36589     1 2pz  -0.49904     2 1s    1.03632
                                    2 1s   -1.74994     2 2pz  -0.36589     2 2pz   0.49904     3 1s   -0.44377     3 1s    0.87779
                                    4 1s   -0.44377     4 1s    0.87779     5 1s   -0.44377     5 1s    0.87779     6 1s   -0.44377
                                    6 1s    0.87779
   25.1    -0.00000     1.29427     1 1s   -1.67596     1 1s    4.93154     1 2pz  -1.24251     2 1s    1.67596     2 1s   -4.93154
                                    2 2pz  -1.24251     3 1s   -0.66577     4 1s   -0.66577     5 1s    0.66577     6 1s    0.66577
   26.1    -0.00000     1.45148     1 2py   2.34067     2 2py  -2.34067     3 1s   -0.69214     3 1s   -0.62700     4 1s    0.69214
                                    4 1s    0.62700     5 1s    0.69214     5 1s    0.62700     6 1s   -0.69214     6 1s   -0.62700
   27.1    -0.00000     1.69921     1 3d1+  0.62781     2 3d1+ -0.62781
   28.1    -0.00000     1.82790     1 3d2-  0.68669     2 3d2-  0.68669
   29.1    -0.00000     2.07866     1 3d2-  0.72946     2 3d2- -0.72946
   30.1    -0.00000     2.22036     1 1s    0.33375     1 1s   -0.61950     1 3d0  -0.33771     1 3d2+  0.63501     2 1s    0.33375
                                    2 1s   -0.61950     2 3d0  -0.33771     2 3d2+  0.63501     3 1s    0.31434     4 1s    0.31434
                                    5 1s    0.31434     6 1s    0.31434
   31.1    -0.00000     2.33251     1 2py   0.28169     1 3d1-  0.70772     2 2py   0.28169     2 3d1- -0.70772     3 1s   -0.53968
                                    4 1s    0.53968     5 1s   -0.53968     6 1s    0.53968
   32.1    -0.00000     2.33443     1 1s   -0.40396     1 2pz  -0.46154     1 3d0   0.59357     1 3d2+  0.38810     2 1s   -0.40396
                                    2 2pz   0.46154     2 3d0   0.59357     2 3d2+  0.38810     3 1s    0.29157     4 1s    0.29157
                                    5 1s    0.29157     6 1s    0.29157
   33.1    -0.00000     2.60448     1 1s    0.26661     1 1s   -1.25690     1 3d2+  0.79786     2 1s   -0.26661     2 1s    1.25690
                                    2 3d2+ -0.79786     3 1s    0.46518     4 1s    0.46518     5 1s   -0.46518     6 1s   -0.46518
   34.1    -0.00000     2.61973     1 2px  -0.25348     1 3d1+  0.86668     2 2px   0.25348     2 3d1+  0.86668
   35.1    -0.00000     2.98247     1 1s    1.93982     1 2pz  -0.62877     1 2pz  -1.16294     1 3d0   1.07159     2 1s   -1.93982
                                    2 2pz  -0.62877     2 2pz  -1.16294     2 3d0  -1.07159
   36.1    -0.00000     3.01196     1 2py   0.62594     1 3d1-  0.93911     2 2py  -0.62594     2 3d1-  0.93911     3 1s   -0.50727
                                    4 1s    0.50727     5 1s    0.50727     6 1s   -0.50727


 Natural orbital dump (state averaged) at molpro section  2140.2    (Orbital set 2)



 **********************************************************************************************************************************
 DATASETS  * FILE   NREC   LENGTH (MB)   RECORD NAMES
              1      20       31.36       500      610      700      900      950      970     1000      129      960     1100   
                                          VAR    BASINP    GEOM    SYMINP    ZMAT    AOBASIS   BASIS     P2S    ABASIS      S 
                                         1400     1410     1200     1210     1080     1600     1650     1300     1700     1380   
                                           T        V       H0       H01     AOSYM     SMH    MOLCAS    ERIS     OPER     JKOP   

              2       5        5.42       700     1000      520     2100     2140   
                                         GEOM     BASIS   MCVARS     RHF     MCSCF   

 PROGRAMS   *        TOTAL     MULTI    HF-SCF       INT
 CPU TIMES  *         0.58      0.15      0.09      0.25
 REAL TIME  *         0.88 SEC
 DISK USED  *        38.54 MB
 **********************************************************************************************************************************
 Molecular orbitals read from record     2140.2  Type=MCSCF/NATURAL (state averaged)
 Occupation numbers read from record     2140.2  Type=MCSCF/NATURAL (state averaged)
 Orbital energies read from record       2140.2  Type=MCSCF/NATURAL (state averaged)
 Redundancy group numbers read from rec  2140.2  Type=MCSCF/NATURAL (state averaged)

 MULTI/6-31G* energy=    -77.522952779181

           MULTI          HF-SCF
    -77.52295278    -78.02227651
 **********************************************************************************************************************************
 Molpro calculation terminated
