
 Primary working directories    : /scratch.local/johan406.molpro_temp/molpro.yiEICLckeB
 Secondary working directories  : /scratch.local/johan406.molpro_temp/molpro.yiEICLckeB
 Wavefunction directory         : /home/goodpast/johan406/wfu/
 Main file repository           : /scratch.local/johan406.molpro_temp/molpro.yiEICLckeB/

 id        : roweumn

 Nodes     nprocs
 cn0416       1

 Using customized tuning parameters: mindgm=1; mindgv=20; mindgc=4; mindgr=1; noblas=0; minvec=7
 default implementation of scratch files=df  


 Variables initialized (934), CPU time= 0.00 sec
                                                                                 !leave this line blank
 
 gprint, orbitals=30
 memory, 125., m
 symmetry, nosym
 nelect=16
 basis=6-31g*
 
 geometry={
 C 0.000 0.000 0.671
 C 0.000 -0.000 -0.671
 H 0.000 0.916 1.233
 H 0.000 -0.916 1.233
 H 0.000 0.916 -1.233
 H 0.000 -0.916 -1.233
 }
 
 hf
 {multi,
 closed 7
 occ 9
 wf,spin=0;STATE,3
 }
 
 Commands  initialized (763), CPU time= 0.01 sec, 617 directives.
 Default parameters read. Elapsed time= 0.04 sec

 Checking input...
 Passed
1


                                         ***  PROGRAM SYSTEM MOLPRO  ***
                                       Copyright, TTI GmbH Stuttgart, 2015
                                    Version 2019.2 linked Oct 25 2019 22:50:27


 **********************************************************************************************************************************
 LABEL *                                                                                 
  64 bit serial version                                                                  DATE: 15-Mar-23          TIME: 16:14:54  
 **********************************************************************************************************************************

 SHA1:             8dbd9ae1082e4ce945b0f27595c9eb2d4aa09004
 **********************************************************************************************************************************


 Variable memory set to  125000000 words,  buffer space 

 SETTING NELECT         =        16.00000000                                  
 SETTING BASIS          =    6-31G*
 ZSYMEL=NOSYM


Geometry recognized as XYZ



 Recomputing integrals since basis changed


 Using spherical harmonics

 Library entry C      S 6-31G                selected for orbital group  1
 Library entry C      P 6-31G                selected for orbital group  1
 Library entry C      D 6-31G*               selected for orbital group  1
 Library entry H      S 6-31G                selected for orbital group  2


 PROGRAM * SEWARD (Integral evaluation for generally contracted gaussian basis sets)     Author: Roland Lindh, 1990

 Geometry written to block  1 of record 700


 Point group  C1  



 ATOMIC COORDINATES

 NR  ATOM    CHARGE       X              Y              Z

   1  C       6.00    0.000000000    0.000000000    1.268006230
   2  C       6.00    0.000000000   -0.000000000   -1.268006230
   3  H       1.00    0.000000000    1.730989130    2.330032312
   4  H       1.00    0.000000000   -1.730989130    2.330032312
   5  H       1.00    0.000000000    1.730989130   -2.330032312
   6  H       1.00    0.000000000   -1.730989130   -2.330032312

 Bond lengths in Bohr (Angstrom)

 1-2  2.536012459  1-3  2.030818251  1-4  2.030818251  2-5  2.030818251  2-6  2.030818251
     ( 1.342000000)     ( 1.074662738)     ( 1.074662738)     ( 1.074662738)     ( 1.074662738)

 Bond angles

  1-2-5  121.53066084   1-2-6  121.53066084   2-1-3  121.53066084   2-1-4  121.53066084

  3-1-4  116.93867832   5-2-6  116.93867832

 NUCLEAR CHARGE:                   16
 NUMBER OF PRIMITIVE AOS:          72
 NUMBER OF SYMMETRY AOS:           70
 NUMBER OF CONTRACTIONS:           36   (   36A   )
 NUMBER OF CORE ORBITALS:           2   (    2A   )
 NUMBER OF VALENCE ORBITALS:       12   (   12A   )


 NUCLEAR REPULSION ENERGY   33.37567228

 EXTRA SYMMETRY OF AOS IN SYMMETRY 1:   1 1 1 2 1 1 2 1 1 1   3 2 1 1 1 1 1 2 1 1   2 1 1 1 3 2 1 1 1 1   1 1 1 1 1 1

 Eigenvalues of metric

         1 0.840E-02 0.171E-01 0.378E-01 0.462E-01 0.705E-01 0.195E+00 0.211E+00 0.226E+00


 Contracted 2-electron integrals neglected if value below      1.0D-11
 AO integral compression algorithm  1   Integral accuracy      1.0D-11

     0.786 MB (compressed) written to integral file ( 37.8%)


 NUMBER OF SORTED TWO-ELECTRON INTEGRALS:     222111.     BUFFER LENGTH:  32768
 NUMBER OF SEGMENTS:   1  SEGMENT LENGTH:     222111      RECORD LENGTH: 524288

 Memory used in sort:       0.78 MW

 SORT1 READ      284735. AND WROTE       98271. INTEGRALS IN      1 RECORDS. CPU TIME:     0.00 SEC, REAL TIME:     0.00 SEC
 SORT2 READ       98271. AND WROTE      222111. INTEGRALS IN      3 RECORDS. CPU TIME:     0.02 SEC, REAL TIME:     0.03 SEC

 FILE SIZES:   FILE 1:    30.9 MBYTE,  FILE 4:     4.2 MBYTE,   TOTAL:     35.1 MBYTE

 OPERATOR DM      FOR CENTER  0  COORDINATES:    0.000000    0.000000    0.000000


 **********************************************************************************************************************************
 DATASETS  * FILE   NREC   LENGTH (MB)   RECORD NAMES
              1      19       30.63       500      610      700      900      950      970     1000      129      960     1100   
                                          VAR    BASINP    GEOM    SYMINP    ZMAT    AOBASIS   BASIS     P2S    ABASIS      S 
                                         1400     1410     1200     1210     1080     1600     1650     1300     1700   
                                           T        V       H0       H01     AOSYM     SMH    MOLCAS    ERIS     OPER   

 PROGRAMS   *        TOTAL       INT
 CPU TIMES  *         0.32      0.24
 REAL TIME  *         0.51 SEC
 DISK USED  *        35.45 MB
 **********************************************************************************************************************************


 PROGRAM * RHF-SCF (CLOSED SHELL)       Authors: W. Meyer, H.-J. Werner


 NUMBER OF ELECTRONS:       8+    8-    SPACE SYMMETRY=1    SPIN SYMMETRY: Singlet 
 CONVERGENCE THRESHOLDS:    1.00E-05 (Density)    1.00E-07 (Energy)
 MAX. NUMBER OF ITERATIONS:       60
 INTERPOLATION TYPE:            DIIS
 INTERPOLATION STEPS:              2 (START)      1 (STEP)
 LEVEL SHIFTS:                  0.00 (CLOSED)  0.00 (OPEN) 



 Orbital guess generated from atomic densities. Full valence occupancy:    8

 Molecular orbital dump at record        2100.2

 Initial occupancy:   8

 ITERATION    DDIFF          GRAD             ENERGY        2-EL.EN.            DIPOLE MOMENTS         DIIS   ORB.
    1      0.000D+00      0.000D+00       -78.00646116    118.648150    0.00000   -0.00000   -0.00000    0    start
    2      0.000D+00      0.856D-02       -78.02828760    116.830457   -0.00000   -0.00000    0.00000    1    diag
    3      0.818D-02      0.289D-02       -78.03038450    117.454338    0.00000    0.00000   -0.00000    2    diag
    4      0.261D-02      0.710D-03       -78.03059181    117.355562   -0.00000    0.00000   -0.00000    3    diag
    5      0.106D-02      0.673D-04       -78.03059387    117.358431   -0.00000    0.00000   -0.00000    4    diag
    6      0.144D-03      0.788D-05       -78.03059390    117.358008    0.00000   -0.00000   -0.00000    5    diag
    7      0.149D-04      0.115D-05       -78.03059390    117.358016    0.00000    0.00000   -0.00000    6    diag
    8      0.170D-05      0.134D-06       -78.03059390    117.358010    0.00000    0.00000    0.00000    0    orth

 Final occupancy:   8

 !RHF STATE  1.1 Energy               -78.030593901742
 Nuclear energy                        33.37567228
 One-electron energy                 -170.08527121
 Two-electron energy                   58.67900502
 Virial quotient                       -1.00016965
 !RHF STATE  1.1 Dipole moment          0.00000000     0.00000000     0.00000000
 Dipole moment /Debye                   0.00000000     0.00000000     0.00000000

 ELECTRON ORBITALS
 =================

  Orbital  Occupation    Energy     Coefficients
    1.1     2.00000   -11.22529     1 1s    0.70419     2 1s    0.70419
    2.1     2.00000   -11.22372     1 1s    0.70454     2 1s   -0.70454
    3.1     2.00000    -1.02604     1 1s    0.30192     2 1s    0.30192
    4.1     2.00000    -0.79251     2 1s   -0.24187
    5.1     2.00000    -0.63929     1 2py   0.32168     2 2py   0.32168
    6.1     2.00000    -0.58136     1 2pz   0.40737     2 2pz  -0.40737
    7.1     2.00000    -0.50717     1 2py   0.30594     2 2py  -0.30594
    8.1     2.00000    -0.36825     1 2px   0.37285     1 2px   0.30874     2 2px   0.37285     2 2px   0.30874
    9.1     0.00000     0.17779     1 2px   0.34239     1 2px   0.73156     2 2px  -0.34239     2 2px  -0.73156
   10.1     0.00000     0.26629     1 1s   -1.49664     1 2pz  -0.64384     2 1s   -1.49664     2 2pz   0.64384     3 1s    1.04071
                                    4 1s    1.04071     5 1s    1.04071     6 1s    1.04071
   11.1     0.00000     0.29537     1 2py  -0.25176     1 2py  -0.81519     2 2py  -0.25176     2 2py  -0.81519     3 1s    1.10720
                                    4 1s   -1.10720     5 1s    1.10720     6 1s   -1.10720
   12.1     0.00000     0.31004     1 1s    1.94444     2 1s   -1.94444     3 1s   -1.07764     4 1s   -1.07764     5 1s    1.07764
                                    6 1s    1.07764
   13.1     0.00000     0.39098     1 2py  -1.88153     2 2py   1.88153     3 1s    1.63691     4 1s   -1.63691     5 1s   -1.63691
                                    6 1s    1.63691
   14.1     0.00000     0.48922     1 1s   -2.94176     1 2pz   2.92879     2 1s    2.94176     2 2pz   2.92879     3 1s   -0.58791
                                    4 1s   -0.58791     5 1s    0.58791     6 1s    0.58791
   15.1     0.00000     0.67013     1 1s    0.25498     1 2pz  -0.55671     1 2pz   1.03658     2 1s    0.25498     2 2pz   0.55671
                                    2 2pz  -1.03658
   16.1     0.00000     0.76271     1 2py  -0.39838     1 2py   0.77793     2 2py  -0.39838     2 2py   0.77793     3 1s   -0.38606
                                    4 1s    0.38606     5 1s   -0.38606     6 1s    0.38606
   17.1     0.00000     0.77813     1 2px  -0.74150     1 2px   0.63953     2 2px  -0.74150     2 2px   0.63953
   18.1     0.00000     0.86192     1 1s   -0.88897     1 1s    1.45851     1 2pz   0.32404     2 1s   -0.88897     2 1s    1.45851
                                    2 2pz  -0.32404     3 1s   -0.39439     4 1s   -0.39439     5 1s   -0.39439     6 1s   -0.39439
   19.1     0.00000     0.89009     1 2px  -0.81818     1 2px   1.07242     2 2px   0.81818     2 2px  -1.07242
   20.1     0.00000     0.95217     1 1s   -0.85312     1 2pz   0.60656     1 2pz  -0.47604     2 1s    0.85312     2 2pz   0.60656
                                    2 2pz  -0.47604     3 1s    0.38148     4 1s    0.38148     5 1s   -0.38148     6 1s   -0.38148
   21.1     0.00000     1.11905     1 2py  -0.69160     1 2py   1.10430     2 2py  -0.69160     2 2py   1.10430     3 1s    0.38230
                                    3 1s   -1.06466     4 1s   -0.38230     4 1s    1.06466     5 1s    0.38230     5 1s   -1.06466
                                    6 1s   -0.38230     6 1s    1.06466
   22.1     0.00000     1.16123     1 2py   0.92577     1 2py  -2.95291     2 2py  -0.92577     2 2py   2.95291     3 1s    1.51770
                                    4 1s   -1.51770     5 1s   -1.51770     6 1s    1.51770
   23.1     0.00000     1.21655     1 1s    1.03737     1 1s   -1.72996     1 2pz   0.36545     1 2pz  -0.49514     2 1s    1.03737
                                    2 1s   -1.72996     2 2pz  -0.36545     2 2pz   0.49514     3 1s   -0.43965     3 1s    0.86742
                                    4 1s   -0.43965     4 1s    0.86742     5 1s   -0.43965     5 1s    0.86742     6 1s   -0.43965
                                    6 1s    0.86742
   24.1     0.00000     1.22234     1 1s   -0.50092     1 1s    0.40982     1 2pz  -0.62755     1 2pz   1.26343     2 1s    0.50092
                                    2 1s   -0.40982     2 2pz  -0.62755     2 2pz   1.26343     3 1s    0.47296     3 1s   -0.96563
                                    4 1s    0.47296     4 1s   -0.96563     5 1s   -0.47296     5 1s    0.96563     6 1s   -0.47296
                                    6 1s    0.96563
   25.1     0.00000     1.33649     1 1s   -1.60112     1 1s    5.37721     1 2pz   0.25046     1 2pz  -1.88669     2 1s    1.60112
                                    2 1s   -5.37721     2 2pz   0.25046     2 2pz  -1.88669     3 1s   -0.35151     4 1s   -0.35151
                                    5 1s    0.35151     6 1s    0.35151
   26.1     0.00000     1.47752     1 2py   2.54417     2 2py  -2.54417     3 1s   -0.69855     3 1s   -0.67558     4 1s    0.69855
                                    4 1s    0.67558     5 1s    0.69855     5 1s    0.67558     6 1s   -0.69855     6 1s   -0.67558
   27.1     0.00000     1.73804     1 3d1+  0.61955     2 3d1+ -0.61955
   28.1     0.00000     1.82272     1 3d2-  0.68157     2 3d2-  0.68157
   29.1     0.00000     2.12588     1 3d2-  0.73575     2 3d2- -0.73575
   30.1     0.00000     2.21106     1 1s   -0.60855     1 3d2+  0.71201     2 1s   -0.60855     2 3d2+  0.71201     3 1s    0.37305
                                    4 1s    0.37305     5 1s    0.37305     6 1s    0.37305
   31.1     0.00000     2.33296     1 2py   0.27697     1 3d1-  0.69300     2 2py   0.27697     2 3d1- -0.69300     3 1s   -0.52013
                                    4 1s    0.52013     5 1s   -0.52013     6 1s    0.52013
   32.1     0.00000     2.40520     1 1s   -0.50481     1 2pz   0.27983     1 2pz  -0.44701     1 3d0   0.68623     2 1s   -0.50481
                                    2 2pz  -0.27983     2 2pz   0.44701     2 3d0   0.68623
   33.1     0.00000     2.62918     1 1s    0.28993     1 1s   -1.35870     1 2pz   0.28273     1 3d2+  0.79971     2 1s   -0.28993
                                    2 1s    1.35870     2 2pz   0.28273     2 3d2+ -0.79971     3 1s    0.44735     4 1s    0.44735
                                    5 1s   -0.44735     6 1s   -0.44735
   34.1     0.00000     2.70435     1 2px  -0.26379     1 3d1+  0.90035     2 2px   0.26379     2 3d1+  0.90035
   35.1     0.00000     3.05794     1 1s    0.30429     1 1s    2.01404     1 2pz  -0.78671     1 2pz  -1.17414     1 3d0   1.10939
                                    2 1s   -0.30429     2 1s   -2.01404     2 2pz  -0.78671     2 2pz  -1.17414     2 3d0  -1.10939
   36.1     0.00000     3.05813     1 2py   0.57398     1 3d1-  0.96821     2 2py  -0.57398     2 3d1-  0.96821     3 1s   -0.47977
                                    4 1s    0.47977     5 1s    0.47977     6 1s   -0.47977


 HOMO      8.1    -0.368252 =     -10.0206eV
 LUMO      9.1     0.177787 =       4.8378eV
 LUMO-HOMO         0.546039 =      14.8585eV


 **********************************************************************************************************************************
 DATASETS  * FILE   NREC   LENGTH (MB)   RECORD NAMES
              1      19       30.63       500      610      700      900      950      970     1000      129      960     1100   
                                          VAR    BASINP    GEOM    SYMINP    ZMAT    AOBASIS   BASIS     P2S    ABASIS      S 
                                         1400     1410     1200     1210     1080     1600     1650     1300     1700   
                                           T        V       H0       H01     AOSYM     SMH    MOLCAS    ERIS     OPER   

              2       4        2.86       700     1000      520     2100   
                                         GEOM     BASIS   MCVARS     RHF  

 PROGRAMS   *        TOTAL    HF-SCF       INT
 CPU TIMES  *         0.41      0.09      0.24
 REAL TIME  *         0.63 SEC
 DISK USED  *        35.45 MB
 **********************************************************************************************************************************


 PROGRAM * MULTI (Direct Multiconfiguration SCF)       Authors: P.J. Knowles, H.-J. Werner (1984)


 Number of closed-shell orbitals:   7 (   7 )
 Number of active  orbitals:        2 (   2 )
 Number of external orbitals:      27 (  27 )

 State symmetry 1

 Number of electrons:     2    Spin symmetry=Singlet   Space symmetry=1
 Number of states:        3
 Number of CSFs:          3   (4 determinants, 4 intermediate states)

 Molecular orbitals read from record     2100.2  Type=RHF/CANONICAL (state 1.1)

 EXTRA SYMMETRY OF MOS IN SYMMETRY 1:   1 1 1 1 1 1 1 2 2 1   1 1 1 1 1 1 2 1 2 1   1 1 1 1 1 1 2 3 3 1   1 1 1 2 1 1

 Wavefunction dump at record             2140.2

 Convergence thresholds  0.10E-01 (gradient)  0.10E-05 (energy)  0.10E-02 (step length)

 Weight factors for state symmetry  1:    0.33333   0.33333   0.33333

 Number of orbital rotations:      257   (    14 Core/Active    189 Core/Virtual   0 Active/Active     54 Active/Virtual)
 Total number of variables:        269

 Micro-Iterations solved by the two-step solver

 ITER. MIC  NCI  NEG     ENERGY(VAR)     ENERGY(PROJ)   ENERGY CHANGE     GRAD(0)  GRAD(ORB)   GRAD(CI)     STEP       TIME

   1    3    3    0     -77.73087677     -77.73704990   -0.00617313    0.13180486 0.00000149 0.00000000  0.62D-01      0.06
   2    2    3    0     -77.73695349     -77.73695715   -0.00000366    0.00299965 0.00000180 0.00000000  0.16D-02      0.09
   3    2    3    0     -77.73695715     -77.73695715   -0.00000000    0.00000209 0.00000000 0.00000000  0.13D-05      0.12

 ** WVFN ****  CONVERGENCE REACHED, FINAL GRADIENT:  0.12D-11



 Results for state 1.1
 =====================

 !MCSCF STATE  1.1 Energy             -78.048489109058
 Nuclear energy                        33.37567228
 Kinetic energy                        78.08412551
 One electron energy                 -170.21332125
 Two electron energy                   58.78915986
 Virial ratio                           1.99954362

 !MCSCF STATE  1.1 Dipole moment        0.00000000    -0.00000000     0.00000000
 Dipole moment /Debye                   0.00000000    -0.00000000     0.00000000

 Results for state 2.1
 =====================

 !MCSCF STATE  2.1 Energy             -77.673496782701
 Nuclear energy                        33.37567228
 Kinetic energy                        78.26578972
 One electron energy                 -169.64745122
 Two electron energy                   58.59828215
 Virial ratio                           1.99243229

 !MCSCF STATE  2.1 Dipole moment        0.00000000    -0.00000000     0.00000000
 Dipole moment /Debye                   0.00000000    -0.00000000     0.00000000

 Results for state 3.1
 =====================

 !MCSCF STATE  3.1 Energy             -77.488885571137
 Nuclear energy                        33.37567228
 Kinetic energy                        78.44745394
 One electron energy                 -169.08158119
 Two electron energy                   58.21702334
 Virial ratio                           1.98778076

 !MCSCF STATE  3.1 Dipole moment        0.00000000    -0.00000000    -0.00000000
 Dipole moment /Debye                   0.00000000    -0.00000000    -0.00000000

 State-averaged charge density matrix saved on record  2140.2 (density set 1)

 !MCSCF trans         <2.1|DMZ|1.1>    -1.510863608984 au =    -3.839980731321 Debye
 !MCSCF trans         <3.1|DMZ|2.1>    -2.280683223447 au =    -5.796538867049 Debye


 NATURAL ORBITALS (state averaged)
 =================================

  Orbital  Occupation    Energy     Coefficients
    1.1     2.00000   -11.24077     1 1s    0.70421     2 1s    0.70421
    2.1     2.00000   -11.23947     1 1s    0.70450     2 1s   -0.70450
    3.1     2.00000    -1.04056     1 1s    0.30991     2 1s    0.30991
    4.1     2.00000    -0.80028     1 1s    0.28687     2 1s   -0.28687
    5.1     2.00000    -0.65201     1 2py   0.32728     2 2py   0.32728
    6.1     2.00000    -0.59644     1 2pz   0.40910     2 2pz  -0.40910
    7.1     2.00000    -0.51376     1 2py   0.31235     2 2py  -0.31235
    8.1     1.00000     0.03306     1 2px   0.38011     1 2px   0.68493     2 2px  -0.38011     2 2px  -0.68493
    9.1     1.00000    -0.22458     1 2px   0.35739     1 2px   0.32020     2 2px   0.35739     2 2px   0.32020
   10.1    -0.00000     0.26354     1 1s   -1.49266     1 2pz  -0.64970     2 1s   -1.49266     2 2pz   0.64970     3 1s    1.04025
                                    4 1s    1.04025     5 1s    1.04025     6 1s    1.04025
   11.1    -0.00000     0.28701     1 2py  -0.25010     1 2py  -0.80572     2 2py  -0.25010     2 2py  -0.80572     3 1s    1.09878
                                    4 1s   -1.09878     5 1s    1.09878     6 1s   -1.09878
   12.1    -0.00000     0.30696     1 1s    1.96870     2 1s   -1.96870     3 1s   -1.07209     4 1s   -1.07209     5 1s    1.07209
                                    6 1s    1.07209
   13.1    -0.00000     0.38687     1 2py  -0.25054     1 2py  -1.86736     2 2py   0.25054     2 2py   1.86736     3 1s    1.63017
                                    4 1s   -1.63017     5 1s   -1.63017     6 1s    1.63017
   14.1    -0.00000     0.48647     1 1s   -2.91877     1 2pz   2.91050     2 1s    2.91877     2 2pz   2.91050     3 1s   -0.59748
                                    4 1s   -0.59748     5 1s    0.59748     6 1s    0.59748
   15.1    -0.00000     0.65896     1 2pz  -0.54911     1 2pz   1.01348     2 2pz   0.54911     2 2pz  -1.01348
   16.1    -0.00000     0.75218     1 2py  -0.40960     1 2py   0.78488     2 2py  -0.40960     2 2py   0.78488     3 1s   -0.38149
                                    4 1s    0.38149     5 1s   -0.38149     6 1s    0.38149
   17.1    -0.00000     0.77213     1 2px  -0.74816     1 2px   0.63422     2 2px  -0.74816     2 2px   0.63422
   18.1    -0.00000     0.85897     1 1s   -0.88257     1 1s    1.48366     1 2pz   0.37174     2 1s   -0.88257     2 1s    1.48366
                                    2 2pz  -0.37174     3 1s   -0.39634     4 1s   -0.39634     5 1s   -0.39634     6 1s   -0.39634
   19.1    -0.00000     0.87258     1 2px  -0.80267     1 2px   1.10262     2 2px   0.80267     2 2px  -1.10262
   20.1    -0.00000     0.93331     1 1s   -0.69671     1 2pz   0.61081     1 2pz  -0.55925     2 1s    0.69671     2 2pz   0.61081
                                    2 2pz  -0.55925     3 1s    0.38179     4 1s    0.38179     5 1s   -0.38179     6 1s   -0.38179
   21.1    -0.00000     1.10361     1 2py  -0.68013     1 2py   1.10606     2 2py  -0.68013     2 2py   1.10606     3 1s    0.38295
                                    3 1s   -1.07361     4 1s   -0.38295     4 1s    1.07361     5 1s    0.38295     5 1s   -1.07361
                                    6 1s   -0.38295     6 1s    1.07361
   22.1    -0.00000     1.14876     1 2py   0.92283     1 2py  -2.95777     2 2py  -0.92283     2 2py   2.95777     3 1s    1.52558
                                    4 1s   -1.52558     5 1s   -1.52558     6 1s    1.52558
   23.1    -0.00000     1.21335     1 1s    1.03247     1 1s   -1.72601     1 2pz   0.36917     1 2pz  -0.50082     2 1s    1.03247
                                    2 1s   -1.72601     2 2pz  -0.36917     2 2pz   0.50082     3 1s   -0.44017     3 1s    0.86699
                                    4 1s   -0.44017     4 1s    0.86699     5 1s   -0.44017     5 1s    0.86699     6 1s   -0.44017
                                    6 1s    0.86699
   24.1    -0.00000     1.21983     1 1s   -0.43038     1 2pz  -0.64168     1 2pz   1.34644     2 1s    0.43038     2 2pz  -0.64168
                                    2 2pz   1.34644     3 1s    0.47565     3 1s   -0.94927     4 1s    0.47565     4 1s   -0.94927
                                    5 1s   -0.47565     5 1s    0.94927     6 1s   -0.47565     6 1s    0.94927
   25.1    -0.00000     1.31703     1 1s   -1.62351     1 1s    5.40273     1 2pz  -1.82778     2 1s    1.62351     2 1s   -5.40273
                                    2 2pz  -1.82778     3 1s   -0.39570     4 1s   -0.39570     5 1s    0.39570     6 1s    0.39570
   26.1    -0.00000     1.46892     1 2py   2.54768     2 2py  -2.54768     3 1s   -0.69737     3 1s   -0.67683     4 1s    0.69737
                                    4 1s    0.67683     5 1s    0.69737     5 1s    0.67683     6 1s   -0.69737     6 1s   -0.67683
   27.1    -0.00000     1.71256     1 3d1+  0.61929     2 3d1+ -0.61929
   28.1    -0.00000     1.80900     1 3d2-  0.68157     2 3d2-  0.68157
   29.1    -0.00000     2.10293     1 3d2-  0.73575     2 3d2- -0.73575
   30.1    -0.00000     2.19576     1 1s   -0.60439     1 3d2+  0.71146     2 1s   -0.60439     2 3d2+  0.71146     3 1s    0.37485
                                    4 1s    0.37485     5 1s    0.37485     6 1s    0.37485
   31.1    -0.00000     2.31689     1 2py   0.28386     1 3d1-  0.69123     2 2py   0.28386     2 3d1- -0.69123     3 1s   -0.52353
                                    4 1s    0.52353     5 1s   -0.52353     6 1s    0.52353
   32.1    -0.00000     2.38519     1 1s   -0.50282     1 2pz   0.28563     1 2pz  -0.44989     1 3d0   0.68593     2 1s   -0.50282
                                    2 2pz  -0.28563     2 2pz   0.44989     2 3d0   0.68593
   33.1    -0.00000     2.60959     1 1s    0.29078     1 1s   -1.36464     1 2pz   0.28160     1 3d2+  0.79896     2 1s   -0.29078
                                    2 1s    1.36464     2 2pz   0.28160     2 3d2+ -0.79896     3 1s    0.45042     4 1s    0.45042
                                    5 1s   -0.45042     6 1s   -0.45042
   34.1    -0.00000     2.68192     1 2px  -0.26452     1 3d1+  0.90073     2 2px   0.26452     2 3d1+  0.90073
   35.1    -0.00000     3.04007     1 1s    0.29722     1 1s    2.03950     1 2pz  -0.77923     1 2pz  -1.18742     1 3d0   1.11101
                                    2 1s   -0.29722     2 1s   -2.03950     2 2pz  -0.77923     2 2pz  -1.18742     2 3d0  -1.11101
   36.1    -0.00000     3.04544     1 2py   0.57417     1 3d1-  0.96781     2 2py  -0.57417     2 3d1-  0.96781     3 1s   -0.48208
                                    4 1s    0.48208     5 1s    0.48208     6 1s   -0.48208


 Natural orbital dump (state averaged) at molpro section  2140.2    (Orbital set 2)



 **********************************************************************************************************************************
 DATASETS  * FILE   NREC   LENGTH (MB)   RECORD NAMES
              1      20       31.36       500      610      700      900      950      970     1000      129      960     1100   
                                          VAR    BASINP    GEOM    SYMINP    ZMAT    AOBASIS   BASIS     P2S    ABASIS      S 
                                         1400     1410     1200     1210     1080     1600     1650     1300     1700     1380   
                                           T        V       H0       H01     AOSYM     SMH    MOLCAS    ERIS     OPER     JKOP   

              2       5        5.42       700     1000      520     2100     2140   
                                         GEOM     BASIS   MCVARS     RHF     MCSCF   

 PROGRAMS   *        TOTAL     MULTI    HF-SCF       INT
 CPU TIMES  *         0.57      0.16      0.09      0.24
 REAL TIME  *         0.83 SEC
 DISK USED  *        38.55 MB
 **********************************************************************************************************************************
 Molecular orbitals read from record     2140.2  Type=MCSCF/NATURAL (state averaged)
 Occupation numbers read from record     2140.2  Type=MCSCF/NATURAL (state averaged)
 Orbital energies read from record       2140.2  Type=MCSCF/NATURAL (state averaged)
 Redundancy group numbers read from rec  2140.2  Type=MCSCF/NATURAL (state averaged)

 MULTI/6-31G* energy=    -77.488885571137

           MULTI          HF-SCF
    -77.48888557    -78.03059390
 **********************************************************************************************************************************
 Molpro calculation terminated
