
 Primary working directories    : /scratch.local/johan406.molpro_temp/molpro.ulNTzZLAvo
 Secondary working directories  : /scratch.local/johan406.molpro_temp/molpro.ulNTzZLAvo
 Wavefunction directory         : /home/goodpast/johan406/wfu/
 Main file repository           : /scratch.local/johan406.molpro_temp/molpro.ulNTzZLAvo/

 id        : roweumn

 Nodes     nprocs
 cn0416       1

 Using customized tuning parameters: mindgm=1; mindgv=20; mindgc=4; mindgr=1; noblas=0; minvec=7
 default implementation of scratch files=df  


 Variables initialized (934), CPU time= 0.00 sec
                                                                                 !leave this line blank
 
 gprint, orbitals=30
 memory, 125., m
 symmetry, nosym
 nelect=16
 basis=6-31g*
 
 geometry={
 C 0.000 0.000 0.698
 C 0.000 -0.000 -0.698
 H 0.000 0.905 1.244
 H 0.000 -0.905 1.244
 H 0.000 0.905 -1.244
 H 0.000 -0.905 -1.244
 }
 
 hf
 {multi,
 closed 7
 occ 9
 wf,spin=0;STATE,3
 }
 
 Commands  initialized (763), CPU time= 0.00 sec, 617 directives.
 Default parameters read. Elapsed time= 0.04 sec

 Checking input...
 Passed
1


                                         ***  PROGRAM SYSTEM MOLPRO  ***
                                       Copyright, TTI GmbH Stuttgart, 2015
                                    Version 2019.2 linked Oct 25 2019 22:50:27


 **********************************************************************************************************************************
 LABEL *                                                                                 
  64 bit serial version                                                                  DATE: 15-Mar-23          TIME: 16:26:00  
 **********************************************************************************************************************************

 SHA1:             8dbd9ae1082e4ce945b0f27595c9eb2d4aa09004
 **********************************************************************************************************************************


 Variable memory set to  125000000 words,  buffer space 

 SETTING NELECT         =        16.00000000                                  
 SETTING BASIS          =    6-31G*
 ZSYMEL=NOSYM


Geometry recognized as XYZ



 Recomputing integrals since basis changed


 Using spherical harmonics

 Library entry C      S 6-31G                selected for orbital group  1
 Library entry C      P 6-31G                selected for orbital group  1
 Library entry C      D 6-31G*               selected for orbital group  1
 Library entry H      S 6-31G                selected for orbital group  2


 PROGRAM * SEWARD (Integral evaluation for generally contracted gaussian basis sets)     Author: Roland Lindh, 1990

 Geometry written to block  1 of record 700


 Point group  C1  



 ATOMIC COORDINATES

 NR  ATOM    CHARGE       X              Y              Z

   1  C       6.00    0.000000000    0.000000000    1.319028835
   2  C       6.00    0.000000000   -0.000000000   -1.319028835
   3  H       1.00    0.000000000    1.710202143    2.350819299
   4  H       1.00    0.000000000   -1.710202143    2.350819299
   5  H       1.00    0.000000000    1.710202143   -2.350819299
   6  H       1.00    0.000000000   -1.710202143   -2.350819299

 Bond lengths in Bohr (Angstrom)

 1-2  2.638057670  1-3  1.997343969  1-4  1.997343969  2-5  1.997343969  2-6  1.997343969
     ( 1.396000000)     ( 1.056948911)     ( 1.056948911)     ( 1.056948911)     ( 1.056948911)

 Bond angles

  1-2-5  121.10320729   1-2-6  121.10320729   2-1-3  121.10320729   2-1-4  121.10320729

  3-1-4  117.79358543   5-2-6  117.79358543

 NUCLEAR CHARGE:                   16
 NUMBER OF PRIMITIVE AOS:          72
 NUMBER OF SYMMETRY AOS:           70
 NUMBER OF CONTRACTIONS:           36   (   36A   )
 NUMBER OF CORE ORBITALS:           2   (    2A   )
 NUMBER OF VALENCE ORBITALS:       12   (   12A   )


 NUCLEAR REPULSION ENERGY   32.94417740

 EXTRA SYMMETRY OF AOS IN SYMMETRY 1:   1 1 1 2 1 1 2 1 1 1   3 2 1 1 1 1 1 2 1 1   2 1 1 1 3 2 1 1 1 1   1 1 1 1 1 1

 Eigenvalues of metric

         1 0.993E-02 0.173E-01 0.363E-01 0.452E-01 0.674E-01 0.210E+00 0.231E+00 0.234E+00


 Contracted 2-electron integrals neglected if value below      1.0D-11
 AO integral compression algorithm  1   Integral accuracy      1.0D-11

     0.786 MB (compressed) written to integral file ( 37.5%)


 NUMBER OF SORTED TWO-ELECTRON INTEGRALS:     222111.     BUFFER LENGTH:  32768
 NUMBER OF SEGMENTS:   1  SEGMENT LENGTH:     222111      RECORD LENGTH: 524288

 Memory used in sort:       0.78 MW

 SORT1 READ      284735. AND WROTE       98250. INTEGRALS IN      1 RECORDS. CPU TIME:     0.00 SEC, REAL TIME:     0.01 SEC
 SORT2 READ       98250. AND WROTE      222111. INTEGRALS IN      3 RECORDS. CPU TIME:     0.02 SEC, REAL TIME:     0.02 SEC

 FILE SIZES:   FILE 1:    30.9 MBYTE,  FILE 4:     4.2 MBYTE,   TOTAL:     35.1 MBYTE

 OPERATOR DM      FOR CENTER  0  COORDINATES:    0.000000    0.000000    0.000000


 **********************************************************************************************************************************
 DATASETS  * FILE   NREC   LENGTH (MB)   RECORD NAMES
              1      19       30.63       500      610      700      900      950      970     1000      129      960     1100   
                                          VAR    BASINP    GEOM    SYMINP    ZMAT    AOBASIS   BASIS     P2S    ABASIS      S 
                                         1400     1410     1200     1210     1080     1600     1650     1300     1700   
                                           T        V       H0       H01     AOSYM     SMH    MOLCAS    ERIS     OPER   

 PROGRAMS   *        TOTAL       INT
 CPU TIMES  *         0.30      0.22
 REAL TIME  *         0.49 SEC
 DISK USED  *        35.45 MB
 **********************************************************************************************************************************


 PROGRAM * RHF-SCF (CLOSED SHELL)       Authors: W. Meyer, H.-J. Werner


 NUMBER OF ELECTRONS:       8+    8-    SPACE SYMMETRY=1    SPIN SYMMETRY: Singlet 
 CONVERGENCE THRESHOLDS:    1.00E-05 (Density)    1.00E-07 (Energy)
 MAX. NUMBER OF ITERATIONS:       60
 INTERPOLATION TYPE:            DIIS
 INTERPOLATION STEPS:              2 (START)      1 (STEP)
 LEVEL SHIFTS:                  0.00 (CLOSED)  0.00 (OPEN) 



 Orbital guess generated from atomic densities. Full valence occupancy:    8

 Molecular orbital dump at record        2100.2

 Initial occupancy:   8

 ITERATION    DDIFF          GRAD             ENERGY        2-EL.EN.            DIPOLE MOMENTS         DIIS   ORB.
    1      0.000D+00      0.000D+00       -78.00097448    117.560645    0.00000   -0.00000    0.00000    0    start
    2      0.000D+00      0.808D-02       -78.02138744    116.027483    0.00000   -0.00000    0.00000    1    diag
    3      0.786D-02      0.260D-02       -78.02317169    116.564979    0.00000   -0.00000    0.00000    2    diag
    4      0.239D-02      0.681D-03       -78.02335859    116.465192   -0.00000    0.00000    0.00000    3    diag
    5      0.994D-03      0.623D-04       -78.02336033    116.467809   -0.00000   -0.00000   -0.00000    4    diag
    6      0.131D-03      0.626D-05       -78.02336035    116.467469    0.00000   -0.00000    0.00000    5    diag
    7      0.104D-04      0.976D-06       -78.02336035    116.467477    0.00000   -0.00000    0.00000    6    diag
    8      0.133D-05      0.983D-07       -78.02336035    116.467473    0.00000   -0.00000    0.00000    0    orth

 Final occupancy:   8

 !RHF STATE  1.1 Energy               -78.023360349812
 Nuclear energy                        32.94417740
 One-electron energy                 -169.20127407
 Two-electron energy                   58.23373631
 Virial quotient                       -1.00065944
 !RHF STATE  1.1 Dipole moment          0.00000000    -0.00000000     0.00000000
 Dipole moment /Debye                   0.00000000    -0.00000000     0.00000000

 ELECTRON ORBITALS
 =================

  Orbital  Occupation    Energy     Coefficients
    1.1     2.00000   -11.22934     1 1s    0.70426     2 1s    0.70426
    2.1     2.00000   -11.22814     1 1s    0.70450     2 1s   -0.70450
    3.1     2.00000    -1.01377     1 1s    0.29970     2 1s    0.29970
    4.1     2.00000    -0.80482     1 1s    0.24471
    5.1     2.00000    -0.64090     1 2py   0.32278     2 2py   0.32278
    6.1     2.00000    -0.57249     1 2pz   0.40761     2 2pz  -0.40761
    7.1     2.00000    -0.52215     1 2py   0.31264     2 2py  -0.31264
    8.1     2.00000    -0.35530     1 2px   0.36778     1 2px   0.31915     2 2px   0.36778     2 2px   0.31915
    9.1     0.00000     0.16524     1 2px   0.34707     1 2px   0.69919     2 2px  -0.34707     2 2px  -0.69919
   10.1     0.00000     0.26885     1 1s   -1.53750     1 2pz  -0.63616     2 1s   -1.53750     2 2pz   0.63616     3 1s    1.06491
                                    4 1s    1.06491     5 1s    1.06491     6 1s    1.06491
   11.1     0.00000     0.30452     1 2py  -0.85382     2 2py  -0.85382     3 1s    1.15062     4 1s   -1.15062     5 1s    1.15062
                                    6 1s   -1.15062
   12.1     0.00000     0.31175     1 1s    1.99610     2 1s   -1.99610     3 1s   -1.08628     4 1s   -1.08628     5 1s    1.08628
                                    6 1s    1.08628
   13.1     0.00000     0.38827     1 2py  -1.84024     2 2py   1.84024     3 1s    1.65920     4 1s   -1.65920     5 1s   -1.65920
                                    6 1s    1.65920
   14.1     0.00000     0.47549     1 1s   -2.34427     1 2pz   2.68313     2 1s    2.34427     2 2pz   2.68313     3 1s   -0.61556
                                    4 1s   -0.61556     5 1s    0.61556     6 1s    0.61556
   15.1     0.00000     0.68613     1 1s    0.35922     1 2pz  -0.56875     1 2pz   1.03041     2 1s    0.35922     2 2pz   0.56875
                                    2 2pz  -1.03041
   16.1     0.00000     0.74563     1 2py  -0.39689     1 2py   0.79827     2 2py  -0.39689     2 2py   0.79827     3 1s   -0.37498
                                    4 1s    0.37498     5 1s   -0.37498     6 1s    0.37498
   17.1     0.00000     0.78912     1 2px  -0.75304     1 2px   0.63977     2 2px  -0.75304     2 2px   0.63977
   18.1     0.00000     0.86209     1 1s   -0.90803     1 1s    1.49415     1 2pz   0.26763     2 1s   -0.90803     2 1s    1.49415
                                    2 2pz  -0.26763     3 1s   -0.38131     3 1s   -0.25272     4 1s   -0.38131     4 1s   -0.25272
                                    5 1s   -0.38131     5 1s   -0.25272     6 1s   -0.38131     6 1s   -0.25272
   19.1     0.00000     0.88369     1 2px  -0.81293     1 2px   1.05331     2 2px   0.81293     2 2px  -1.05331
   20.1     0.00000     0.91305     1 1s   -0.52269     1 2pz   0.63822     1 2pz  -0.75047     2 1s    0.52269     2 2pz   0.63822
                                    2 2pz  -0.75047     3 1s    0.35189     4 1s    0.35189     5 1s   -0.35189     6 1s   -0.35189
   21.1     0.00000     1.14932     1 2py   0.70343     1 2py  -1.10361     2 2py   0.70343     2 2py  -1.10361     3 1s   -0.39123
                                    3 1s    1.07035     4 1s    0.39123     4 1s   -1.07035     5 1s   -0.39123     5 1s    1.07035
                                    6 1s    0.39123     6 1s   -1.07035
   22.1     0.00000     1.16378     1 2py   0.92317     1 2py  -3.01350     2 2py  -0.92317     2 2py   3.01350     3 1s    1.58105
                                    4 1s   -1.58105     5 1s   -1.58105     6 1s    1.58105
   23.1     0.00000     1.22865     1 1s   -0.49196     1 2pz  -0.63285     1 2pz   1.52283     2 1s    0.49196     2 2pz  -0.63285
                                    2 2pz   1.52283     3 1s    0.50570     3 1s   -0.87554     4 1s    0.50570     4 1s   -0.87554
                                    5 1s   -0.50570     5 1s    0.87554     6 1s   -0.50570     6 1s    0.87554
   24.1     0.00000     1.23046     1 1s    1.04065     1 1s   -1.75299     1 2pz   0.36257     1 2pz  -0.49405     2 1s    1.04065
                                    2 1s   -1.75299     2 2pz  -0.36257     2 2pz   0.49405     3 1s   -0.44344     3 1s    0.87814
                                    4 1s   -0.44344     4 1s    0.87814     5 1s   -0.44344     5 1s    0.87814     6 1s   -0.44344
                                    6 1s    0.87814
   25.1     0.00000     1.31111     1 1s   -1.66429     1 1s    5.05314     1 2pz  -1.45651     2 1s    1.66429     2 1s   -5.05314
                                    2 2pz  -1.45651     3 1s   -0.56067     4 1s   -0.56067     5 1s    0.56067     6 1s    0.56067
   26.1     0.00000     1.46189     1 2py   2.35364     2 2py  -2.35364     3 1s   -0.69423     3 1s   -0.63072     4 1s    0.69423
                                    4 1s    0.63072     5 1s    0.69423     5 1s    0.63072     6 1s   -0.69423     6 1s   -0.63072
   27.1     0.00000     1.72224     1 3d1+  0.62709     2 3d1+ -0.62709
   28.1     0.00000     1.83734     1 3d2-  0.68622     2 3d2-  0.68622
   29.1     0.00000     2.10127     1 3d2-  0.73003     2 3d2- -0.73003
   30.1     0.00000     2.23395     1 1s    0.31684     1 1s   -0.62781     1 3d0  -0.30502     1 3d2+  0.65512     2 1s    0.31684
                                    2 1s   -0.62781     2 3d0  -0.30502     2 3d2+  0.65512     3 1s    0.32823     4 1s    0.32823
                                    5 1s    0.32823     6 1s    0.32823
   31.1     0.00000     2.34650     1 2py   0.27666     1 3d1-  0.70816     2 2py   0.27666     2 3d1- -0.70816     3 1s   -0.53618
                                    4 1s    0.53618     5 1s   -0.53618     6 1s    0.53618
   32.1     0.00000     2.35617     1 1s   -0.42463     1 2pz  -0.45750     1 3d0   0.61300     1 3d2+  0.35197     2 1s   -0.42463
                                    2 2pz   0.45750     2 3d0   0.61300     2 3d2+  0.35197     3 1s    0.27258     4 1s    0.27258
                                    5 1s    0.27258     6 1s    0.27258
   33.1     0.00000     2.62361     1 1s    0.26760     1 1s   -1.26392     1 3d2+  0.79903     2 1s   -0.26760     2 1s    1.26392
                                    2 3d2+ -0.79903     3 1s    0.46203     4 1s    0.46203     5 1s   -0.46203     6 1s   -0.46203
   34.1     0.00000     2.64649     1 2px  -0.25423     1 3d1+  0.86950     2 2px   0.25423     2 3d1+  0.86950
   35.1     0.00000     3.00271     1 1s    1.92899     1 2pz  -0.64964     1 2pz  -1.15490     1 3d0   1.07422     2 1s   -1.92899
                                    2 2pz  -0.64964     2 2pz  -1.15490     2 3d0  -1.07422
   36.1     0.00000     3.02838     1 2py   0.62439     1 3d1-  0.94278     2 2py  -0.62439     2 3d1-  0.94278     3 1s   -0.50420
                                    4 1s    0.50420     5 1s    0.50420     6 1s   -0.50420


 HOMO      8.1    -0.355301 =      -9.6682eV
 LUMO      9.1     0.165242 =       4.4965eV
 LUMO-HOMO         0.520543 =      14.1647eV


 **********************************************************************************************************************************
 DATASETS  * FILE   NREC   LENGTH (MB)   RECORD NAMES
              1      19       30.63       500      610      700      900      950      970     1000      129      960     1100   
                                          VAR    BASINP    GEOM    SYMINP    ZMAT    AOBASIS   BASIS     P2S    ABASIS      S 
                                         1400     1410     1200     1210     1080     1600     1650     1300     1700   
                                           T        V       H0       H01     AOSYM     SMH    MOLCAS    ERIS     OPER   

              2       4        2.86       700     1000      520     2100   
                                         GEOM     BASIS   MCVARS     RHF  

 PROGRAMS   *        TOTAL    HF-SCF       INT
 CPU TIMES  *         0.39      0.09      0.22
 REAL TIME  *         0.64 SEC
 DISK USED  *        35.45 MB
 **********************************************************************************************************************************


 PROGRAM * MULTI (Direct Multiconfiguration SCF)       Authors: P.J. Knowles, H.-J. Werner (1984)


 Number of closed-shell orbitals:   7 (   7 )
 Number of active  orbitals:        2 (   2 )
 Number of external orbitals:      27 (  27 )

 State symmetry 1

 Number of electrons:     2    Spin symmetry=Singlet   Space symmetry=1
 Number of states:        3
 Number of CSFs:          3   (4 determinants, 4 intermediate states)

 Molecular orbitals read from record     2100.2  Type=RHF/CANONICAL (state 1.1)

 EXTRA SYMMETRY OF MOS IN SYMMETRY 1:   1 1 1 1 1 1 1 2 2 1   1 1 1 1 1 1 2 1 2 1   1 1 1 1 1 1 2 3 3 1   1 1 1 2 1 1

 Wavefunction dump at record             2140.2

 Convergence thresholds  0.10E-01 (gradient)  0.10E-05 (energy)  0.10E-02 (step length)

 Weight factors for state symmetry  1:    0.33333   0.33333   0.33333

 Number of orbital rotations:      257   (    14 Core/Active    189 Core/Virtual   0 Active/Active     54 Active/Virtual)
 Total number of variables:        269

 Micro-Iterations solved by the two-step solver

 ITER. MIC  NCI  NEG     ENERGY(VAR)     ENERGY(PROJ)   ENERGY CHANGE     GRAD(0)  GRAD(ORB)   GRAD(CI)     STEP       TIME

   1    3    3    0     -77.74393115     -77.74921571   -0.00528456    0.12114305 0.00000098 0.00000000  0.58D-01      0.06
   2    2    3    0     -77.74914458     -77.74914700   -0.00000242    0.00245318 0.00000119 0.00000000  0.13D-02      0.09
   3    2    3    0     -77.74914700     -77.74914700   -0.00000000    0.00000136 0.00000000 0.00000000  0.82D-06      0.12

 ** WVFN ****  CONVERGENCE REACHED, FINAL GRADIENT:  0.49D-12



 Results for state 1.1
 =====================

 !MCSCF STATE  1.1 Energy             -78.044537031529
 Nuclear energy                        32.94417740
 Kinetic energy                        78.01764635
 One electron energy                 -169.27775822
 Two electron energy                   58.28904378
 Virial ratio                           2.00034467

 !MCSCF STATE  1.1 Dipole moment        0.00000000    -0.00000000    -0.00000000
 Dipole moment /Debye                   0.00000000    -0.00000000    -0.00000000

 Results for state 2.1
 =====================

 !MCSCF STATE  2.1 Energy             -77.682842548546
 Nuclear energy                        32.94417740
 Kinetic energy                        78.21557073
 One electron energy                 -168.81648626
 Two electron energy                   58.18946631
 Virial ratio                           1.99318898

 !MCSCF STATE  2.1 Dipole moment        0.00000000    -0.00000000    -0.00000000
 Dipole moment /Debye                   0.00000000    -0.00000000    -0.00000000

 Results for state 3.1
 =====================

 !MCSCF STATE  3.1 Energy             -77.520061417653
 Nuclear energy                        32.94417740
 Kinetic energy                        78.41349510
 One electron energy                 -168.35521430
 Two electron energy                   57.89097548
 Virial ratio                           1.98860612

 !MCSCF STATE  3.1 Dipole moment        0.00000000    -0.00000000    -0.00000000
 Dipole moment /Debye                   0.00000000    -0.00000000    -0.00000000

 State-averaged charge density matrix saved on record  2140.2 (density set 1)

 !MCSCF trans         <2.1|DMZ|1.1>    -1.512547168076 au =    -3.844259631438 Debye
 !MCSCF trans         <3.1|DMZ|2.1>    -2.385199132089 au =    -6.062174410135 Debye


 NATURAL ORBITALS (state averaged)
 =================================

  Orbital  Occupation    Energy     Coefficients
    1.1     2.00000   -11.24119     1 1s    0.70427     2 1s    0.70427
    2.1     2.00000   -11.24023     1 1s    0.70446     2 1s   -0.70446
    3.1     2.00000    -1.02488     1 1s    0.30721     2 1s    0.30721
    4.1     2.00000    -0.81140     1 1s    0.27691     2 1s   -0.27691
    5.1     2.00000    -0.65150     1 2py   0.32729     2 2py   0.32729
    6.1     2.00000    -0.58637     1 2pz   0.40980     2 2pz  -0.40980
    7.1     2.00000    -0.52773     1 2py   0.31794     2 2py  -0.31794
    8.1     1.00000    -0.21416     1 2px   0.35126     1 2px   0.33149     2 2px   0.35126     2 2px   0.33149
    9.1     1.00000     0.02304     1 2px   0.38093     1 2px   0.65784     2 2px  -0.38093     2 2px  -0.65784
   10.1    -0.00000     0.26653     1 1s   -1.53433     1 2pz  -0.64252     2 1s   -1.53433     2 2pz   0.64252     3 1s    1.06463
                                    4 1s    1.06463     5 1s    1.06463     6 1s    1.06463
   11.1    -0.00000     0.29733     1 2py  -0.84728     2 2py  -0.84728     3 1s    1.14375     4 1s   -1.14375     5 1s    1.14375
                                    6 1s   -1.14375
   12.1    -0.00000     0.30894     1 1s    2.02291     2 1s   -2.02291     3 1s   -1.07898     4 1s   -1.07898     5 1s    1.07898
                                    6 1s    1.07898
   13.1    -0.00000     0.38504     1 2py  -1.82911     2 2py   1.82911     3 1s    1.65361     4 1s   -1.65361     5 1s   -1.65361
                                    6 1s    1.65361
   14.1    -0.00000     0.47208     1 1s   -2.31129     1 2pz   2.66053     2 1s    2.31129     2 2pz   2.66053     3 1s   -0.62838
                                    4 1s   -0.62838     5 1s    0.62838     6 1s    0.62838
   15.1    -0.00000     0.67682     1 1s    0.26013     1 2pz  -0.56490     1 2pz   1.00815     2 1s    0.26013     2 2pz   0.56490
                                    2 2pz  -1.00815
   16.1    -0.00000     0.73582     1 2py  -0.40684     1 2py   0.80155     2 2py  -0.40684     2 2py   0.80155     3 1s   -0.37140
                                    4 1s    0.37140     5 1s   -0.37140     6 1s    0.37140
   17.1    -0.00000     0.78373     1 2px  -0.76035     1 2px   0.63370     2 2px  -0.76035     2 2px   0.63370
   18.1    -0.00000     0.85904     1 1s   -0.90376     1 1s    1.52678     1 2pz   0.32064     2 1s   -0.90376     2 1s    1.52678
                                    2 2pz  -0.32064     3 1s   -0.38508     3 1s   -0.26591     4 1s   -0.38508     4 1s   -0.26591
                                    5 1s   -0.38508     5 1s   -0.26591     6 1s   -0.38508     6 1s   -0.26591
   19.1    -0.00000     0.86809     1 2px  -0.79852     1 2px   1.07954     2 2px   0.79852     2 2px  -1.07954
   20.1    -0.00000     0.89681     1 1s   -0.38868     1 2pz   0.63849     1 2pz  -0.82357     2 1s    0.38868     2 2pz   0.63849
                                    2 2pz  -0.82357     3 1s    0.35363     4 1s    0.35363     5 1s   -0.35363     6 1s   -0.35363
   21.1    -0.00000     1.13574     1 2py   0.69372     1 2py  -1.10614     2 2py   0.69372     2 2py  -1.10614     3 1s   -0.39097
                                    3 1s    1.07819     4 1s    0.39097     4 1s   -1.07819     5 1s   -0.39097     5 1s    1.07819
                                    6 1s    0.39097     6 1s   -1.07819
   22.1    -0.00000     1.15321     1 2py   0.92078     1 2py  -3.01756     2 2py  -0.92078     2 2py   3.01756     3 1s    1.58773
                                    4 1s   -1.58773     5 1s   -1.58773     6 1s    1.58773
   23.1    -0.00000     1.22436     1 1s   -0.97250     1 2pz  -0.64417     1 2pz   1.65687     2 1s    0.97250     2 2pz  -0.64417
                                    2 2pz   1.65687     3 1s    0.50390     3 1s   -0.81660     4 1s    0.50390     4 1s   -0.81660
                                    5 1s   -0.50390     5 1s    0.81660     6 1s   -0.50390     6 1s    0.81660
   24.1    -0.00000     1.22829     1 1s    1.03579     1 1s   -1.74851     1 2pz   0.36677     1 2pz  -0.49963     2 1s    1.03579
                                    2 1s   -1.74851     2 2pz  -0.36677     2 2pz   0.49963     3 1s   -0.44382     3 1s    0.87729
                                    4 1s   -0.44382     4 1s    0.87729     5 1s   -0.44382     5 1s    0.87729     6 1s   -0.44382
                                    6 1s    0.87729
   25.1    -0.00000     1.29595     1 1s   -1.67634     1 1s    4.98843     1 2pz  -1.29707     2 1s    1.67634     2 1s   -4.98843
                                    2 2pz  -1.29707     3 1s   -0.64506     4 1s   -0.64506     5 1s    0.64506     6 1s    0.64506
   26.1    -0.00000     1.45376     1 2py   2.35591     2 2py  -2.35591     3 1s   -0.69312     3 1s   -0.63129     4 1s    0.69312
                                    4 1s    0.63129     5 1s    0.69312     5 1s    0.63129     6 1s   -0.69312     6 1s   -0.63129
   27.1    -0.00000     1.70012     1 3d1+  0.62692     2 3d1+ -0.62692
   28.1    -0.00000     1.82596     1 3d2-  0.68622     2 3d2-  0.68622
   29.1    -0.00000     2.08083     1 3d2-  0.73003     2 3d2- -0.73003
   30.1    -0.00000     2.22033     1 1s    0.31799     1 1s   -0.62230     1 3d0  -0.31336     1 3d2+  0.65004     2 1s    0.31799
                                    2 1s   -0.62230     2 3d0  -0.31336     2 3d2+  0.65004     3 1s    0.32632     4 1s    0.32632
                                    5 1s    0.32632     6 1s    0.32632
   31.1    -0.00000     2.33255     1 2py   0.28336     1 3d1-  0.70646     2 2py   0.28336     2 3d1- -0.70646     3 1s   -0.53936
                                    4 1s    0.53936     5 1s   -0.53936     6 1s    0.53936
   32.1    -0.00000     2.33850     1 1s   -0.41954     1 2pz  -0.46143     1 3d0   0.60868     1 3d2+  0.36053     2 1s   -0.41954
                                    2 2pz   0.46143     2 3d0   0.60868     2 3d2+  0.36053     3 1s    0.27713     4 1s    0.27713
                                    5 1s    0.27713     6 1s    0.27713
   33.1    -0.00000     2.60642     1 1s    0.26810     1 1s   -1.26826     1 3d2+  0.79832     2 1s   -0.26810     2 1s    1.26826
                                    2 3d2+ -0.79832     3 1s    0.46489     4 1s    0.46489     5 1s   -0.46489     6 1s   -0.46489
   34.1    -0.00000     2.62587     1 2px  -0.25458     1 3d1+  0.86983     2 2px   0.25458     2 3d1+  0.86983
   35.1    -0.00000     2.98745     1 1s    1.95031     1 2pz  -0.64273     1 2pz  -1.16599     1 3d0   1.07546     2 1s   -1.95031
                                    2 2pz  -0.64273     2 2pz  -1.16599     2 3d0  -1.07546
   36.1    -0.00000     3.01720     1 2py   0.62453     1 3d1-  0.94234     2 2py  -0.62453     2 3d1-  0.94234     3 1s   -0.50642
                                    4 1s    0.50642     5 1s    0.50642     6 1s   -0.50642


 Natural orbital dump (state averaged) at molpro section  2140.2    (Orbital set 2)



 **********************************************************************************************************************************
 DATASETS  * FILE   NREC   LENGTH (MB)   RECORD NAMES
              1      20       31.36       500      610      700      900      950      970     1000      129      960     1100   
                                          VAR    BASINP    GEOM    SYMINP    ZMAT    AOBASIS   BASIS     P2S    ABASIS      S 
                                         1400     1410     1200     1210     1080     1600     1650     1300     1700     1380   
                                           T        V       H0       H01     AOSYM     SMH    MOLCAS    ERIS     OPER     JKOP   

              2       5        5.42       700     1000      520     2100     2140   
                                         GEOM     BASIS   MCVARS     RHF     MCSCF   

 PROGRAMS   *        TOTAL     MULTI    HF-SCF       INT
 CPU TIMES  *         0.54      0.15      0.09      0.22
 REAL TIME  *         0.84 SEC
 DISK USED  *        38.54 MB
 **********************************************************************************************************************************
 Molecular orbitals read from record     2140.2  Type=MCSCF/NATURAL (state averaged)
 Occupation numbers read from record     2140.2  Type=MCSCF/NATURAL (state averaged)
 Orbital energies read from record       2140.2  Type=MCSCF/NATURAL (state averaged)
 Redundancy group numbers read from rec  2140.2  Type=MCSCF/NATURAL (state averaged)

 MULTI/6-31G* energy=    -77.520061417653

           MULTI          HF-SCF
    -77.52006142    -78.02336035
 **********************************************************************************************************************************
 Molpro calculation terminated
