
 Primary working directories    : /scratch.local/johan406.molpro_temp/molpro.QcAkoXAci3
 Secondary working directories  : /scratch.local/johan406.molpro_temp/molpro.QcAkoXAci3
 Wavefunction directory         : /home/goodpast/johan406/wfu/
 Main file repository           : /scratch.local/johan406.molpro_temp/molpro.QcAkoXAci3/

 id        : roweumn

 Nodes     nprocs
 cn0416       1

 Using customized tuning parameters: mindgm=1; mindgv=20; mindgc=4; mindgr=1; noblas=0; minvec=7
 default implementation of scratch files=df  


 Variables initialized (934), CPU time= 0.00 sec
                                                                                 !leave this line blank
 
 gprint, orbitals=30
 memory, 125., m
 symmetry, nosym
 nelect=16
 basis=6-31g*
 
 geometry={
 C 0.000 0.000 0.695
 C 0.000 -0.000 -0.695
 H 0.000 0.904 1.248
 H 0.000 -0.904 1.248
 H 0.000 0.904 -1.248
 H 0.000 -0.904 -1.248
 }
 
 hf
 {multi,
 closed 7
 occ 9
 wf,spin=0;STATE,3
 }
 
 Commands  initialized (763), CPU time= 0.01 sec, 617 directives.
 Default parameters read. Elapsed time= 0.04 sec

 Checking input...
 Passed
1


                                         ***  PROGRAM SYSTEM MOLPRO  ***
                                       Copyright, TTI GmbH Stuttgart, 2015
                                    Version 2019.2 linked Oct 25 2019 22:50:27


 **********************************************************************************************************************************
 LABEL *                                                                                 
  64 bit serial version                                                                  DATE: 15-Mar-23          TIME: 16:27:00  
 **********************************************************************************************************************************

 SHA1:             8dbd9ae1082e4ce945b0f27595c9eb2d4aa09004
 **********************************************************************************************************************************


 Variable memory set to  125000000 words,  buffer space 

 SETTING NELECT         =        16.00000000                                  
 SETTING BASIS          =    6-31G*
 ZSYMEL=NOSYM


Geometry recognized as XYZ



 Recomputing integrals since basis changed


 Using spherical harmonics

 Library entry C      S 6-31G                selected for orbital group  1
 Library entry C      P 6-31G                selected for orbital group  1
 Library entry C      D 6-31G*               selected for orbital group  1
 Library entry H      S 6-31G                selected for orbital group  2


 PROGRAM * SEWARD (Integral evaluation for generally contracted gaussian basis sets)     Author: Roland Lindh, 1990

 Geometry written to block  1 of record 700


 Point group  C1  



 ATOMIC COORDINATES

 NR  ATOM    CHARGE       X              Y              Z

   1  C       6.00    0.000000000    0.000000000    1.313359657
   2  C       6.00    0.000000000   -0.000000000   -1.313359657
   3  H       1.00    0.000000000    1.708312417    2.358378203
   4  H       1.00    0.000000000   -1.708312417    2.358378203
   5  H       1.00    0.000000000    1.708312417   -2.358378203
   6  H       1.00    0.000000000   -1.708312417   -2.358378203

 Bond lengths in Bohr (Angstrom)

 1-2  2.626719313  1-3  2.002597083  1-4  2.002597083  2-5  2.002597083  2-6  2.002597083
     ( 1.390000000)     ( 1.059728739)     ( 1.059728739)     ( 1.059728739)     ( 1.059728739)

 Bond angles

  1-2-5  121.45519557   1-2-6  121.45519557   2-1-3  121.45519557   2-1-4  121.45519557

  3-1-4  117.08960885   5-2-6  117.08960885

 NUCLEAR CHARGE:                   16
 NUMBER OF PRIMITIVE AOS:          72
 NUMBER OF SYMMETRY AOS:           70
 NUMBER OF CONTRACTIONS:           36   (   36A   )
 NUMBER OF CORE ORBITALS:           2   (    2A   )
 NUMBER OF VALENCE ORBITALS:       12   (   12A   )


 NUCLEAR REPULSION ENERGY   32.96891510

 EXTRA SYMMETRY OF AOS IN SYMMETRY 1:   1 1 1 2 1 1 2 1 1 1   3 2 1 1 1 1 1 2 1 1   2 1 1 1 3 2 1 1 1 1   1 1 1 1 1 1

 Eigenvalues of metric

         1 0.980E-02 0.175E-01 0.362E-01 0.449E-01 0.684E-01 0.210E+00 0.227E+00 0.233E+00


 Contracted 2-electron integrals neglected if value below      1.0D-11
 AO integral compression algorithm  1   Integral accuracy      1.0D-11

     0.786 MB (compressed) written to integral file ( 37.5%)


 NUMBER OF SORTED TWO-ELECTRON INTEGRALS:     222111.     BUFFER LENGTH:  32768
 NUMBER OF SEGMENTS:   1  SEGMENT LENGTH:     222111      RECORD LENGTH: 524288

 Memory used in sort:       0.78 MW

 SORT1 READ      284735. AND WROTE       98251. INTEGRALS IN      1 RECORDS. CPU TIME:     0.01 SEC, REAL TIME:     0.01 SEC
 SORT2 READ       98251. AND WROTE      222111. INTEGRALS IN      3 RECORDS. CPU TIME:     0.01 SEC, REAL TIME:     0.02 SEC

 FILE SIZES:   FILE 1:    30.9 MBYTE,  FILE 4:     4.2 MBYTE,   TOTAL:     35.1 MBYTE

 OPERATOR DM      FOR CENTER  0  COORDINATES:    0.000000    0.000000    0.000000


 **********************************************************************************************************************************
 DATASETS  * FILE   NREC   LENGTH (MB)   RECORD NAMES
              1      19       30.63       500      610      700      900      950      970     1000      129      960     1100   
                                          VAR    BASINP    GEOM    SYMINP    ZMAT    AOBASIS   BASIS     P2S    ABASIS      S 
                                         1400     1410     1200     1210     1080     1600     1650     1300     1700   
                                           T        V       H0       H01     AOSYM     SMH    MOLCAS    ERIS     OPER   

 PROGRAMS   *        TOTAL       INT
 CPU TIMES  *         0.32      0.21
 REAL TIME  *         0.50 SEC
 DISK USED  *        35.45 MB
 **********************************************************************************************************************************


 PROGRAM * RHF-SCF (CLOSED SHELL)       Authors: W. Meyer, H.-J. Werner


 NUMBER OF ELECTRONS:       8+    8-    SPACE SYMMETRY=1    SPIN SYMMETRY: Singlet 
 CONVERGENCE THRESHOLDS:    1.00E-05 (Density)    1.00E-07 (Energy)
 MAX. NUMBER OF ITERATIONS:       60
 INTERPOLATION TYPE:            DIIS
 INTERPOLATION STEPS:              2 (START)      1 (STEP)
 LEVEL SHIFTS:                  0.00 (CLOSED)  0.00 (OPEN) 



 Orbital guess generated from atomic densities. Full valence occupancy:    8

 Molecular orbital dump at record        2100.2

 Initial occupancy:   8

 ITERATION    DDIFF          GRAD             ENERGY        2-EL.EN.            DIPOLE MOMENTS         DIIS   ORB.
    1      0.000D+00      0.000D+00       -78.00202516    117.632105    0.00000   -0.00000   -0.00000    0    start
    2      0.000D+00      0.811D-02       -78.02255971    116.071615    0.00000   -0.00000   -0.00000    1    diag
    3      0.788D-02      0.263D-02       -78.02437408    116.618073   -0.00000   -0.00000   -0.00000    2    diag
    4      0.241D-02      0.684D-03       -78.02456385    116.518074    0.00000    0.00000   -0.00000    3    diag
    5      0.100D-02      0.629D-04       -78.02456563    116.520744    0.00000   -0.00000    0.00000    4    diag
    6      0.132D-03      0.654D-05       -78.02456565    116.520391    0.00000   -0.00000   -0.00000    5    diag
    7      0.111D-04      0.101D-05       -78.02456565    116.520399    0.00000    0.00000    0.00000    6    diag
    8      0.142D-05      0.106D-06       -78.02456565    116.520394    0.00000    0.00000   -0.00000    0    orth

 Final occupancy:   8

 !RHF STATE  1.1 Energy               -78.024565647337
 Nuclear energy                        32.96891510
 One-electron energy                 -169.25367795
 Two-electron energy                   58.26019720
 Virial quotient                       -1.00070950
 !RHF STATE  1.1 Dipole moment          0.00000000     0.00000000    -0.00000000
 Dipole moment /Debye                   0.00000000     0.00000000    -0.00000000

 ELECTRON ORBITALS
 =================

  Orbital  Occupation    Energy     Coefficients
    1.1     2.00000   -11.22935     1 1s    0.70425     2 1s    0.70425
    2.1     2.00000   -11.22811     1 1s    0.70450     2 1s   -0.70450
    3.1     2.00000    -1.01470     1 1s    0.30009     2 1s    0.30009
    4.1     2.00000    -0.80398     2 1s   -0.24384
    5.1     2.00000    -0.63925     1 2py   0.32267     2 2py   0.32267
    6.1     2.00000    -0.57499     1 2pz   0.40737     2 2pz  -0.40737
    7.1     2.00000    -0.51947     1 2py   0.31163     2 2py  -0.31163
    8.1     2.00000    -0.35679     1 2px   0.36843     1 2px   0.31793     2 2px   0.36843     2 2px   0.31793
    9.1     0.00000     0.16646     1 2px   0.34661     1 2px   0.70253     2 2px  -0.34661     2 2px  -0.70253
   10.1     0.00000     0.26905     1 1s   -1.53610     1 2pz  -0.64214     2 1s   -1.53610     2 2pz   0.64214     3 1s    1.06535
                                    4 1s    1.06535     5 1s    1.06535     6 1s    1.06535
   11.1     0.00000     0.30309     1 2py  -0.84413     2 2py  -0.84413     3 1s    1.14056     4 1s   -1.14056     5 1s    1.14056
                                    6 1s   -1.14056
   12.1     0.00000     0.31072     1 1s    1.98160     2 1s   -1.98160     3 1s   -1.08388     4 1s   -1.08388     5 1s    1.08388
                                    6 1s    1.08388
   13.1     0.00000     0.38870     1 2py  -1.83441     2 2py   1.83441     3 1s    1.64958     4 1s   -1.64958     5 1s   -1.64958
                                    6 1s    1.64958
   14.1     0.00000     0.47811     1 1s   -2.41579     1 2pz   2.72519     2 1s    2.41579     2 2pz   2.72519     3 1s   -0.62022
                                    4 1s   -0.62022     5 1s    0.62022     6 1s    0.62022
   15.1     0.00000     0.68534     1 1s    0.34169     1 2pz  -0.56926     1 2pz   1.03425     2 1s    0.34169     2 2pz   0.56926
                                    2 2pz  -1.03425
   16.1     0.00000     0.74535     1 2py  -0.39760     1 2py   0.78635     2 2py  -0.39760     2 2py   0.78635     3 1s   -0.37595
                                    4 1s    0.37595     5 1s   -0.37595     6 1s    0.37595
   17.1     0.00000     0.78787     1 2px  -0.75179     1 2px   0.63980     2 2px  -0.75179     2 2px   0.63980
   18.1     0.00000     0.86278     1 1s   -0.90633     1 1s    1.50533     1 2pz   0.29570     2 1s   -0.90633     2 1s    1.50533
                                    2 2pz  -0.29570     3 1s   -0.38421     3 1s   -0.25682     4 1s   -0.38421     4 1s   -0.25682
                                    5 1s   -0.38421     5 1s   -0.25682     6 1s   -0.38421     6 1s   -0.25682
   19.1     0.00000     0.88414     1 2px  -0.81347     1 2px   1.05541     2 2px   0.81347     2 2px  -1.05541
   20.1     0.00000     0.91640     1 1s   -0.52924     1 2pz   0.63366     1 2pz  -0.74652     2 1s    0.52924     2 2pz   0.63366
                                    2 2pz  -0.74652     3 1s    0.35590     4 1s    0.35590     5 1s   -0.35590     6 1s   -0.35590
   21.1     0.00000     1.14463     1 2py   0.70064     1 2py  -1.09918     2 2py   0.70064     2 2py  -1.09918     3 1s   -0.39017
                                    3 1s    1.06801     4 1s    0.39017     4 1s   -1.06801     5 1s   -0.39017     5 1s    1.06801
                                    6 1s    0.39017     6 1s   -1.06801
   22.1     0.00000     1.16260     1 2py   0.92264     1 2py  -2.99052     2 2py  -0.92264     2 2py   2.99052     3 1s    1.56537
                                    4 1s   -1.56537     5 1s   -1.56537     6 1s    1.56537
   23.1     0.00000     1.22933     1 1s   -0.25434     1 1s   -0.31922     1 2pz  -0.63440     1 2pz   1.47434     2 1s    0.25434
                                    2 1s    0.31922     2 2pz  -0.63440     2 2pz   1.47434     3 1s    0.50259     3 1s   -0.89363
                                    4 1s    0.50259     4 1s   -0.89363     5 1s   -0.50259     5 1s    0.89363     6 1s   -0.50259
                                    6 1s    0.89363
   24.1     0.00000     1.22965     1 1s    1.03865     1 1s   -1.74753     1 2pz   0.36334     1 2pz  -0.49596     2 1s    1.03865
                                    2 1s   -1.74753     2 2pz  -0.36334     2 2pz   0.49596     3 1s   -0.44438     3 1s    0.87695
                                    4 1s   -0.44438     4 1s    0.87695     5 1s   -0.44438     5 1s    0.87695     6 1s   -0.44438
                                    6 1s    0.87695
   25.1     0.00000     1.31264     1 1s   -1.65566     1 1s    5.08477     1 2pz  -1.51678     2 1s    1.65566     2 1s   -5.08477
                                    2 2pz  -1.51678     3 1s   -0.52398     4 1s   -0.52398     5 1s    0.52398     6 1s    0.52398
   26.1     0.00000     1.45533     1 2py   2.35141     2 2py  -2.35141     3 1s   -0.69192     3 1s   -0.62281     4 1s    0.69192
                                    4 1s    0.62281     5 1s    0.69192     5 1s    0.62281     6 1s   -0.69192     6 1s   -0.62281
   27.1     0.00000     1.72319     1 3d1+  0.62621     2 3d1+ -0.62621
   28.1     0.00000     1.83608     1 3d2-  0.68574     2 3d2-  0.68574
   29.1     0.00000     2.10427     1 3d2-  0.73061     2 3d2- -0.73061
   30.1     0.00000     2.23171     1 1s    0.29406     1 1s   -0.63038     1 3d0  -0.27097     1 3d2+  0.67245     2 1s    0.29406
                                    2 1s   -0.63038     2 3d0  -0.27097     2 3d2+  0.67245     3 1s    0.34227     4 1s    0.34227
                                    5 1s    0.34227     6 1s    0.34227
   31.1     0.00000     2.34523     1 2py   0.27696     1 3d1-  0.70658     2 2py   0.27696     2 3d1- -0.70658     3 1s   -0.53405
                                    4 1s    0.53405     5 1s   -0.53405     6 1s    0.53405
   32.1     0.00000     2.35710     1 1s   -0.44078     1 2pz   0.25070     1 2pz  -0.45887     1 3d0   0.63050     1 3d2+  0.31263
                                    2 1s   -0.44078     2 2pz  -0.25070     2 2pz   0.45887     2 3d0   0.63050     2 3d2+  0.31263
   33.1     0.00000     2.61829     1 1s    0.26932     1 1s   -1.24112     1 3d2+  0.79781     2 1s   -0.26932     2 1s    1.24112
                                    2 3d2+ -0.79781     3 1s    0.45759     4 1s    0.45759     5 1s   -0.45759     6 1s   -0.45759
   34.1     0.00000     2.65240     1 2px  -0.25538     1 3d1+  0.87270     2 2px   0.25538     2 3d1+  0.87270
   35.1     0.00000     3.00781     1 1s    1.94861     1 2pz  -0.66232     1 2pz  -1.16410     1 3d0   1.07817     2 1s   -1.94861
                                    2 2pz  -0.66232     2 2pz  -1.16410     2 3d0  -1.07817
   36.1     0.00000     3.03835     1 2py   0.61058     1 3d1-  0.94677     2 2py  -0.61058     2 3d1-  0.94677     3 1s   -0.50200
                                    4 1s    0.50200     5 1s    0.50200     6 1s   -0.50200


 HOMO      8.1    -0.356791 =      -9.7088eV
 LUMO      9.1     0.166458 =       4.5295eV
 LUMO-HOMO         0.523249 =      14.2383eV


 **********************************************************************************************************************************
 DATASETS  * FILE   NREC   LENGTH (MB)   RECORD NAMES
              1      19       30.63       500      610      700      900      950      970     1000      129      960     1100   
                                          VAR    BASINP    GEOM    SYMINP    ZMAT    AOBASIS   BASIS     P2S    ABASIS      S 
                                         1400     1410     1200     1210     1080     1600     1650     1300     1700   
                                           T        V       H0       H01     AOSYM     SMH    MOLCAS    ERIS     OPER   

              2       4        2.86       700     1000      520     2100   
                                         GEOM     BASIS   MCVARS     RHF  

 PROGRAMS   *        TOTAL    HF-SCF       INT
 CPU TIMES  *         0.41      0.10      0.21
 REAL TIME  *         0.64 SEC
 DISK USED  *        35.45 MB
 **********************************************************************************************************************************


 PROGRAM * MULTI (Direct Multiconfiguration SCF)       Authors: P.J. Knowles, H.-J. Werner (1984)


 Number of closed-shell orbitals:   7 (   7 )
 Number of active  orbitals:        2 (   2 )
 Number of external orbitals:      27 (  27 )

 State symmetry 1

 Number of electrons:     2    Spin symmetry=Singlet   Space symmetry=1
 Number of states:        3
 Number of CSFs:          3   (4 determinants, 4 intermediate states)

 Molecular orbitals read from record     2100.2  Type=RHF/CANONICAL (state 1.1)

 EXTRA SYMMETRY OF MOS IN SYMMETRY 1:   1 1 1 1 1 1 1 2 2 1   1 1 1 1 1 1 2 1 2 1   1 1 1 1 1 1 2 3 3 1   1 1 1 2 1 1

 Wavefunction dump at record             2140.2

 Convergence thresholds  0.10E-01 (gradient)  0.10E-05 (energy)  0.10E-02 (step length)

 Weight factors for state symmetry  1:    0.33333   0.33333   0.33333

 Number of orbital rotations:      257   (    14 Core/Active    189 Core/Virtual   0 Active/Active     54 Active/Virtual)
 Total number of variables:        269

 Micro-Iterations solved by the two-step solver

 ITER. MIC  NCI  NEG     ENERGY(VAR)     ENERGY(PROJ)   ENERGY CHANGE     GRAD(0)  GRAD(ORB)   GRAD(CI)     STEP       TIME

   1    3    3    0     -77.74301540     -77.74839548   -0.00538008    0.12230671 0.00000103 0.00000000  0.58D-01      0.06
   2    2    3    0     -77.74832171     -77.74832426   -0.00000254    0.00251230 0.00000125 0.00000000  0.13D-02      0.09
   3    2    3    0     -77.74832426     -77.74832426   -0.00000000    0.00000144 0.00000000 0.00000000  0.87D-06      0.12

 ** WVFN ****  CONVERGENCE REACHED, FINAL GRADIENT:  0.55D-12



 Results for state 1.1
 =====================

 !MCSCF STATE  1.1 Energy             -78.045376190115
 Nuclear energy                        32.96891510
 Kinetic energy                        78.01697601
 One electron energy                 -169.33602294
 Two electron energy                   58.32173166
 Virial ratio                           2.00036403

 !MCSCF STATE  1.1 Dipole moment        0.00000000    -0.00000000    -0.00000000
 Dipole moment /Debye                   0.00000000    -0.00000000    -0.00000000

 Results for state 2.1
 =====================

 !MCSCF STATE  2.1 Energy             -77.682315625971
 Nuclear energy                        32.96891510
 Kinetic energy                        78.21310089
 One electron energy                 -168.86409162
 Two electron energy                   58.21286089
 Virial ratio                           1.99321360

 !MCSCF STATE  2.1 Dipole moment        0.00000000    -0.00000000    -0.00000000
 Dipole moment /Debye                   0.00000000    -0.00000000    -0.00000000

 Results for state 3.1
 =====================

 !MCSCF STATE  3.1 Energy             -77.517280952212
 Nuclear energy                        32.96891510
 Kinetic energy                        78.40922576
 One electron energy                 -168.39216029
 Two electron energy                   57.90596424
 Virial ratio                           1.98862449

 !MCSCF STATE  3.1 Dipole moment        0.00000000    -0.00000000    -0.00000000
 Dipole moment /Debye                   0.00000000    -0.00000000    -0.00000000

 State-averaged charge density matrix saved on record  2140.2 (density set 1)

 !MCSCF trans         <2.1|DMZ|1.1>    -1.512502086876 au =    -3.844145053962 Debye
 !MCSCF trans         <3.1|DMZ|2.1>    -2.373578959139 au =    -6.032640810967 Debye


 NATURAL ORBITALS (state averaged)
 =================================

  Orbital  Occupation    Energy     Coefficients
    1.1     2.00000   -11.24154     1 1s    0.70427     2 1s    0.70427
    2.1     2.00000   -11.24054     1 1s    0.70446     2 1s   -0.70446
    3.1     2.00000    -1.02612     1 1s    0.30767     2 1s    0.30767
    4.1     2.00000    -0.81062     1 1s    0.27771     2 1s   -0.27771
    5.1     2.00000    -0.65003     1 2py   0.32733     2 2py   0.32733
    6.1     2.00000    -0.58895     1 2pz   0.40951     2 2pz  -0.40951
    7.1     2.00000    -0.52510     1 2py   0.31706     2 2py  -0.31706
    8.1     1.00000     0.02400     1 2px   0.38086     1 2px   0.66066     2 2px  -0.38086     2 2px  -0.66066
    9.1     1.00000    -0.21534     1 2px   0.35201     1 2px   0.33019     2 2px   0.35201     2 2px   0.33019
   10.1    -0.00000     0.26674     1 1s   -1.53297     1 2pz  -0.64847     2 1s   -1.53297     2 2pz   0.64847     3 1s    1.06511
                                    4 1s    1.06511     5 1s    1.06511     6 1s    1.06511
   11.1    -0.00000     0.29576     1 2py  -0.83725     2 2py  -0.83725     3 1s    1.13352     4 1s   -1.13352     5 1s    1.13352
                                    6 1s   -1.13352
   12.1    -0.00000     0.30790     1 1s    2.00821     2 1s   -2.00821     3 1s   -1.07673     4 1s   -1.07673     5 1s    1.07673
                                    6 1s    1.07673
   13.1    -0.00000     0.38538     1 2py  -1.82296     2 2py   1.82296     3 1s    1.64387     4 1s   -1.64387     5 1s   -1.64387
                                    6 1s    1.64387
   14.1    -0.00000     0.47467     1 1s   -2.38360     1 2pz   2.70247     2 1s    2.38360     2 2pz   2.70247     3 1s   -0.63253
                                    4 1s   -0.63253     5 1s    0.63253     6 1s    0.63253
   15.1    -0.00000     0.67557     1 2pz  -0.56451     1 2pz   1.01087     2 2pz   0.56451     2 2pz  -1.01087
   16.1    -0.00000     0.73557     1 2py  -0.40775     1 2py   0.79017     2 2py  -0.40775     2 2py   0.79017     3 1s   -0.37222
                                    4 1s    0.37222     5 1s   -0.37222     6 1s    0.37222
   17.1    -0.00000     0.78245     1 2px  -0.75903     1 2px   0.63381     2 2px  -0.75903     2 2px   0.63381
   18.1    -0.00000     0.85998     1 1s   -0.90128     1 1s    1.53620     1 2pz   0.34772     2 1s   -0.90128     2 1s    1.53620
                                    2 2pz  -0.34772     3 1s   -0.38752     3 1s   -0.26974     4 1s   -0.38752     4 1s   -0.26974
                                    5 1s   -0.38752     5 1s   -0.26974     6 1s   -0.38752     6 1s   -0.26974
   19.1    -0.00000     0.86836     1 2px  -0.79894     1 2px   1.08202     2 2px   0.79894     2 2px  -1.08202
   20.1    -0.00000     0.90000     1 1s   -0.39235     1 2pz   0.63443     1 2pz  -0.82177     2 1s    0.39235     2 2pz   0.63443
                                    2 2pz  -0.82177     3 1s    0.35734     4 1s    0.35734     5 1s   -0.35734     6 1s   -0.35734
   21.1    -0.00000     1.13092     1 2py   0.69069     1 2py  -1.10151     2 2py   0.69069     2 2py  -1.10151     3 1s   -0.39004
                                    3 1s    1.07595     4 1s    0.39004     4 1s   -1.07595     5 1s   -0.39004     5 1s    1.07595
                                    6 1s    0.39004     6 1s   -1.07595
   22.1    -0.00000     1.15186     1 2py   0.92018     1 2py  -2.99471     2 2py  -0.92018     2 2py   2.99471     3 1s    1.57220
                                    4 1s   -1.57220     5 1s   -1.57220     6 1s    1.57220
   23.1    -0.00000     1.22553     1 1s   -0.77680     1 2pz  -0.64757     1 2pz   1.60713     2 1s    0.77680     2 2pz  -0.64757
                                    2 2pz   1.60713     3 1s    0.50263     3 1s   -0.84146     4 1s    0.50263     4 1s   -0.84146
                                    5 1s   -0.50263     5 1s    0.84146     6 1s   -0.50263     6 1s    0.84146
   24.1    -0.00000     1.22740     1 1s    1.03384     1 1s   -1.74318     1 2pz   0.36740     1 2pz  -0.50149     2 1s    1.03384
                                    2 1s   -1.74318     2 2pz  -0.36740     2 2pz   0.50149     3 1s   -0.44478     3 1s    0.87619
                                    4 1s   -0.44478     4 1s    0.87619     5 1s   -0.44478     5 1s    0.87619     6 1s   -0.44478
                                    6 1s    0.87619
   25.1    -0.00000     1.29679     1 1s   -1.67286     1 1s    5.04101     1 2pz  -1.37046     2 1s    1.67286     2 1s   -5.04101
                                    2 2pz  -1.37046     3 1s   -0.60582     4 1s   -0.60582     5 1s    0.60582     6 1s    0.60582
   26.1    -0.00000     1.44721     1 2py   2.35378     2 2py  -2.35378     3 1s   -0.69084     3 1s   -0.62343     4 1s    0.69084
                                    4 1s    0.62343     5 1s    0.69084     5 1s    0.62343     6 1s   -0.69084     6 1s   -0.62343
   27.1    -0.00000     1.70073     1 3d1+  0.62603     2 3d1+ -0.62603
   28.1    -0.00000     1.82448     1 3d2-  0.68574     2 3d2-  0.68574
   29.1    -0.00000     2.08359     1 3d2-  0.73061     2 3d2- -0.73061
   30.1    -0.00000     2.21810     1 1s    0.29446     1 1s   -0.62544     1 3d0  -0.27801     1 3d2+  0.66867     2 1s    0.29446
                                    2 1s   -0.62544     2 3d0  -0.27801     2 3d2+  0.66867     3 1s    0.34135     4 1s    0.34135
                                    5 1s    0.34135     6 1s    0.34135
   31.1    -0.00000     2.33103     1 2py   0.28367     1 3d1-  0.70487     2 2py   0.28367     2 3d1- -0.70487     3 1s   -0.53726
                                    4 1s    0.53726     5 1s   -0.53726     6 1s    0.53726
   32.1    -0.00000     2.33909     1 1s   -0.43645     1 2pz   0.25417     1 2pz  -0.46291     1 3d0   0.62733     1 3d2+  0.31980
                                    2 1s   -0.43645     2 2pz  -0.25417     2 2pz   0.46291     2 3d0   0.62733     2 3d2+  0.31980
                                    3 1s    0.25224     4 1s    0.25224     5 1s    0.25224     6 1s    0.25224
   33.1    -0.00000     2.60085     1 1s    0.26982     1 1s   -1.24554     1 3d2+  0.79710     2 1s   -0.26982     2 1s    1.24554
                                    2 3d2+ -0.79710     3 1s    0.46046     4 1s    0.46046     5 1s   -0.46046     6 1s   -0.46046
   34.1    -0.00000     2.63161     1 2px  -0.25577     1 3d1+  0.87303     2 2px   0.25577     2 3d1+  0.87303
   35.1    -0.00000     2.99233     1 1s    1.97019     1 2pz  -0.65534     1 2pz  -1.17537     1 3d0   1.07944     2 1s   -1.97019
                                    2 2pz  -0.65534     2 2pz  -1.17537     2 3d0  -1.07944
   36.1    -0.00000     3.02699     1 2py   0.61059     1 3d1-  0.94635     2 2py  -0.61059     2 3d1-  0.94635     3 1s   -0.50419
                                    4 1s    0.50419     5 1s    0.50419     6 1s   -0.50419


 Natural orbital dump (state averaged) at molpro section  2140.2    (Orbital set 2)



 **********************************************************************************************************************************
 DATASETS  * FILE   NREC   LENGTH (MB)   RECORD NAMES
              1      20       31.36       500      610      700      900      950      970     1000      129      960     1100   
                                          VAR    BASINP    GEOM    SYMINP    ZMAT    AOBASIS   BASIS     P2S    ABASIS      S 
                                         1400     1410     1200     1210     1080     1600     1650     1300     1700     1380   
                                           T        V       H0       H01     AOSYM     SMH    MOLCAS    ERIS     OPER     JKOP   

              2       5        5.42       700     1000      520     2100     2140   
                                         GEOM     BASIS   MCVARS     RHF     MCSCF   

 PROGRAMS   *        TOTAL     MULTI    HF-SCF       INT
 CPU TIMES  *         0.56      0.15      0.10      0.21
 REAL TIME  *         0.84 SEC
 DISK USED  *        38.54 MB
 **********************************************************************************************************************************
 Molecular orbitals read from record     2140.2  Type=MCSCF/NATURAL (state averaged)
 Occupation numbers read from record     2140.2  Type=MCSCF/NATURAL (state averaged)
 Orbital energies read from record       2140.2  Type=MCSCF/NATURAL (state averaged)
 Redundancy group numbers read from rec  2140.2  Type=MCSCF/NATURAL (state averaged)

 MULTI/6-31G* energy=    -77.517280952212

           MULTI          HF-SCF
    -77.51728095    -78.02456565
 **********************************************************************************************************************************
 Molpro calculation terminated
