
 Primary working directories    : /scratch.local/johan406.molpro_temp/molpro.sbDfPLyXQV
 Secondary working directories  : /scratch.local/johan406.molpro_temp/molpro.sbDfPLyXQV
 Wavefunction directory         : /home/goodpast/johan406/wfu/
 Main file repository           : /scratch.local/johan406.molpro_temp/molpro.sbDfPLyXQV/

 id        : roweumn

 Nodes     nprocs
 cn0416       1

 Using customized tuning parameters: mindgm=1; mindgv=20; mindgc=4; mindgr=1; noblas=0; minvec=7
 default implementation of scratch files=df  


 Variables initialized (934), CPU time= 0.00 sec
                                                                                 !leave this line blank
 
 gprint, orbitals=30
 memory, 125., m
 symmetry, nosym
 nelect=16
 basis=6-31g*
 
 geometry={
 C 0.000 0.000 0.690
 C 0.000 -0.000 -0.690
 H 0.000 0.904 1.253
 H 0.000 -0.904 1.253
 H 0.000 0.904 -1.253
 H 0.000 -0.904 -1.253
 }
 
 hf
 {multi,
 closed 7
 occ 9
 wf,spin=0;STATE,3
 }
 
 Commands  initialized (763), CPU time= 0.01 sec, 617 directives.
 Default parameters read. Elapsed time= 0.04 sec

 Checking input...
 Passed
1


                                         ***  PROGRAM SYSTEM MOLPRO  ***
                                       Copyright, TTI GmbH Stuttgart, 2015
                                    Version 2019.2 linked Oct 25 2019 22:50:27


 **********************************************************************************************************************************
 LABEL *                                                                                 
  64 bit serial version                                                                  DATE: 15-Mar-23          TIME: 16:27:56  
 **********************************************************************************************************************************

 SHA1:             8dbd9ae1082e4ce945b0f27595c9eb2d4aa09004
 **********************************************************************************************************************************


 Variable memory set to  125000000 words,  buffer space 

 SETTING NELECT         =        16.00000000                                  
 SETTING BASIS          =    6-31G*
 ZSYMEL=NOSYM


Geometry recognized as XYZ



 Recomputing integrals since basis changed


 Using spherical harmonics

 Library entry C      S 6-31G                selected for orbital group  1
 Library entry C      P 6-31G                selected for orbital group  1
 Library entry C      D 6-31G*               selected for orbital group  1
 Library entry H      S 6-31G                selected for orbital group  2


 PROGRAM * SEWARD (Integral evaluation for generally contracted gaussian basis sets)     Author: Roland Lindh, 1990

 Geometry written to block  1 of record 700


 Point group  C1  



 ATOMIC COORDINATES

 NR  ATOM    CHARGE       X              Y              Z

   1  C       6.00    0.000000000    0.000000000    1.303911026
   2  C       6.00    0.000000000   -0.000000000   -1.303911026
   3  H       1.00    0.000000000    1.708312417    2.367826834
   4  H       1.00    0.000000000   -1.708312417    2.367826834
   5  H       1.00    0.000000000    1.708312417   -2.367826834
   6  H       1.00    0.000000000   -1.708312417   -2.367826834

 Bond lengths in Bohr (Angstrom)

 1-2  2.607822052  1-3  2.012522835  1-4  2.012522835  2-5  2.012522835  2-6  2.012522835
     ( 1.380000000)     ( 1.064981220)     ( 1.064981220)     ( 1.064981220)     ( 1.064981220)

 Bond angles

  1-2-5  121.91413889   1-2-6  121.91413889   2-1-3  121.91413889   2-1-4  121.91413889

  3-1-4  116.17172223   5-2-6  116.17172223

 NUCLEAR CHARGE:                   16
 NUMBER OF PRIMITIVE AOS:          72
 NUMBER OF SYMMETRY AOS:           70
 NUMBER OF CONTRACTIONS:           36   (   36A   )
 NUMBER OF CORE ORBITALS:           2   (    2A   )
 NUMBER OF VALENCE ORBITALS:       12   (   12A   )


 NUCLEAR REPULSION ENERGY   33.00652914

 EXTRA SYMMETRY OF AOS IN SYMMETRY 1:   1 1 1 2 1 1 2 1 1 1   3 2 1 1 1 1 1 2 1 1   2 1 1 1 3 2 1 1 1 1   1 1 1 1 1 1

 Eigenvalues of metric

         1 0.956E-02 0.178E-01 0.363E-01 0.448E-01 0.699E-01 0.210E+00 0.221E+00 0.231E+00


 Contracted 2-electron integrals neglected if value below      1.0D-11
 AO integral compression algorithm  1   Integral accuracy      1.0D-11

     0.786 MB (compressed) written to integral file ( 37.6%)


 NUMBER OF SORTED TWO-ELECTRON INTEGRALS:     222111.     BUFFER LENGTH:  32768
 NUMBER OF SEGMENTS:   1  SEGMENT LENGTH:     222111      RECORD LENGTH: 524288

 Memory used in sort:       0.78 MW

 SORT1 READ      284735. AND WROTE       98251. INTEGRALS IN      1 RECORDS. CPU TIME:     0.01 SEC, REAL TIME:     0.00 SEC
 SORT2 READ       98251. AND WROTE      222111. INTEGRALS IN      3 RECORDS. CPU TIME:     0.01 SEC, REAL TIME:     0.02 SEC

 FILE SIZES:   FILE 1:    30.9 MBYTE,  FILE 4:     4.2 MBYTE,   TOTAL:     35.1 MBYTE

 OPERATOR DM      FOR CENTER  0  COORDINATES:    0.000000    0.000000    0.000000


 **********************************************************************************************************************************
 DATASETS  * FILE   NREC   LENGTH (MB)   RECORD NAMES
              1      19       30.63       500      610      700      900      950      970     1000      129      960     1100   
                                          VAR    BASINP    GEOM    SYMINP    ZMAT    AOBASIS   BASIS     P2S    ABASIS      S 
                                         1400     1410     1200     1210     1080     1600     1650     1300     1700   
                                           T        V       H0       H01     AOSYM     SMH    MOLCAS    ERIS     OPER   

 PROGRAMS   *        TOTAL       INT
 CPU TIMES  *         0.31      0.22
 REAL TIME  *         0.55 SEC
 DISK USED  *        35.45 MB
 **********************************************************************************************************************************


 PROGRAM * RHF-SCF (CLOSED SHELL)       Authors: W. Meyer, H.-J. Werner


 NUMBER OF ELECTRONS:       8+    8-    SPACE SYMMETRY=1    SPIN SYMMETRY: Singlet 
 CONVERGENCE THRESHOLDS:    1.00E-05 (Density)    1.00E-07 (Energy)
 MAX. NUMBER OF ITERATIONS:       60
 INTERPOLATION TYPE:            DIIS
 INTERPOLATION STEPS:              2 (START)      1 (STEP)
 LEVEL SHIFTS:                  0.00 (CLOSED)  0.00 (OPEN) 



 Orbital guess generated from atomic densities. Full valence occupancy:    8

 Molecular orbital dump at record        2100.2

 Initial occupancy:   8

 ITERATION    DDIFF          GRAD             ENERGY        2-EL.EN.            DIPOLE MOMENTS         DIIS   ORB.
    1      0.000D+00      0.000D+00       -78.00353342    117.747675    0.00000    0.00000   -0.00000    0    start
    2      0.000D+00      0.818D-02       -78.02426848    116.139694    0.00000   -0.00000    0.00000    1    diag
    3      0.792D-02      0.269D-02       -78.02613620    116.701824    0.00000   -0.00000    0.00000    2    diag
    4      0.245D-02      0.691D-03       -78.02633077    116.601506    0.00000   -0.00000   -0.00000    3    diag
    5      0.102D-02      0.641D-04       -78.02633261    116.604270    0.00000    0.00000   -0.00000    4    diag
    6      0.134D-03      0.703D-05       -78.02633263    116.603894    0.00000   -0.00000   -0.00000    5    diag
    7      0.123D-04      0.108D-05       -78.02633263    116.603902    0.00000   -0.00000   -0.00000    6    diag
    8      0.157D-05      0.118D-06       -78.02633263    116.603897   -0.00000   -0.00000    0.00000    0    orth

 Final occupancy:   8

 !RHF STATE  1.1 Energy               -78.026332632847
 Nuclear energy                        33.00652914
 One-electron energy                 -169.33481030
 Two-electron energy                   58.30194853
 Virial quotient                       -1.00082149
 !RHF STATE  1.1 Dipole moment         -0.00000000    -0.00000000     0.00000000
 Dipole moment /Debye                  -0.00000000    -0.00000000     0.00000000

 ELECTRON ORBITALS
 =================

  Orbital  Occupation    Energy     Coefficients
    1.1     2.00000   -11.22942     1 1s    0.70424     2 1s    0.70424
    2.1     2.00000   -11.22812     1 1s    0.70451     2 1s   -0.70451
    3.1     2.00000    -1.01631     1 1s    0.30068     2 1s    0.30068
    4.1     2.00000    -0.80197     2 1s   -0.24243
    5.1     2.00000    -0.63682     1 2py   0.32239     2 2py   0.32239
    6.1     2.00000    -0.57838     1 2pz   0.40693     2 2pz  -0.40693
    7.1     2.00000    -0.51513     1 2py   0.30987     2 2py  -0.30987
    8.1     2.00000    -0.35930     1 2px   0.36951     1 2px   0.31590     2 2px   0.36951     2 2px   0.31590
    9.1     0.00000     0.16855     1 2px   0.34584     1 2px   0.70821     2 2px  -0.34584     2 2px  -0.70821
   10.1     0.00000     0.26897     1 1s   -1.52976     1 2pz  -0.64936     2 1s   -1.52976     2 2pz   0.64936     3 1s    1.06326
                                    4 1s    1.06326     5 1s    1.06326     6 1s    1.06326
   11.1     0.00000     0.30053     1 2py  -0.82923     2 2py  -0.82923     3 1s    1.12419     4 1s   -1.12419     5 1s    1.12419
                                    6 1s   -1.12419
   12.1     0.00000     0.30906     1 1s    1.95661     2 1s   -1.95661     3 1s   -1.07913     4 1s   -1.07913     5 1s    1.07913
                                    6 1s    1.07913
   13.1     0.00000     0.38929     1 2py  -1.82708     2 2py   1.82708     3 1s    1.63397     4 1s   -1.63397     5 1s   -1.63397
                                    6 1s    1.63397
   14.1     0.00000     0.48199     1 1s   -2.53799     1 2pz   2.78961     2 1s    2.53799     2 2pz   2.78961     3 1s   -0.62321
                                    4 1s   -0.62321     5 1s    0.62321     6 1s    0.62321
   15.1     0.00000     0.68352     1 1s    0.31301     1 2pz  -0.56907     1 2pz   1.03822     2 1s    0.31301     2 2pz   0.56907
                                    2 2pz  -1.03822
   16.1     0.00000     0.74616     1 2py  -0.39890     1 2py   0.76990     2 2py  -0.39890     2 2py   0.76990     3 1s   -0.37786
                                    4 1s    0.37786     5 1s   -0.37786     6 1s    0.37786
   17.1     0.00000     0.78572     1 2px  -0.74964     1 2px   0.63983     2 2px  -0.74964     2 2px   0.63983
   18.1     0.00000     0.86390     1 1s   -0.90217     1 1s    1.51422     1 2pz   0.33390     2 1s   -0.90217     2 1s    1.51422
                                    2 2pz  -0.33390     3 1s   -0.38869     3 1s   -0.25929     4 1s   -0.38869     4 1s   -0.25929
                                    5 1s   -0.38869     5 1s   -0.25929     6 1s   -0.38869     6 1s   -0.25929
   19.1     0.00000     0.88492     1 2px  -0.81438     1 2px   1.05893     2 2px   0.81438     2 2px  -1.05893
   20.1     0.00000     0.92238     1 1s   -0.54561     1 2pz   0.62632     1 2pz  -0.72905     2 1s    0.54561     2 2pz   0.62632
                                    2 2pz  -0.72905     3 1s    0.36264     4 1s    0.36264     5 1s   -0.36264     6 1s   -0.36264
   21.1     0.00000     1.13672     1 2py   0.69641     1 2py  -1.09308     2 2py   0.69641     2 2py  -1.09308     3 1s   -0.38848
                                    3 1s    1.06397     4 1s    0.38848     4 1s   -1.06397     5 1s   -0.38848     5 1s    1.06397
                                    6 1s    0.38848     6 1s   -1.06397
   22.1     0.00000     1.16053     1 2py   0.92191     1 2py  -2.94989     2 2py  -0.92191     2 2py   2.94989     3 1s    1.53884
                                    4 1s   -1.53884     5 1s   -1.53884     6 1s    1.53884
   23.1     0.00000     1.22691     1 1s    1.03600     1 1s   -1.73863     1 2pz   0.36390     1 2pz  -0.49786     2 1s    1.03600
                                    2 1s   -1.73863     2 2pz  -0.36390     2 2pz   0.49786     3 1s   -0.44511     3 1s    0.87442
                                    4 1s   -0.44511     4 1s    0.87442     5 1s   -0.44511     5 1s    0.87442     6 1s   -0.44511
                                    6 1s    0.87442
   24.1     0.00000     1.22873     1 1s   -0.34623     1 2pz  -0.63434     1 2pz   1.39209     2 1s    0.34623     2 2pz  -0.63434
                                    2 2pz   1.39209     3 1s    0.49564     3 1s   -0.92002     4 1s    0.49564     4 1s   -0.92002
                                    5 1s   -0.49564     5 1s    0.92002     6 1s   -0.49564     6 1s    0.92002
   25.1     0.00000     1.31599     1 1s   -1.63781     1 1s    5.12982     1 2pz  -1.61604     2 1s    1.63781     2 1s   -5.12982
                                    2 2pz  -1.61604     3 1s   -0.46278     4 1s   -0.46278     5 1s    0.46278     6 1s    0.46278
   26.1     0.00000     1.44751     1 2py   2.36251     2 2py  -2.36251     3 1s   -0.68883     3 1s   -0.61654     4 1s    0.68883
                                    4 1s    0.61654     5 1s    0.68883     5 1s    0.61654     6 1s   -0.68883     6 1s   -0.61654
   27.1     0.00000     1.72518     1 3d1+  0.62476     2 3d1+ -0.62476
   28.1     0.00000     1.83389     1 3d2-  0.68491     2 3d2-  0.68491
   29.1     0.00000     2.10926     1 3d2-  0.73161     2 3d2- -0.73161
   30.1     0.00000     2.22609     1 1s    0.26116     1 1s   -0.63020     1 3d2+  0.69289     2 1s    0.26116     2 1s   -0.63020
                                    2 3d2+  0.69289     3 1s    0.35847     4 1s    0.35847     5 1s    0.35847     6 1s    0.35847
   31.1     0.00000     2.34142     1 2py   0.27624     1 3d1-  0.70350     2 2py   0.27624     2 3d1- -0.70350     3 1s   -0.52968
                                    4 1s    0.52968     5 1s   -0.52968     6 1s    0.52968
   32.1     0.00000     2.36163     1 1s   -0.46211     1 2pz   0.26684     1 2pz  -0.45730     1 3d0   0.65285     1 3d2+  0.25468
                                    2 1s   -0.46211     2 2pz  -0.26684     2 2pz   0.45730     2 3d0   0.65285     2 3d2+  0.25468
   33.1     0.00000     2.61092     1 1s    0.27328     1 1s   -1.21557     1 3d2+  0.79605     2 1s   -0.27328     2 1s    1.21557
                                    2 3d2+ -0.79605     3 1s    0.45048     4 1s    0.45048     5 1s   -0.45048     6 1s   -0.45048
   34.1     0.00000     2.66249     1 2px  -0.25726     1 3d1+  0.87815     2 2px   0.25726     2 3d1+  0.87815
   35.1     0.00000     3.01694     1 1s    1.97670     1 2pz  -0.68467     1 2pz  -1.17623     1 3d0   1.08478     2 1s   -1.97670
                                    2 2pz  -0.68467     2 2pz  -1.17623     2 3d0  -1.08478
   36.1     0.00000     3.05035     1 2py   0.58817     1 3d1-  0.95241     2 2py  -0.58817     2 3d1-  0.95241     3 1s   -0.49681
                                    4 1s    0.49681     5 1s    0.49681     6 1s   -0.49681


 HOMO      8.1    -0.359304 =      -9.7772eV
 LUMO      9.1     0.168552 =       4.5865eV
 LUMO-HOMO         0.527856 =      14.3637eV


 **********************************************************************************************************************************
 DATASETS  * FILE   NREC   LENGTH (MB)   RECORD NAMES
              1      19       30.63       500      610      700      900      950      970     1000      129      960     1100   
                                          VAR    BASINP    GEOM    SYMINP    ZMAT    AOBASIS   BASIS     P2S    ABASIS      S 
                                         1400     1410     1200     1210     1080     1600     1650     1300     1700   
                                           T        V       H0       H01     AOSYM     SMH    MOLCAS    ERIS     OPER   

              2       4        2.86       700     1000      520     2100   
                                         GEOM     BASIS   MCVARS     RHF  

 PROGRAMS   *        TOTAL    HF-SCF       INT
 CPU TIMES  *         0.40      0.09      0.22
 REAL TIME  *         0.67 SEC
 DISK USED  *        35.45 MB
 **********************************************************************************************************************************


 PROGRAM * MULTI (Direct Multiconfiguration SCF)       Authors: P.J. Knowles, H.-J. Werner (1984)


 Number of closed-shell orbitals:   7 (   7 )
 Number of active  orbitals:        2 (   2 )
 Number of external orbitals:      27 (  27 )

 State symmetry 1

 Number of electrons:     2    Spin symmetry=Singlet   Space symmetry=1
 Number of states:        3
 Number of CSFs:          3   (4 determinants, 4 intermediate states)

 Molecular orbitals read from record     2100.2  Type=RHF/CANONICAL (state 1.1)

 EXTRA SYMMETRY OF MOS IN SYMMETRY 1:   1 1 1 1 1 1 1 2 2 1   1 1 1 1 1 1 2 1 2 1   1 1 1 1 1 1 2 3 3 1   1 1 1 2 1 1

 Wavefunction dump at record             2140.2

 Convergence thresholds  0.10E-01 (gradient)  0.10E-05 (energy)  0.10E-02 (step length)

 Weight factors for state symmetry  1:    0.33333   0.33333   0.33333

 Number of orbital rotations:      257   (    14 Core/Active    189 Core/Virtual   0 Active/Active     54 Active/Virtual)
 Total number of variables:        269

 Micro-Iterations solved by the two-step solver

 ITER. MIC  NCI  NEG     ENERGY(VAR)     ENERGY(PROJ)   ENERGY CHANGE     GRAD(0)  GRAD(ORB)   GRAD(CI)     STEP       TIME

   1    3    3    0     -77.74115581     -77.74669975   -0.00554394    0.12427112 0.00000112 0.00000000  0.59D-01      0.05
   2    2    3    0     -77.74662139     -77.74662415   -0.00000276    0.00261456 0.00000136 0.00000000  0.14D-02      0.09
   3    2    3    0     -77.74662415     -77.74662415   -0.00000000    0.00000157 0.00000000 0.00000000  0.95D-06      0.12

 ** WVFN ****  CONVERGENCE REACHED, FINAL GRADIENT:  0.65D-12



 Results for state 1.1
 =====================

 !MCSCF STATE  1.1 Energy             -78.046531090316
 Nuclear energy                        33.00652914
 Kinetic energy                        78.01355926
 One electron energy                 -169.42710662
 Two electron energy                   58.37404638
 Virial ratio                           2.00042264

 !MCSCF STATE  1.1 Dipole moment        0.00000000    -0.00000000    -0.00000000
 Dipole moment /Debye                   0.00000000    -0.00000000    -0.00000000

 Results for state 2.1
 =====================

 !MCSCF STATE  2.1 Energy             -77.681118458612
 Nuclear energy                        33.00652914
 Kinetic energy                        78.20663234
 One electron energy                 -168.93688669
 Two electron energy                   58.24923909
 Virial ratio                           1.99328044

 !MCSCF STATE  2.1 Dipole moment        0.00000000    -0.00000000     0.00000000
 Dipole moment /Debye                   0.00000000    -0.00000000     0.00000000

 Results for state 3.1
 =====================

 !MCSCF STATE  3.1 Energy             -77.512222907452
 Nuclear energy                        33.00652914
 Kinetic energy                        78.39970543
 One electron energy                 -168.44666676
 Two electron energy                   57.92791471
 Virial ratio                           1.98868003

 !MCSCF STATE  3.1 Dipole moment        0.00000000    -0.00000000     0.00000000
 Dipole moment /Debye                   0.00000000    -0.00000000     0.00000000

 State-averaged charge density matrix saved on record  2140.2 (density set 1)

 !MCSCF trans         <2.1|DMZ|1.1>    -1.512315866206 au =    -3.843671759232 Debye
 !MCSCF trans         <3.1|DMZ|2.1>    -2.354124762878 au =    -5.983196414835 Debye


 NATURAL ORBITALS (state averaged)
 =================================

  Orbital  Occupation    Energy     Coefficients
    1.1     2.00000   -11.24219     1 1s    0.70426     2 1s    0.70426
    2.1     2.00000   -11.24114     1 1s    0.70447     2 1s   -0.70447
    3.1     2.00000    -1.02829     1 1s    0.30835     2 1s    0.30835
    4.1     2.00000    -0.80874     1 1s    0.27944     2 1s   -0.27944
    5.1     2.00000    -0.64790     1 2py   0.32729     2 2py   0.32729
    6.1     2.00000    -0.59248     1 2pz   0.40899     2 2pz  -0.40899
    7.1     2.00000    -0.52084     1 2py   0.31552     2 2py  -0.31552
    8.1     1.00000     0.02566     1 2px   0.38074     1 2px   0.66544     2 2px  -0.38074     2 2px  -0.66544
    9.1     1.00000    -0.21732     1 2px   0.35328     1 2px   0.32801     2 2px   0.35328     2 2px   0.32801
   10.1    -0.00000     0.26667     1 1s   -1.52664     1 2pz  -0.65560     2 1s   -1.52664     2 2pz   0.65560     3 1s    1.06306
                                    4 1s    1.06306     5 1s    1.06306     6 1s    1.06306
   11.1    -0.00000     0.29296     1 2py  -0.82180     2 2py  -0.82180     3 1s    1.11688     4 1s   -1.11688     5 1s    1.11688
                                    6 1s   -1.11688
   12.1    -0.00000     0.30622     1 1s    1.98296     2 1s   -1.98296     3 1s   -1.07224     4 1s   -1.07224     5 1s    1.07224
                                    6 1s    1.07224
   13.1    -0.00000     0.38580     1 2py  -0.25141     1 2py  -1.81510     2 2py   0.25141     2 2py   1.81510     3 1s    1.62805
                                    4 1s   -1.62805     5 1s   -1.62805     6 1s    1.62805
   14.1    -0.00000     0.47854     1 1s   -2.50710     1 2pz   2.76696     2 1s    2.50710     2 2pz   2.76696     3 1s   -0.63481
                                    4 1s   -0.63481     5 1s    0.63481     6 1s    0.63481
   15.1    -0.00000     0.67309     1 2pz  -0.56300     1 2pz   1.01358     2 2pz   0.56300     2 2pz  -1.01358
   16.1    -0.00000     0.73640     1 2py  -0.40937     1 2py   0.77464     2 2py  -0.40937     2 2py   0.77464     3 1s   -0.37385
                                    4 1s    0.37385     5 1s   -0.37385     6 1s    0.37385
   17.1    -0.00000     0.78025     1 2px  -0.75679     1 2px   0.63398     2 2px  -0.75679     2 2px   0.63398
   18.1    -0.00000     0.86145     1 1s   -0.89614     1 1s    1.54243     1 2pz   0.38411     2 1s   -0.89614     2 1s    1.54243
                                    2 2pz  -0.38411     3 1s   -0.39130     3 1s   -0.27173     4 1s   -0.39130     4 1s   -0.27173
                                    5 1s   -0.39130     5 1s   -0.27173     6 1s   -0.39130     6 1s   -0.27173
   19.1    -0.00000     0.86885     1 2px  -0.79967     1 2px   1.08621     2 2px   0.79967     2 2px  -1.08621
   20.1    -0.00000     0.90569     1 1s   -0.40410     1 2pz   0.62793     1 2pz  -0.80749     2 1s    0.40410     2 2pz   0.62793
                                    2 2pz  -0.80749     3 1s    0.36360     4 1s    0.36360     5 1s   -0.36360     6 1s   -0.36360
   21.1    -0.00000     1.12276     1 2py   0.68607     1 2py  -1.09510     2 2py   0.68607     2 2py  -1.09510     3 1s   -0.38857
                                    3 1s    1.07207     4 1s    0.38857     4 1s   -1.07207     5 1s   -0.38857     5 1s    1.07207
                                    6 1s    0.38857     6 1s   -1.07207
   22.1    -0.00000     1.14948     1 2py   0.91930     1 2py  -2.95441     2 2py  -0.91930     2 2py   2.95441     3 1s    1.54597
                                    4 1s   -1.54597     5 1s   -1.54597     6 1s    1.54597
   23.1    -0.00000     1.22454     1 1s    1.03124     1 1s   -1.73445     1 2pz   0.36778     1 2pz  -0.50333     2 1s    1.03124
                                    2 1s   -1.73445     2 2pz  -0.36778     2 2pz   0.50333     3 1s   -0.44554     3 1s    0.87378
                                    4 1s   -0.44554     4 1s    0.87378     5 1s   -0.44554     5 1s    0.87378     6 1s   -0.44554
                                    6 1s    0.87378
   24.1    -0.00000     1.22567     1 1s   -0.43625     1 2pz  -0.64948     1 2pz   1.51523     2 1s    0.43625     2 2pz  -0.64948
                                    2 2pz   1.51523     3 1s    0.49803     3 1s   -0.88040     4 1s    0.49803     4 1s   -0.88040
                                    5 1s   -0.49803     5 1s    0.88040     6 1s   -0.49803     6 1s    0.88040
   25.1    -0.00000     1.29905     1 1s   -1.66096     1 1s    5.11786     1 2pz  -1.49669     2 1s    1.66096     2 1s   -5.11786
                                    2 2pz  -1.49669     3 1s   -0.53600     4 1s   -0.53600     5 1s    0.53600     6 1s    0.53600
   26.1    -0.00000     1.43941     1 2py   2.36490     2 2py  -2.36490     3 1s   -0.68777     3 1s   -0.61718     4 1s    0.68777
                                    4 1s    0.61718     5 1s    0.68777     5 1s    0.61718     6 1s   -0.68777     6 1s   -0.61718
   27.1    -0.00000     1.70214     1 3d1+  0.62457     2 3d1+ -0.62457
   28.1    -0.00000     1.82192     1 3d2-  0.68491     2 3d2-  0.68491
   29.1    -0.00000     2.08818     1 3d2-  0.73161     2 3d2- -0.73161
   30.1    -0.00000     2.21238     1 1s    0.26017     1 1s   -0.62585     1 3d2+  0.69074     2 1s    0.26017     2 1s   -0.62585
                                    2 3d2+  0.69074     3 1s    0.35884     4 1s    0.35884     5 1s    0.35884     6 1s    0.35884
   31.1    -0.00000     2.32681     1 2py   0.28298     1 3d1-  0.70178     2 2py   0.28298     2 3d1- -0.70178     3 1s   -0.53293
                                    4 1s    0.53293     5 1s   -0.53293     6 1s    0.53293
   32.1    -0.00000     2.34316     1 1s   -0.45881     1 2pz   0.27141     1 2pz  -0.46114     1 3d0   0.65113     1 3d2+  0.25939
                                    2 1s   -0.45881     2 2pz  -0.27141     2 2pz   0.46114     2 3d0   0.65113     2 3d2+  0.25939
   33.1    -0.00000     2.59306     1 1s    0.27380     1 1s   -1.22021     1 3d2+  0.79533     2 1s   -0.27380     2 1s    1.22021
                                    2 3d2+ -0.79533     3 1s    0.45339     4 1s    0.45339     5 1s   -0.45339     6 1s   -0.45339
   34.1    -0.00000     2.64140     1 2px  -0.25773     1 3d1+  0.87850     2 2px   0.25773     2 3d1+  0.87850
   35.1    -0.00000     3.00106     1 1s    1.99879     1 2pz  -0.67758     1 2pz  -1.18780     1 3d0   1.08610     2 1s   -1.99879
                                    2 2pz  -0.67758     2 2pz  -1.18780     2 3d0  -1.08610
   36.1    -0.00000     3.03868     1 2py   0.58802     1 3d1-  0.95201     2 2py  -0.58802     2 3d1-  0.95201     3 1s   -0.49898
                                    4 1s    0.49898     5 1s    0.49898     6 1s   -0.49898


 Natural orbital dump (state averaged) at molpro section  2140.2    (Orbital set 2)



 **********************************************************************************************************************************
 DATASETS  * FILE   NREC   LENGTH (MB)   RECORD NAMES
              1      20       31.36       500      610      700      900      950      970     1000      129      960     1100   
                                          VAR    BASINP    GEOM    SYMINP    ZMAT    AOBASIS   BASIS     P2S    ABASIS      S 
                                         1400     1410     1200     1210     1080     1600     1650     1300     1700     1380   
                                           T        V       H0       H01     AOSYM     SMH    MOLCAS    ERIS     OPER     JKOP   

              2       5        5.42       700     1000      520     2100     2140   
                                         GEOM     BASIS   MCVARS     RHF     MCSCF   

 PROGRAMS   *        TOTAL     MULTI    HF-SCF       INT
 CPU TIMES  *         0.55      0.15      0.09      0.22
 REAL TIME  *         0.85 SEC
 DISK USED  *        38.54 MB
 **********************************************************************************************************************************
 Molecular orbitals read from record     2140.2  Type=MCSCF/NATURAL (state averaged)
 Occupation numbers read from record     2140.2  Type=MCSCF/NATURAL (state averaged)
 Orbital energies read from record       2140.2  Type=MCSCF/NATURAL (state averaged)
 Redundancy group numbers read from rec  2140.2  Type=MCSCF/NATURAL (state averaged)

 MULTI/6-31G* energy=    -77.512222907452

           MULTI          HF-SCF
    -77.51222291    -78.02633263
 **********************************************************************************************************************************
 Molpro calculation terminated
