
 Primary working directories    : /scratch.local/johan406.molpro_temp/molpro.BDN6v6qTBx
 Secondary working directories  : /scratch.local/johan406.molpro_temp/molpro.BDN6v6qTBx
 Wavefunction directory         : /home/goodpast/johan406/wfu/
 Main file repository           : /scratch.local/johan406.molpro_temp/molpro.BDN6v6qTBx/

 id        : roweumn

 Nodes     nprocs
 cn0416       1

 Using customized tuning parameters: mindgm=1; mindgv=20; mindgc=4; mindgr=1; noblas=0; minvec=7
 default implementation of scratch files=df  


 Variables initialized (934), CPU time= 0.01 sec
                                                                                 !leave this line blank
 
 gprint, orbitals=30
 memory, 125., m
 symmetry, nosym
 nelect=16
 basis=6-31g*
 
 geometry={
 C 0.000 0.000 0.684
 C 0.000 -0.000 -0.684
 H 0.000 0.905 1.251
 H 0.000 -0.905 1.251
 H 0.000 0.905 -1.251
 H 0.000 -0.905 -1.251
 }
 
 hf
 {multi,
 closed 7
 occ 9
 wf,spin=0;STATE,3
 }
 
 Commands  initialized (763), CPU time= 0.00 sec, 617 directives.
 Default parameters read. Elapsed time= 0.05 sec

 Checking input...
 Passed
1


                                         ***  PROGRAM SYSTEM MOLPRO  ***
                                       Copyright, TTI GmbH Stuttgart, 2015
                                    Version 2019.2 linked Oct 25 2019 22:50:27


 **********************************************************************************************************************************
 LABEL *                                                                                 
  64 bit serial version                                                                  DATE: 15-Mar-23          TIME: 16:29:25  
 **********************************************************************************************************************************

 SHA1:             8dbd9ae1082e4ce945b0f27595c9eb2d4aa09004
 **********************************************************************************************************************************


 Variable memory set to  125000000 words,  buffer space 

 SETTING NELECT         =        16.00000000                                  
 SETTING BASIS          =    6-31G*
 ZSYMEL=NOSYM


Geometry recognized as XYZ



 Recomputing integrals since basis changed


 Using spherical harmonics

 Library entry C      S 6-31G                selected for orbital group  1
 Library entry C      P 6-31G                selected for orbital group  1
 Library entry C      D 6-31G*               selected for orbital group  1
 Library entry H      S 6-31G                selected for orbital group  2


 PROGRAM * SEWARD (Integral evaluation for generally contracted gaussian basis sets)     Author: Roland Lindh, 1990

 Geometry written to block  1 of record 700


 Point group  C1  



 ATOMIC COORDINATES

 NR  ATOM    CHARGE       X              Y              Z

   1  C       6.00    0.000000000    0.000000000    1.292572669
   2  C       6.00    0.000000000   -0.000000000   -1.292572669
   3  H       1.00    0.000000000    1.710202143    2.364047382
   4  H       1.00    0.000000000   -1.710202143    2.364047382
   5  H       1.00    0.000000000    1.710202143   -2.364047382
   6  H       1.00    0.000000000   -1.710202143   -2.364047382

 Bond lengths in Bohr (Angstrom)

 1-2  2.585145338  1-3  2.018130181  1-4  2.018130181  2-5  2.018130181  2-6  2.018130181
     ( 1.368000000)     ( 1.067948501)     ( 1.067948501)     ( 1.067948501)     ( 1.067948501)

 Bond angles

  1-2-5  122.06793937   1-2-6  122.06793937   2-1-3  122.06793937   2-1-4  122.06793937

  3-1-4  115.86412126   5-2-6  115.86412126

 NUCLEAR CHARGE:                   16
 NUMBER OF PRIMITIVE AOS:          72
 NUMBER OF SYMMETRY AOS:           70
 NUMBER OF CONTRACTIONS:           36   (   36A   )
 NUMBER OF CORE ORBITALS:           2   (    2A   )
 NUMBER OF VALENCE ORBITALS:       12   (   12A   )


 NUCLEAR REPULSION ENERGY   33.11368681

 EXTRA SYMMETRY OF AOS IN SYMMETRY 1:   1 1 1 2 1 1 2 1 1 1   3 2 1 1 1 1 1 2 1 1   2 1 1 1 3 2 1 1 1 1   1 1 1 1 1 1

 Eigenvalues of metric

         1 0.922E-02 0.178E-01 0.365E-01 0.448E-01 0.705E-01 0.210E+00 0.213E+00 0.229E+00


 Contracted 2-electron integrals neglected if value below      1.0D-11
 AO integral compression algorithm  1   Integral accuracy      1.0D-11

     0.786 MB (compressed) written to integral file ( 37.7%)


 NUMBER OF SORTED TWO-ELECTRON INTEGRALS:     222111.     BUFFER LENGTH:  32768
 NUMBER OF SEGMENTS:   1  SEGMENT LENGTH:     222111      RECORD LENGTH: 524288

 Memory used in sort:       0.78 MW

 SORT1 READ      284735. AND WROTE       98255. INTEGRALS IN      1 RECORDS. CPU TIME:     0.01 SEC, REAL TIME:     0.01 SEC
 SORT2 READ       98255. AND WROTE      222111. INTEGRALS IN      3 RECORDS. CPU TIME:     0.01 SEC, REAL TIME:     0.02 SEC

 FILE SIZES:   FILE 1:    30.9 MBYTE,  FILE 4:     4.2 MBYTE,   TOTAL:     35.1 MBYTE

 OPERATOR DM      FOR CENTER  0  COORDINATES:    0.000000    0.000000    0.000000


 **********************************************************************************************************************************
 DATASETS  * FILE   NREC   LENGTH (MB)   RECORD NAMES
              1      19       30.63       500      610      700      900      950      970     1000      129      960     1100   
                                          VAR    BASINP    GEOM    SYMINP    ZMAT    AOBASIS   BASIS     P2S    ABASIS      S 
                                         1400     1410     1200     1210     1080     1600     1650     1300     1700   
                                           T        V       H0       H01     AOSYM     SMH    MOLCAS    ERIS     OPER   

 PROGRAMS   *        TOTAL       INT
 CPU TIMES  *         0.30      0.22
 REAL TIME  *         0.48 SEC
 DISK USED  *        35.45 MB
 **********************************************************************************************************************************


 PROGRAM * RHF-SCF (CLOSED SHELL)       Authors: W. Meyer, H.-J. Werner


 NUMBER OF ELECTRONS:       8+    8-    SPACE SYMMETRY=1    SPIN SYMMETRY: Singlet 
 CONVERGENCE THRESHOLDS:    1.00E-05 (Density)    1.00E-07 (Energy)
 MAX. NUMBER OF ITERATIONS:       60
 INTERPOLATION TYPE:            DIIS
 INTERPOLATION STEPS:              2 (START)      1 (STEP)
 LEVEL SHIFTS:                  0.00 (CLOSED)  0.00 (OPEN) 



 Orbital guess generated from atomic densities. Full valence occupancy:    8

 Molecular orbital dump at record        2100.2

 Initial occupancy:   8

 ITERATION    DDIFF          GRAD             ENERGY        2-EL.EN.            DIPOLE MOMENTS         DIIS   ORB.
    1      0.000D+00      0.000D+00       -78.00479205    118.008134    0.00000    0.00000    0.00000    0    start
    2      0.000D+00      0.828D-02       -78.02585601    116.337753    0.00000   -0.00000    0.00000    1    diag
    3      0.800D-02      0.275D-02       -78.02779198    116.918503    0.00000    0.00000    0.00000    2    diag
    4      0.250D-02      0.698D-03       -78.02799138    116.818496    0.00000    0.00000    0.00000    3    diag
    5      0.103D-02      0.652D-04       -78.02799330    116.821311    0.00000   -0.00000    0.00000    4    diag
    6      0.137D-03      0.740D-05       -78.02799332    116.820917   -0.00000   -0.00000    0.00000    5    diag
    7      0.132D-04      0.112D-05       -78.02799332    116.820925    0.00000   -0.00000    0.00000    6    diag
    8      0.167D-05      0.126D-06       -78.02799332    116.820920    0.00000    0.00000   -0.00000    0    orth

 Final occupancy:   8

 !RHF STATE  1.1 Energy               -78.027993321269
 Nuclear energy                        33.11368681
 One-electron energy                 -169.55213994
 Two-electron energy                   58.41045982
 Virial quotient                       -1.00064606
 !RHF STATE  1.1 Dipole moment          0.00000000     0.00000000    -0.00000000
 Dipole moment /Debye                   0.00000000     0.00000000    -0.00000000

 ELECTRON ORBITALS
 =================

  Orbital  Occupation    Energy     Coefficients
    1.1     2.00000   -11.22832     1 1s    0.70423     2 1s    0.70423
    2.1     2.00000   -11.22694     1 1s    0.70452     2 1s   -0.70452
    3.1     2.00000    -1.01911     1 1s    0.30121     2 1s    0.30121
    4.1     2.00000    -0.79981     2 1s   -0.24127
    5.1     2.00000    -0.63653     1 2py   0.32229     2 2py   0.32229
    6.1     2.00000    -0.58077     1 2pz   0.40697     2 2pz  -0.40697
    7.1     2.00000    -0.51199     1 2py   0.30856     2 2py  -0.30856
    8.1     2.00000    -0.36214     1 2px   0.37062     1 2px   0.31361     2 2px   0.37062     2 2px   0.31361
    9.1     0.00000     0.17130     1 2px   0.34480     1 2px   0.71533     2 2px  -0.34480     2 2px  -0.71533
   10.1     0.00000     0.26874     1 1s   -1.52448     1 2pz  -0.65269     2 1s   -1.52448     2 2pz   0.65269     3 1s    1.06025
                                    4 1s    1.06025     5 1s    1.06025     6 1s    1.06025
   11.1     0.00000     0.29876     1 2py  -0.82096     2 2py  -0.82096     3 1s    1.11595     4 1s   -1.11595     5 1s    1.11595
                                    6 1s   -1.11595
   12.1     0.00000     0.30888     1 1s    1.94799     2 1s   -1.94799     3 1s   -1.07870     4 1s   -1.07870     5 1s    1.07870
                                    6 1s    1.07870
   13.1     0.00000     0.39002     1 2py  -1.83668     2 2py   1.83668     3 1s    1.63105     4 1s   -1.63105     5 1s   -1.63105
                                    6 1s    1.63105
   14.1     0.00000     0.48536     1 1s   -2.66868     1 2pz   2.84890     2 1s    2.66868     2 2pz   2.84890     3 1s   -0.62093
                                    4 1s   -0.62093     5 1s    0.62093     6 1s    0.62093
   15.1     0.00000     0.67994     1 1s    0.29148     1 2pz  -0.56605     1 2pz   1.04016     2 1s    0.29148     2 2pz   0.56605
                                    2 2pz  -1.04016
   16.1     0.00000     0.74912     1 2py  -0.39909     1 2py   0.76529     2 2py  -0.39909     2 2py   0.76529     3 1s   -0.37995
                                    4 1s    0.37995     5 1s   -0.37995     6 1s    0.37995
   17.1     0.00000     0.78337     1 2px  -0.74712     1 2px   0.63978     2 2px  -0.74712     2 2px   0.63978
   18.1     0.00000     0.86412     1 1s   -0.89851     1 1s    1.51265     1 2pz   0.35039     2 1s   -0.89851     2 1s    1.51265
                                    2 2pz  -0.35039     3 1s   -0.39106     3 1s   -0.25766     4 1s   -0.39106     4 1s   -0.25766
                                    5 1s   -0.39106     5 1s   -0.25766     6 1s   -0.39106     6 1s   -0.25766
   19.1     0.00000     0.88635     1 2px  -0.81554     1 2px   1.06315     2 2px   0.81554     2 2px  -1.06315
   20.1     0.00000     0.93074     1 1s   -0.61389     1 2pz   0.61951     1 2pz  -0.67625     2 1s    0.61389     2 2pz   0.61951
                                    2 2pz  -0.67625     3 1s    0.36883     4 1s    0.36883     5 1s   -0.36883     6 1s   -0.36883
   21.1     0.00000     1.13070     1 2py  -0.69365     1 2py   1.09294     2 2py  -0.69365     2 2py   1.09294     3 1s    0.38659
                                    3 1s   -1.06349     4 1s   -0.38659     4 1s    1.06349     5 1s    0.38659     5 1s   -1.06349
                                    6 1s   -0.38659     6 1s    1.06349
   22.1     0.00000     1.16034     1 2py   0.92251     1 2py  -2.94370     2 2py  -0.92251     2 2py   2.94370     3 1s    1.52858
                                    4 1s   -1.52858     5 1s   -1.52858     6 1s    1.52858
   23.1     0.00000     1.22511     1 1s    1.03485     1 1s   -1.73378     1 2pz   0.36504     1 2pz  -0.49870     2 1s    1.03485
                                    2 1s   -1.73378     2 2pz  -0.36504     2 2pz   0.49870     3 1s   -0.44488     3 1s    0.87254
                                    4 1s   -0.44488     4 1s    0.87254     5 1s   -0.44488     5 1s    0.87254     6 1s   -0.44488
                                    6 1s    0.87254
   24.1     0.00000     1.22849     1 1s   -0.41467     1 2pz  -0.63269     1 2pz   1.33330     2 1s    0.41467     2 2pz  -0.63269
                                    2 2pz   1.33330     3 1s    0.48834     3 1s   -0.93943     4 1s    0.48834     4 1s   -0.93943
                                    5 1s   -0.48834     5 1s    0.93943     6 1s   -0.48834     6 1s    0.93943
   25.1     0.00000     1.32153     1 1s   -1.62233     1 1s    5.19540     1 2pz  -1.70864     2 1s    1.62233     2 1s   -5.19540
                                    2 2pz  -1.70864     3 1s   -0.41645     4 1s   -0.41645     5 1s    0.41645     6 1s    0.41645
   26.1     0.00000     1.44985     1 2py   2.39542     2 2py  -2.39542     3 1s   -0.68957     3 1s   -0.62341     4 1s    0.68957
                                    4 1s    0.62341     5 1s    0.68957     5 1s    0.62341     6 1s   -0.68957     6 1s   -0.62341
   27.1     0.00000     1.72845     1 3d1+  0.62307     2 3d1+ -0.62307
   28.1     0.00000     1.83060     1 3d2-  0.68390     2 3d2-  0.68390
   29.1     0.00000     2.11463     1 3d2-  0.73285     2 3d2- -0.73285
   30.1     0.00000     2.22119     1 1s   -0.62680     1 3d2+  0.70409     2 1s   -0.62680     2 3d2+  0.70409     3 1s    0.36806
                                    4 1s    0.36806     5 1s    0.36806     6 1s    0.36806
   31.1     0.00000     2.33999     1 2py   0.27770     1 3d1-  0.70049     2 2py   0.27770     2 3d1- -0.70049     3 1s   -0.52710
                                    4 1s    0.52710     5 1s   -0.52710     6 1s    0.52710
   32.1     0.00000     2.37279     1 1s   -0.47925     1 2pz   0.27526     1 2pz  -0.45386     1 3d0   0.66775     2 1s   -0.47925
                                    2 2pz  -0.27526     2 2pz   0.45386     2 3d0   0.66775
   33.1     0.00000     2.61238     1 1s    0.27758     1 1s   -1.23053     1 3d2+  0.79633     2 1s   -0.27758     2 1s    1.23053
                                    2 3d2+ -0.79633     3 1s    0.44769     4 1s    0.44769     5 1s   -0.44769     6 1s   -0.44769
   34.1     0.00000     2.67523     1 2px  -0.25940     1 3d1+  0.88491     2 2px   0.25940     2 3d1+  0.88491
   35.1     0.00000     3.02880     1 1s    1.99769     1 2pz  -0.71457     1 2pz  -1.18214     1 3d0   1.09262     2 1s   -1.99769
                                    2 2pz  -0.71457     2 2pz  -1.18214     2 3d0  -1.09262
   36.1     0.00000     3.05989     1 2py   0.57911     1 3d1-  0.95875     2 2py  -0.57911     2 3d1-  0.95875     3 1s   -0.49299
                                    4 1s    0.49299     5 1s    0.49299     6 1s   -0.49299


 HOMO      8.1    -0.362138 =      -9.8543eV
 LUMO      9.1     0.171304 =       4.6614eV
 LUMO-HOMO         0.533442 =      14.5157eV


 **********************************************************************************************************************************
 DATASETS  * FILE   NREC   LENGTH (MB)   RECORD NAMES
              1      19       30.63       500      610      700      900      950      970     1000      129      960     1100   
                                          VAR    BASINP    GEOM    SYMINP    ZMAT    AOBASIS   BASIS     P2S    ABASIS      S 
                                         1400     1410     1200     1210     1080     1600     1650     1300     1700   
                                           T        V       H0       H01     AOSYM     SMH    MOLCAS    ERIS     OPER   

              2       4        2.86       700     1000      520     2100   
                                         GEOM     BASIS   MCVARS     RHF  

 PROGRAMS   *        TOTAL    HF-SCF       INT
 CPU TIMES  *         0.39      0.09      0.22
 REAL TIME  *         0.59 SEC
 DISK USED  *        35.45 MB
 **********************************************************************************************************************************


 PROGRAM * MULTI (Direct Multiconfiguration SCF)       Authors: P.J. Knowles, H.-J. Werner (1984)


 Number of closed-shell orbitals:   7 (   7 )
 Number of active  orbitals:        2 (   2 )
 Number of external orbitals:      27 (  27 )

 State symmetry 1

 Number of electrons:     2    Spin symmetry=Singlet   Space symmetry=1
 Number of states:        3
 Number of CSFs:          3   (4 determinants, 4 intermediate states)

 Molecular orbitals read from record     2100.2  Type=RHF/CANONICAL (state 1.1)

 EXTRA SYMMETRY OF MOS IN SYMMETRY 1:   1 1 1 1 1 1 1 2 2 1   1 1 1 1 1 1 2 1 2 1   1 1 1 1 1 1 2 3 3 1   1 1 1 2 1 1

 Wavefunction dump at record             2140.2

 Convergence thresholds  0.10E-01 (gradient)  0.10E-05 (energy)  0.10E-02 (step length)

 Weight factors for state symmetry  1:    0.33333   0.33333   0.33333

 Number of orbital rotations:      257   (    14 Core/Active    189 Core/Virtual   0 Active/Active     54 Active/Virtual)
 Total number of variables:        269

 Micro-Iterations solved by the two-step solver

 ITER. MIC  NCI  NEG     ENERGY(VAR)     ENERGY(PROJ)   ENERGY CHANGE     GRAD(0)  GRAD(ORB)   GRAD(CI)     STEP       TIME

   1    3    3    0     -77.73838469     -77.74412218   -0.00573749    0.12662542 0.00000123 0.00000000  0.60D-01      0.06
   2    2    3    0     -77.74403840     -77.74404143   -0.00000302    0.00273259 0.00000149 0.00000000  0.14D-02      0.09
   3    2    3    0     -77.74404143     -77.74404143   -0.00000000    0.00000172 0.00000000 0.00000000  0.10D-05      0.11

 ** WVFN ****  CONVERGENCE REACHED, FINAL GRADIENT:  0.79D-12



 Results for state 1.1
 =====================

 !MCSCF STATE  1.1 Energy             -78.047461706652
 Nuclear energy                        33.11368681
 Kinetic energy                        78.03344383
 One electron energy                 -169.65568003
 Two electron energy                   58.49453152
 Virial ratio                           2.00017964

 !MCSCF STATE  1.1 Dipole moment        0.00000000     0.00000000    -0.00000000
 Dipole moment /Debye                   0.00000000     0.00000000    -0.00000000

 Results for state 2.1
 =====================

 !MCSCF STATE  2.1 Energy             -77.679162074862
 Nuclear energy                        33.11368681
 Kinetic energy                        78.22296752
 One electron energy                 -169.14261066
 Two electron energy                   58.34976178
 Virial ratio                           1.99304801

 !MCSCF STATE  2.1 Dipole moment        0.00000000     0.00000000     0.00000000
 Dipole moment /Debye                   0.00000000     0.00000000     0.00000000

 Results for state 3.1
 =====================

 !MCSCF STATE  3.1 Energy             -77.505500497516
 Nuclear energy                        33.11368681
 Kinetic energy                        78.41249121
 One electron energy                 -168.62954128
 Two electron energy                   58.01035398
 Virial ratio                           1.98843308

 !MCSCF STATE  3.1 Dipole moment        0.00000000     0.00000000    -0.00000000
 Dipole moment /Debye                   0.00000000     0.00000000    -0.00000000

 State-averaged charge density matrix saved on record  2140.2 (density set 1)

 !MCSCF trans         <2.1|DMZ|1.1>    -1.512057952636 au =    -3.843016251261 Debye
 !MCSCF trans         <3.1|DMZ|2.1>    -2.330958181970 au =    -5.924316696130 Debye


 NATURAL ORBITALS (state averaged)
 =================================

  Orbital  Occupation    Energy     Coefficients
    1.1     2.00000   -11.24189     1 1s    0.70424     2 1s    0.70424
    2.1     2.00000   -11.24078     1 1s    0.70448     2 1s   -0.70448
    3.1     2.00000    -1.03183     1 1s    0.30899     2 1s    0.30899
    4.1     2.00000    -0.80682     1 1s    0.28117     2 1s   -0.28117
    5.1     2.00000    -0.64807     1 2py   0.32743     2 2py   0.32743
    6.1     2.00000    -0.59516     1 2pz   0.40892     2 2pz  -0.40892
    7.1     2.00000    -0.51791     1 2py   0.31446     2 2py  -0.31446
    8.1     1.00000     0.02785     1 2px   0.38053     1 2px   0.67141     2 2px  -0.38053     2 2px  -0.67141
    9.1     1.00000    -0.21959     1 2px   0.35462     1 2px   0.32552     2 2px   0.35462     2 2px   0.32552
   10.1    -0.00000     0.26634     1 1s   -1.52119     1 2pz  -0.65885     2 1s   -1.52119     2 2pz   0.65885     3 1s    1.06001
                                    4 1s    1.06001     5 1s    1.06001     6 1s    1.06001
   11.1    -0.00000     0.29095     1 2py  -0.81291     2 2py  -0.81291     3 1s    1.10831     4 1s   -1.10831     5 1s    1.10831
                                    6 1s   -1.10831
   12.1    -0.00000     0.30598     1 1s    1.97372     2 1s   -1.97372     3 1s   -1.07221     4 1s   -1.07221     5 1s    1.07221
                                    6 1s    1.07221
   13.1    -0.00000     0.38635     1 2py  -0.25186     1 2py  -1.82403     2 2py   0.25186     2 2py   1.82403     3 1s    1.62488
                                    4 1s   -1.62488     5 1s   -1.62488     6 1s    1.62488
   14.1    -0.00000     0.48203     1 1s   -2.64004     1 2pz   2.82706     2 1s    2.64004     2 2pz   2.82706     3 1s   -0.63174
                                    4 1s   -0.63174     5 1s    0.63174     6 1s    0.63174
   15.1    -0.00000     0.66907     1 2pz  -0.55917     1 2pz   1.01526     2 2pz   0.55917     2 2pz  -1.01526
   16.1    -0.00000     0.73920     1 2py  -0.40982     1 2py   0.77081     2 2py  -0.40982     2 2py   0.77081     3 1s   -0.37573
                                    4 1s    0.37573     5 1s   -0.37573     6 1s    0.37573
   17.1    -0.00000     0.77776     1 2px  -0.75412     1 2px   0.63410     2 2px  -0.75412     2 2px   0.63410
   18.1    -0.00000     0.86170     1 1s   -0.89204     1 1s    1.53923     1 2pz   0.39929     2 1s   -0.89204     2 1s    1.53923
                                    2 2pz  -0.39929     3 1s   -0.39325     3 1s   -0.26970     4 1s   -0.39325     4 1s   -0.26970
                                    5 1s   -0.39325     5 1s   -0.26970     6 1s   -0.39325     6 1s   -0.26970
   19.1    -0.00000     0.86986     1 2px  -0.80058     1 2px   1.09129     2 2px   0.80058     2 2px  -1.09129
   20.1    -0.00000     0.91349     1 1s   -0.46725     1 2pz   0.62197     1 2pz  -0.75713     2 1s    0.46725     2 2pz   0.62197
                                    2 2pz  -0.75713     3 1s    0.36950     4 1s    0.36950     5 1s   -0.36950     6 1s   -0.36950
   21.1    -0.00000     1.11632     1 2py  -0.68291     1 2py   1.09481     2 2py  -0.68291     2 2py   1.09481     3 1s    0.38687
                                    3 1s   -1.07185     4 1s   -0.38687     4 1s    1.07185     5 1s    0.38687     5 1s   -1.07185
                                    6 1s   -0.38687     6 1s    1.07185
   22.1    -0.00000     1.14888     1 2py   0.91979     1 2py  -2.94828     2 2py  -0.91979     2 2py   2.94828     3 1s    1.53594
                                    4 1s   -1.53594     5 1s   -1.53594     6 1s    1.53594
   23.1    -0.00000     1.22252     1 1s    1.03009     1 1s   -1.72973     1 2pz   0.36877     1 2pz  -0.50416     2 1s    1.03009
                                    2 1s   -1.72973     2 2pz  -0.36877     2 2pz   0.50416     3 1s   -0.44533     3 1s    0.87199
                                    4 1s   -0.44533     4 1s    0.87199     5 1s   -0.44533     5 1s    0.87199     6 1s   -0.44533
                                    6 1s    0.87199
   24.1    -0.00000     1.22581     1 1s   -0.30681     1 2pz  -0.64840     1 2pz   1.44409     2 1s    0.30681     2 2pz  -0.64840
                                    2 2pz   1.44409     3 1s    0.49159     3 1s   -0.90957     4 1s    0.49159     4 1s   -0.90957
                                    5 1s   -0.49159     5 1s    0.90957     6 1s   -0.49159     6 1s    0.90957
   25.1    -0.00000     1.30365     1 1s   -1.64744     1 1s    5.20307     1 2pz  -1.61245     2 1s    1.64744     2 1s   -5.20307
                                    2 2pz  -1.61245     3 1s   -0.48002     4 1s   -0.48002     5 1s    0.48002     6 1s    0.48002
   26.1    -0.00000     1.44163     1 2py   2.39823     2 2py  -2.39823     3 1s   -0.68848     3 1s   -0.62426     4 1s    0.68848
                                    4 1s    0.62426     5 1s    0.68848     5 1s    0.62426     6 1s   -0.68848     6 1s   -0.62426
   27.1    -0.00000     1.70466     1 3d1+  0.62286     2 3d1+ -0.62286
   28.1    -0.00000     1.81812     1 3d2-  0.68390     2 3d2-  0.68390
   29.1    -0.00000     2.09298     1 3d2-  0.73285     2 3d2- -0.73285
   30.1    -0.00000     2.20709     1 1s   -0.62267     1 3d2+  0.70285     2 1s   -0.62267     2 3d2+  0.70285     3 1s    0.36921
                                    4 1s    0.36921     5 1s    0.36921     6 1s    0.36921
   31.1    -0.00000     2.32490     1 2py   0.28447     1 3d1-  0.69875     2 2py   0.28447     2 3d1- -0.69875     3 1s   -0.53040
                                    4 1s    0.53040     5 1s   -0.53040     6 1s    0.53040
   32.1    -0.00000     2.35381     1 1s   -0.47662     1 2pz   0.28048     1 2pz  -0.45731     1 3d0   0.66685     2 1s   -0.47662
                                    2 2pz  -0.28048     2 2pz   0.45731     2 3d0   0.66685
   33.1    -0.00000     2.59399     1 1s    0.27815     1 1s   -1.23541     1 3d2+  0.79559     2 1s   -0.27815     2 1s    1.23541
                                    2 3d2+ -0.79559     3 1s    0.45065     4 1s    0.45065     5 1s   -0.45065     6 1s   -0.45065
   34.1    -0.00000     2.65373     1 2px  -0.25995     1 3d1+  0.88526     2 2px   0.25995     2 3d1+  0.88526
   35.1    -0.00000     3.01235     1 1s    2.02069     1 2pz  -0.70735     1 2pz  -1.19419     1 3d0   1.09402     2 1s   -2.02069
                                    2 2pz  -0.70735     2 2pz  -1.19419     2 3d0  -1.09402
   36.1    -0.00000     3.04788     1 2py   0.57895     1 3d1-  0.95835     2 2py  -0.57895     2 3d1-  0.95835     3 1s   -0.49518
                                    4 1s    0.49518     5 1s    0.49518     6 1s   -0.49518


 Natural orbital dump (state averaged) at molpro section  2140.2    (Orbital set 2)



 **********************************************************************************************************************************
 DATASETS  * FILE   NREC   LENGTH (MB)   RECORD NAMES
              1      20       31.36       500      610      700      900      950      970     1000      129      960     1100   
                                          VAR    BASINP    GEOM    SYMINP    ZMAT    AOBASIS   BASIS     P2S    ABASIS      S 
                                         1400     1410     1200     1210     1080     1600     1650     1300     1700     1380   
                                           T        V       H0       H01     AOSYM     SMH    MOLCAS    ERIS     OPER     JKOP   

              2       5        5.42       700     1000      520     2100     2140   
                                         GEOM     BASIS   MCVARS     RHF     MCSCF   

 PROGRAMS   *        TOTAL     MULTI    HF-SCF       INT
 CPU TIMES  *         0.53      0.14      0.09      0.22
 REAL TIME  *         0.77 SEC
 DISK USED  *        38.54 MB
 **********************************************************************************************************************************
 Molecular orbitals read from record     2140.2  Type=MCSCF/NATURAL (state averaged)
 Occupation numbers read from record     2140.2  Type=MCSCF/NATURAL (state averaged)
 Orbital energies read from record       2140.2  Type=MCSCF/NATURAL (state averaged)
 Redundancy group numbers read from rec  2140.2  Type=MCSCF/NATURAL (state averaged)

 MULTI/6-31G* energy=    -77.505500497516

           MULTI          HF-SCF
    -77.50550050    -78.02799332
 **********************************************************************************************************************************
 Molpro calculation terminated
