
 Primary working directories    : /scratch.local/johan406.molpro_temp/molpro.h1hXjSlzIe
 Secondary working directories  : /scratch.local/johan406.molpro_temp/molpro.h1hXjSlzIe
 Wavefunction directory         : /home/goodpast/johan406/wfu/
 Main file repository           : /scratch.local/johan406.molpro_temp/molpro.h1hXjSlzIe/

 id        : roweumn

 Nodes     nprocs
 cn0416       1

 Using customized tuning parameters: mindgm=1; mindgv=20; mindgc=4; mindgr=1; noblas=0; minvec=7
 default implementation of scratch files=df  


 Variables initialized (934), CPU time= 0.00 sec
                                                                                 !leave this line blank
 
 gprint, orbitals=30
 memory, 125., m
 symmetry, nosym
 nelect=16
 basis=6-31g*
 
 geometry={
 C 0.000 0.000 0.681
 C 0.000 -0.000 -0.681
 H 0.000 0.909 1.241
 H 0.000 -0.909 1.241
 H 0.000 0.909 -1.241
 H 0.000 -0.909 -1.241
 }
 
 hf
 {multi,
 closed 7
 occ 9
 wf,spin=0;STATE,3
 }
 
 Commands  initialized (763), CPU time= 0.01 sec, 617 directives.
 Default parameters read. Elapsed time= 0.05 sec

 Checking input...
 Passed
1


                                         ***  PROGRAM SYSTEM MOLPRO  ***
                                       Copyright, TTI GmbH Stuttgart, 2015
                                    Version 2019.2 linked Oct 25 2019 22:50:27


 **********************************************************************************************************************************
 LABEL *                                                                                 
  64 bit serial version                                                                  DATE: 15-Mar-23          TIME: 16:31:04  
 **********************************************************************************************************************************

 SHA1:             8dbd9ae1082e4ce945b0f27595c9eb2d4aa09004
 **********************************************************************************************************************************


 Variable memory set to  125000000 words,  buffer space 

 SETTING NELECT         =        16.00000000                                  
 SETTING BASIS          =    6-31G*
 ZSYMEL=NOSYM


Geometry recognized as XYZ



 Recomputing integrals since basis changed


 Using spherical harmonics

 Library entry C      S 6-31G                selected for orbital group  1
 Library entry C      P 6-31G                selected for orbital group  1
 Library entry C      D 6-31G*               selected for orbital group  1
 Library entry H      S 6-31G                selected for orbital group  2


 PROGRAM * SEWARD (Integral evaluation for generally contracted gaussian basis sets)     Author: Roland Lindh, 1990

 Geometry written to block  1 of record 700


 Point group  C1  



 ATOMIC COORDINATES

 NR  ATOM    CHARGE       X              Y              Z

   1  C       6.00    0.000000000    0.000000000    1.286903491
   2  C       6.00    0.000000000   -0.000000000   -1.286903491
   3  H       1.00    0.000000000    1.717761047    2.345150121
   4  H       1.00    0.000000000   -1.717761047    2.345150121
   5  H       1.00    0.000000000    1.717761047   -2.345150121
   6  H       1.00    0.000000000   -1.717761047   -2.345150121

 Bond lengths in Bohr (Angstrom)

 1-2  2.573806982  1-3  2.017570059  1-4  2.017570059  2-5  2.017570059  2-6  2.017570059
     ( 1.362000000)     ( 1.067652097)     ( 1.067652097)     ( 1.067652097)     ( 1.067652097)

 Bond angles

  1-2-5  121.63562805   1-2-6  121.63562805   2-1-3  121.63562805   2-1-4  121.63562805

  3-1-4  116.72874390   5-2-6  116.72874390

 NUCLEAR CHARGE:                   16
 NUMBER OF PRIMITIVE AOS:          72
 NUMBER OF SYMMETRY AOS:           70
 NUMBER OF CONTRACTIONS:           36   (   36A   )
 NUMBER OF CORE ORBITALS:           2   (    2A   )
 NUMBER OF VALENCE ORBITALS:       12   (   12A   )


 NUCLEAR REPULSION ENERGY   33.20858265

 EXTRA SYMMETRY OF AOS IN SYMMETRY 1:   1 1 1 2 1 1 2 1 1 1   3 2 1 1 1 1 1 2 1 1   2 1 1 1 3 2 1 1 1 1   1 1 1 1 1 1

 Eigenvalues of metric

         1 0.899E-02 0.173E-01 0.369E-01 0.454E-01 0.697E-01 0.209E+00 0.210E+00 0.229E+00


 Contracted 2-electron integrals neglected if value below      1.0D-11
 AO integral compression algorithm  1   Integral accuracy      1.0D-11

     0.786 MB (compressed) written to integral file ( 37.7%)


 NUMBER OF SORTED TWO-ELECTRON INTEGRALS:     222111.     BUFFER LENGTH:  32768
 NUMBER OF SEGMENTS:   1  SEGMENT LENGTH:     222111      RECORD LENGTH: 524288

 Memory used in sort:       0.78 MW

 SORT1 READ      284735. AND WROTE       98271. INTEGRALS IN      1 RECORDS. CPU TIME:     0.00 SEC, REAL TIME:     0.00 SEC
 SORT2 READ       98271. AND WROTE      222111. INTEGRALS IN      3 RECORDS. CPU TIME:     0.02 SEC, REAL TIME:     0.02 SEC

 FILE SIZES:   FILE 1:    30.9 MBYTE,  FILE 4:     4.2 MBYTE,   TOTAL:     35.1 MBYTE

 OPERATOR DM      FOR CENTER  0  COORDINATES:    0.000000    0.000000    0.000000


 **********************************************************************************************************************************
 DATASETS  * FILE   NREC   LENGTH (MB)   RECORD NAMES
              1      19       30.63       500      610      700      900      950      970     1000      129      960     1100   
                                          VAR    BASINP    GEOM    SYMINP    ZMAT    AOBASIS   BASIS     P2S    ABASIS      S 
                                         1400     1410     1200     1210     1080     1600     1650     1300     1700   
                                           T        V       H0       H01     AOSYM     SMH    MOLCAS    ERIS     OPER   

 PROGRAMS   *        TOTAL       INT
 CPU TIMES  *         0.30      0.21
 REAL TIME  *         0.50 SEC
 DISK USED  *        35.45 MB
 **********************************************************************************************************************************


 PROGRAM * RHF-SCF (CLOSED SHELL)       Authors: W. Meyer, H.-J. Werner


 NUMBER OF ELECTRONS:       8+    8-    SPACE SYMMETRY=1    SPIN SYMMETRY: Singlet 
 CONVERGENCE THRESHOLDS:    1.00E-05 (Density)    1.00E-07 (Energy)
 MAX. NUMBER OF ITERATIONS:       60
 INTERPOLATION TYPE:            DIIS
 INTERPOLATION STEPS:              2 (START)      1 (STEP)
 LEVEL SHIFTS:                  0.00 (CLOSED)  0.00 (OPEN) 



 Orbital guess generated from atomic densities. Full valence occupancy:    8

 Molecular orbital dump at record        2100.2

 Initial occupancy:   8

 ITERATION    DDIFF          GRAD             ENERGY        2-EL.EN.            DIPOLE MOMENTS         DIIS   ORB.
    1      0.000D+00      0.000D+00       -78.00533250    118.224316    0.00000   -0.00000   -0.00000    0    start
    2      0.000D+00      0.836D-02       -78.02659122    116.519401    0.00000   -0.00000   -0.00000    1    diag
    3      0.805D-02      0.278D-02       -78.02855832    117.109061    0.00000   -0.00000   -0.00000    2    diag
    4      0.252D-02      0.700D-03       -78.02875869    117.009694   -0.00000   -0.00000   -0.00000    3    diag
    5      0.104D-02      0.654D-04       -78.02876062    117.012471   -0.00000    0.00000   -0.00000    4    diag
    6      0.139D-03      0.732D-05       -78.02876064    117.012077   -0.00000   -0.00000    0.00000    5    diag
    7      0.132D-04      0.110D-05       -78.02876064    117.012085   -0.00000   -0.00000   -0.00000    6    diag
    8      0.160D-05      0.123D-06       -78.02876064    117.012080   -0.00000    0.00000   -0.00000    0    orth

 Final occupancy:   8

 !RHF STATE  1.1 Energy               -78.028760643955
 Nuclear energy                        33.20858265
 One-electron energy                 -169.74338320
 Two-electron energy                   58.50603990
 Virial quotient                       -1.00038604
 !RHF STATE  1.1 Dipole moment         -0.00000000     0.00000000    -0.00000000
 Dipole moment /Debye                  -0.00000000     0.00000000    -0.00000000

 ELECTRON ORBITALS
 =================

  Orbital  Occupation    Energy     Coefficients
    1.1     2.00000   -11.22690     1 1s    0.70422     2 1s    0.70422
    2.1     2.00000   -11.22549     1 1s    0.70452     2 1s   -0.70452
    3.1     2.00000    -1.02115     1 1s    0.30124     2 1s    0.30124
    4.1     2.00000    -0.79800     1 1s    0.24117
    5.1     2.00000    -0.63891     1 2py   0.32220     2 2py   0.32220
    6.1     2.00000    -0.57959     1 2pz   0.40746     2 2pz  -0.40746
    7.1     2.00000    -0.51224     1 2py   0.30847     2 2py  -0.30847
    8.1     2.00000    -0.36337     1 2px   0.37097     1 2px   0.31263     2 2px   0.37097     2 2px   0.31263
    9.1     0.00000     0.17295     1 2px   0.34420     1 2px   0.71908     2 2px  -0.34420     2 2px  -0.71908
   10.1     0.00000     0.26791     1 1s   -1.51758     1 2pz  -0.64610     2 1s   -1.51758     2 2pz   0.64610     3 1s    1.05411
                                    4 1s    1.05411     5 1s    1.05411     6 1s    1.05411
   11.1     0.00000     0.29881     1 2py  -0.82622     2 2py  -0.82622     3 1s    1.12110     4 1s   -1.12110     5 1s    1.12110
                                    6 1s   -1.12110
   12.1     0.00000     0.31033     1 1s    1.96091     2 1s   -1.96091     3 1s   -1.08163     4 1s   -1.08163     5 1s    1.08163
                                    6 1s    1.08163
   13.1     0.00000     0.39015     1 2py  -1.85921     2 2py   1.85921     3 1s    1.64224     4 1s   -1.64224     5 1s   -1.64224
                                    6 1s    1.64224
   14.1     0.00000     0.48529     1 1s   -2.71711     1 2pz   2.85118     2 1s    2.71711     2 2pz   2.85118     3 1s   -0.60671
                                    4 1s   -0.60671     5 1s    0.60671     6 1s    0.60671
   15.1     0.00000     0.67680     1 1s    0.28907     1 2pz  -0.56259     1 2pz   1.03680     2 1s    0.28907     2 2pz   0.56259
                                    2 2pz  -1.03680
   16.1     0.00000     0.75403     1 2py  -0.39804     1 2py   0.77858     2 2py  -0.39804     2 2py   0.77858     3 1s   -0.38141
                                    4 1s    0.38141     5 1s   -0.38141     6 1s    0.38141
   17.1     0.00000     0.78240     1 2px  -0.74595     1 2px   0.63966     2 2px  -0.74595     2 2px   0.63966
   18.1     0.00000     0.86249     1 1s   -0.89723     1 1s    1.48909     1 2pz   0.32260     2 1s   -0.89723     2 1s    1.48909
                                    2 2pz  -0.32260     3 1s   -0.39023     4 1s   -0.39023     5 1s   -0.39023     6 1s   -0.39023
   19.1     0.00000     0.88747     1 2px  -0.81615     1 2px   1.06523     2 2px   0.81615     2 2px  -1.06523
   20.1     0.00000     0.93659     1 1s   -0.69930     1 2pz   0.61909     1 2pz  -0.60719     2 1s    0.69930     2 2pz   0.61909
                                    2 2pz  -0.60719     3 1s    0.37005     4 1s    0.37005     5 1s   -0.37005     6 1s   -0.37005
   21.1     0.00000     1.13003     1 2py  -0.69494     1 2py   1.10080     2 2py  -0.69494     2 2py   1.10080     3 1s    0.38560
                                    3 1s   -1.06637     4 1s   -0.38560     4 1s    1.06637     5 1s    0.38560     5 1s   -1.06637
                                    6 1s   -0.38560     6 1s    1.06637
   22.1     0.00000     1.16192     1 2py   0.92438     1 2py  -2.97102     2 2py  -0.92438     2 2py   2.97102     3 1s    1.53887
                                    4 1s   -1.53887     5 1s   -1.53887     6 1s    1.53887
   23.1     0.00000     1.22347     1 1s    1.03702     1 1s   -1.73678     1 2pz   0.36518     1 2pz  -0.49661     2 1s    1.03702
                                    2 1s   -1.73678     2 2pz  -0.36518     2 2pz   0.49661     3 1s   -0.44261     3 1s    0.87192
                                    4 1s   -0.44261     4 1s    0.87192     5 1s   -0.44261     5 1s    0.87192     6 1s   -0.44261
                                    6 1s    0.87192
   24.1     0.00000     1.22709     1 1s   -0.41616     1 2pz  -0.63105     1 2pz   1.34261     2 1s    0.41616     2 2pz  -0.63105
                                    2 2pz   1.34261     3 1s    0.48671     3 1s   -0.94362     4 1s    0.48671     4 1s   -0.94362
                                    5 1s   -0.48671     5 1s    0.94362     6 1s   -0.48671     6 1s    0.94362
   25.1     0.00000     1.32527     1 1s   -1.62412     1 1s    5.25725     1 2pz  -1.74438     2 1s    1.62412     2 1s   -5.25725
                                    2 2pz  -1.74438     3 1s   -0.41516     4 1s   -0.41516     5 1s    0.41516     6 1s    0.41516
   26.1     0.00000     1.46499     1 2py   2.44989     2 2py  -2.44989     3 1s   -0.69486     3 1s   -0.64832     4 1s    0.69486
                                    4 1s    0.64832     5 1s    0.69486     5 1s    0.64832     6 1s   -0.69486     6 1s   -0.64832
   27.1     0.00000     1.73095     1 3d1+  0.62224     2 3d1+ -0.62224
   28.1     0.00000     1.82843     1 3d2-  0.68337     2 3d2-  0.68337
   29.1     0.00000     2.11672     1 3d2-  0.73350     2 3d2- -0.73350
   30.1     0.00000     2.22135     1 1s   -0.62130     1 3d2+  0.70448     2 1s   -0.62130     2 3d2+  0.70448     3 1s    0.36800
                                    4 1s    0.36800     5 1s    0.36800     6 1s    0.36800
   31.1     0.00000     2.33938     1 2py   0.27827     1 3d1-  0.69897     2 2py   0.27827     2 3d1- -0.69897     3 1s   -0.52686
                                    4 1s    0.52686     5 1s   -0.52686     6 1s    0.52686
   32.1     0.00000     2.38306     1 1s   -0.48505     1 2pz   0.27323     1 2pz  -0.45114     1 3d0   0.67024     2 1s   -0.48505
                                    2 2pz  -0.27323     2 2pz   0.45114     2 3d0   0.67024
   33.1     0.00000     2.62318     1 1s    0.28061     1 1s   -1.29377     1 3d2+  0.79862     2 1s   -0.28061     2 1s    1.29377
                                    2 3d2+ -0.79862     3 1s    0.45133     4 1s    0.45133     5 1s   -0.45133     6 1s   -0.45133
   34.1     0.00000     2.68239     1 2px  -0.26033     1 3d1+  0.88837     2 2px   0.26033     2 3d1+  0.88837
   35.1     0.00000     3.03543     1 1s    1.99294     1 2pz  -0.73225     1 2pz  -1.17429     1 3d0   1.09636     2 1s   -1.99294
                                    2 2pz  -0.73225     2 2pz  -1.17429     2 3d0  -1.09636
   36.1     0.00000     3.05452     1 2py   0.58963     1 3d1-  0.95996     2 2py  -0.58963     2 3d1-  0.95996     3 1s   -0.49082
                                    4 1s    0.49082     5 1s    0.49082     6 1s   -0.49082


 HOMO      8.1    -0.363368 =      -9.8877eV
 LUMO      9.1     0.172949 =       4.7062eV
 LUMO-HOMO         0.536317 =      14.5939eV


 **********************************************************************************************************************************
 DATASETS  * FILE   NREC   LENGTH (MB)   RECORD NAMES
              1      19       30.63       500      610      700      900      950      970     1000      129      960     1100   
                                          VAR    BASINP    GEOM    SYMINP    ZMAT    AOBASIS   BASIS     P2S    ABASIS      S 
                                         1400     1410     1200     1210     1080     1600     1650     1300     1700   
                                           T        V       H0       H01     AOSYM     SMH    MOLCAS    ERIS     OPER   

              2       4        2.86       700     1000      520     2100   
                                         GEOM     BASIS   MCVARS     RHF  

 PROGRAMS   *        TOTAL    HF-SCF       INT
 CPU TIMES  *         0.39      0.09      0.21
 REAL TIME  *         0.67 SEC
 DISK USED  *        35.45 MB
 **********************************************************************************************************************************


 PROGRAM * MULTI (Direct Multiconfiguration SCF)       Authors: P.J. Knowles, H.-J. Werner (1984)


 Number of closed-shell orbitals:   7 (   7 )
 Number of active  orbitals:        2 (   2 )
 Number of external orbitals:      27 (  27 )

 State symmetry 1

 Number of electrons:     2    Spin symmetry=Singlet   Space symmetry=1
 Number of states:        3
 Number of CSFs:          3   (4 determinants, 4 intermediate states)

 Molecular orbitals read from record     2100.2  Type=RHF/CANONICAL (state 1.1)

 EXTRA SYMMETRY OF MOS IN SYMMETRY 1:   1 1 1 1 1 1 1 2 2 1   1 1 1 1 1 1 2 1 2 1   1 1 1 1 1 1 2 3 3 1   1 1 1 2 1 1

 Wavefunction dump at record             2140.2

 Convergence thresholds  0.10E-01 (gradient)  0.10E-05 (energy)  0.10E-02 (step length)

 Weight factors for state symmetry  1:    0.33333   0.33333   0.33333

 Number of orbital rotations:      257   (    14 Core/Active    189 Core/Virtual   0 Active/Active     54 Active/Virtual)
 Total number of variables:        269

 Micro-Iterations solved by the two-step solver

 ITER. MIC  NCI  NEG     ENERGY(VAR)     ENERGY(PROJ)   ENERGY CHANGE     GRAD(0)  GRAD(ORB)   GRAD(CI)     STEP       TIME

   1    3    3    0     -77.73684752     -77.74267262   -0.00582510    0.12773377 0.00000128 0.00000000  0.61D-01      0.05
   2    2    3    0     -77.74258643     -77.74258957   -0.00000314    0.00278423 0.00000154 0.00000000  0.15D-02      0.08
   3    2    3    0     -77.74258957     -77.74258957   -0.00000000    0.00000179 0.00000000 0.00000000  0.11D-05      0.11

 ** WVFN ****  CONVERGENCE REACHED, FINAL GRADIENT:  0.85D-12



 Results for state 1.1
 =====================

 !MCSCF STATE  1.1 Energy             -78.047862639902
 Nuclear energy                        33.20858265
 Kinetic energy                        78.05702549
 One electron energy                 -169.85169547
 Two electron energy                   58.59525018
 Virial ratio                           1.99988261

 !MCSCF STATE  1.1 Dipole moment        0.00000000    -0.00000000     0.00000000
 Dipole moment /Debye                   0.00000000    -0.00000000     0.00000000

 Results for state 2.1
 =====================

 !MCSCF STATE  2.1 Energy             -77.678038622682
 Nuclear energy                        33.20858265
 Kinetic energy                        78.24511990
 One electron energy                 -169.32648181
 Two electron energy                   58.43986053
 Virial ratio                           1.99275250

 !MCSCF STATE  2.1 Dipole moment        0.00000000    -0.00000000     0.00000000
 Dipole moment /Debye                   0.00000000    -0.00000000     0.00000000

 Results for state 3.1
 =====================

 !MCSCF STATE  3.1 Energy             -77.501867460017
 Nuclear energy                        33.20858265
 Kinetic energy                        78.43321430
 One electron energy                 -168.80126814
 Two electron energy                   58.09081803
 Virial ratio                           1.98812561

 !MCSCF STATE  3.1 Dipole moment        0.00000000    -0.00000000     0.00000000
 Dipole moment /Debye                   0.00000000    -0.00000000     0.00000000

 State-averaged charge density matrix saved on record  2140.2 (density set 1)

 !MCSCF trans         <2.1|DMZ|1.1>    -1.512084866911 au =    -3.843084656043 Debye
 !MCSCF trans         <3.1|DMZ|2.1>    -2.319311241382 au =    -5.894715064873 Debye


 NATURAL ORBITALS (state averaged)
 =================================

  Orbital  Occupation    Energy     Coefficients
    1.1     2.00000   -11.24096     1 1s    0.70423     2 1s    0.70423
    2.1     2.00000   -11.23980     1 1s    0.70448     2 1s   -0.70448
    3.1     2.00000    -1.03430     1 1s    0.30907     2 1s    0.30907
    4.1     2.00000    -0.80526     1 1s    0.28241     2 1s   -0.28241
    5.1     2.00000    -0.65078     1 2py   0.32741     2 2py   0.32741
    6.1     2.00000    -0.59420     1 2pz   0.40937     2 2pz  -0.40937
    7.1     2.00000    -0.51840     1 2py   0.31446     2 2py  -0.31446
    8.1     1.00000     0.02917     1 2px   0.38042     1 2px   0.67451     2 2px  -0.38042     2 2px  -0.67451
    9.1     1.00000    -0.22062     1 2px   0.35511     1 2px   0.32443     2 2px   0.35511     2 2px   0.32443
   10.1    -0.00000     0.26536     1 1s   -1.51399     1 2pz  -0.65220     2 1s   -1.51399     2 2pz   0.65220     3 1s    1.05375
                                    4 1s    1.05375     5 1s    1.05375     6 1s    1.05375
   11.1    -0.00000     0.29090     1 2py  -0.81787     2 2py  -0.81787     3 1s    1.11326     4 1s   -1.11326     5 1s    1.11326
                                    6 1s   -1.11326
   12.1    -0.00000     0.30739     1 1s    1.98614     2 1s   -1.98614     3 1s   -1.07548     4 1s   -1.07548     5 1s    1.07548
                                    6 1s    1.07548
   13.1    -0.00000     0.38640     1 2py  -0.25027     1 2py  -1.84621     2 2py   0.25027     2 2py   1.84621     3 1s    1.63593
                                    4 1s   -1.63593     5 1s   -1.63593     6 1s    1.63593
   14.1    -0.00000     0.48220     1 1s   -2.69037     1 2pz   2.83072     2 1s    2.69037     2 2pz   2.83072     3 1s   -0.61724
                                    4 1s   -0.61724     5 1s    0.61724     6 1s    0.61724
   15.1    -0.00000     0.66612     1 2pz  -0.55598     1 2pz   1.01310     2 2pz   0.55598     2 2pz  -1.01310
   16.1    -0.00000     0.74386     1 2py  -0.40878     1 2py   0.78417     2 2py  -0.40878     2 2py   0.78417     3 1s   -0.37720
                                    4 1s    0.37720     5 1s   -0.37720     6 1s    0.37720
   17.1    -0.00000     0.77667     1 2px  -0.75286     1 2px   0.63407     2 2px  -0.75286     2 2px   0.63407
   18.1    -0.00000     0.85971     1 1s   -0.89114     1 1s    1.51621     1 2pz   0.37191     2 1s   -0.89114     2 1s    1.51621
                                    2 2pz  -0.37191     3 1s   -0.39264     3 1s   -0.25791     4 1s   -0.39264     4 1s   -0.25791
                                    5 1s   -0.39264     5 1s   -0.25791     6 1s   -0.39264     6 1s   -0.25791
   19.1    -0.00000     0.87071     1 2px  -0.80106     1 2px   1.09386     2 2px   0.80106     2 2px  -1.09386
   20.1    -0.00000     0.91878     1 1s   -0.55075     1 2pz   0.62179     1 2pz  -0.68745     2 1s    0.55075     2 2pz   0.62179
                                    2 2pz  -0.68745     3 1s    0.37087     4 1s    0.37087     5 1s   -0.37087     6 1s   -0.37087
   21.1    -0.00000     1.11532     1 2py  -0.68412     1 2py   1.10283     2 2py  -0.68412     2 2py   1.10283     3 1s    0.38588
                                    3 1s   -1.07489     4 1s   -0.38588     4 1s    1.07489     5 1s    0.38588     5 1s   -1.07489
                                    6 1s   -0.38588     6 1s    1.07489
   22.1    -0.00000     1.15020     1 2py   0.92165     1 2py  -2.97545     2 2py  -0.92165     2 2py   2.97545     3 1s    1.54627
                                    4 1s   -1.54627     5 1s   -1.54627     6 1s    1.54627
   23.1    -0.00000     1.22070     1 1s    1.03218     1 1s   -1.73269     1 2pz   0.36898     1 2pz  -0.50217     2 1s    1.03218
                                    2 1s   -1.73269     2 2pz  -0.36898     2 2pz   0.50217     3 1s   -0.44307     3 1s    0.87135
                                    4 1s   -0.44307     4 1s    0.87135     5 1s   -0.44307     5 1s    0.87135     6 1s   -0.44307
                                    6 1s    0.87135
   24.1    -0.00000     1.22429     1 1s   -0.31537     1 2pz  -0.64650     1 2pz   1.44878     2 1s    0.31537     2 2pz  -0.64650
                                    2 2pz   1.44878     3 1s    0.48947     3 1s   -0.91600     4 1s    0.48947     4 1s   -0.91600
                                    5 1s   -0.48947     5 1s    0.91600     6 1s   -0.48947     6 1s    0.91600
   25.1    -0.00000     1.30711     1 1s   -1.64815     1 1s    5.26621     1 2pz  -1.65467     2 1s    1.64815     2 1s   -5.26621
                                    2 2pz  -1.65467     3 1s   -0.47496     4 1s   -0.47496     5 1s    0.47496     6 1s    0.47496
   26.1    -0.00000     1.45659     1 2py   2.45310     2 2py  -2.45310     3 1s   -0.69372     3 1s   -0.64939     4 1s    0.69372
                                    4 1s    0.64939     5 1s    0.69372     5 1s    0.64939     6 1s   -0.69372     6 1s   -0.64939
   27.1    -0.00000     1.70674     1 3d1+  0.62202     2 3d1+ -0.62202
   28.1    -0.00000     1.81562     1 3d2-  0.68337     2 3d2-  0.68337
   29.1    -0.00000     2.09474     1 3d2-  0.73350     2 3d2- -0.73350
   30.1    -0.00000     2.20690     1 1s   -0.61710     1 3d2+  0.70336     2 1s   -0.61710     2 3d2+  0.70336     3 1s    0.36924
                                    4 1s    0.36924     5 1s    0.36924     6 1s    0.36924
   31.1    -0.00000     2.32409     1 2py   0.28508     1 3d1-  0.69722     2 2py   0.28508     2 3d1- -0.69722     3 1s   -0.53018
                                    4 1s    0.53018     5 1s   -0.53018     6 1s    0.53018
   32.1    -0.00000     2.36379     1 1s   -0.48260     1 2pz   0.27852     1 2pz  -0.45446     1 3d0   0.66944     2 1s   -0.48260
                                    2 2pz  -0.27852     2 2pz   0.45446     2 3d0   0.66944
   33.1    -0.00000     2.60450     1 1s    0.28128     1 1s   -1.29893     1 3d2+  0.79788     2 1s   -0.28128     2 1s    1.29893
                                    2 3d2+ -0.79788     3 1s    0.45432     4 1s    0.45432     5 1s   -0.45432     6 1s   -0.45432
   34.1    -0.00000     2.66065     1 2px  -0.26092     1 3d1+  0.88873     2 2px   0.26092     2 3d1+  0.88873
   35.1    -0.00000     3.01861     1 1s    2.01667     1 2pz  -0.72496     1 2pz  -1.18669     1 3d0   1.09782     2 1s   -2.01667
                                    2 2pz  -0.72496     2 2pz  -1.18669     2 3d0  -1.09782
   36.1    -0.00000     3.04237     1 2py   0.58969     1 3d1-  0.95955     2 2py  -0.58969     2 3d1-  0.95955     3 1s   -0.49306
                                    4 1s    0.49306     5 1s    0.49306     6 1s   -0.49306


 Natural orbital dump (state averaged) at molpro section  2140.2    (Orbital set 2)



 **********************************************************************************************************************************
 DATASETS  * FILE   NREC   LENGTH (MB)   RECORD NAMES
              1      20       31.36       500      610      700      900      950      970     1000      129      960     1100   
                                          VAR    BASINP    GEOM    SYMINP    ZMAT    AOBASIS   BASIS     P2S    ABASIS      S 
                                         1400     1410     1200     1210     1080     1600     1650     1300     1700     1380   
                                           T        V       H0       H01     AOSYM     SMH    MOLCAS    ERIS     OPER     JKOP   

              2       5        5.42       700     1000      520     2100     2140   
                                         GEOM     BASIS   MCVARS     RHF     MCSCF   

 PROGRAMS   *        TOTAL     MULTI    HF-SCF       INT
 CPU TIMES  *         0.54      0.14      0.09      0.21
 REAL TIME  *         0.85 SEC
 DISK USED  *        38.54 MB
 **********************************************************************************************************************************
 Molecular orbitals read from record     2140.2  Type=MCSCF/NATURAL (state averaged)
 Occupation numbers read from record     2140.2  Type=MCSCF/NATURAL (state averaged)
 Orbital energies read from record       2140.2  Type=MCSCF/NATURAL (state averaged)
 Redundancy group numbers read from rec  2140.2  Type=MCSCF/NATURAL (state averaged)

 MULTI/6-31G* energy=    -77.501867460017

           MULTI          HF-SCF
    -77.50186746    -78.02876064
 **********************************************************************************************************************************
 Molpro calculation terminated
