
 Primary working directories    : /scratch.local/johan406.molpro_temp/molpro.IHFsT55glH
 Secondary working directories  : /scratch.local/johan406.molpro_temp/molpro.IHFsT55glH
 Wavefunction directory         : /home/goodpast/johan406/wfu/
 Main file repository           : /scratch.local/johan406.molpro_temp/molpro.IHFsT55glH/

 id        : roweumn

 Nodes     nprocs
 cn0416       1

 Using customized tuning parameters: mindgm=1; mindgv=20; mindgc=4; mindgr=1; noblas=0; minvec=7
 default implementation of scratch files=df  


 Variables initialized (934), CPU time= 0.01 sec
                                                                                 !leave this line blank
 
 gprint, orbitals=30
 memory, 125., m
 symmetry, nosym
 nelect=16
 basis=6-31g*
 
 geometry={
 C 0.000 0.000 0.680
 C 0.000 -0.000 -0.680
 H 0.000 0.909 1.240
 H 0.000 -0.909 1.240
 H 0.000 0.909 -1.240
 H 0.000 -0.909 -1.240
 }
 
 hf
 {multi,
 closed 7
 occ 9
 wf,spin=0;STATE,3
 }
 
 Commands  initialized (763), CPU time= 0.01 sec, 617 directives.
 Default parameters read. Elapsed time= 0.04 sec

 Checking input...
 Passed
1


                                         ***  PROGRAM SYSTEM MOLPRO  ***
                                       Copyright, TTI GmbH Stuttgart, 2015
                                    Version 2019.2 linked Oct 25 2019 22:50:27


 **********************************************************************************************************************************
 LABEL *                                                                                 
  64 bit serial version                                                                  DATE: 15-Mar-23          TIME: 16:31:09  
 **********************************************************************************************************************************

 SHA1:             8dbd9ae1082e4ce945b0f27595c9eb2d4aa09004
 **********************************************************************************************************************************


 Variable memory set to  125000000 words,  buffer space 

 SETTING NELECT         =        16.00000000                                  
 SETTING BASIS          =    6-31G*
 ZSYMEL=NOSYM


Geometry recognized as XYZ



 Recomputing integrals since basis changed


 Using spherical harmonics

 Library entry C      S 6-31G                selected for orbital group  1
 Library entry C      P 6-31G                selected for orbital group  1
 Library entry C      D 6-31G*               selected for orbital group  1
 Library entry H      S 6-31G                selected for orbital group  2


 PROGRAM * SEWARD (Integral evaluation for generally contracted gaussian basis sets)     Author: Roland Lindh, 1990

 Geometry written to block  1 of record 700


 Point group  C1  



 ATOMIC COORDINATES

 NR  ATOM    CHARGE       X              Y              Z

   1  C       6.00    0.000000000    0.000000000    1.285013765
   2  C       6.00    0.000000000   -0.000000000   -1.285013765
   3  H       1.00    0.000000000    1.717761047    2.343260394
   4  H       1.00    0.000000000   -1.717761047    2.343260394
   5  H       1.00    0.000000000    1.717761047   -2.343260394
   6  H       1.00    0.000000000   -1.717761047   -2.343260394

 Bond lengths in Bohr (Angstrom)

 1-2  2.570027529  1-3  2.017570059  1-4  2.017570059  2-5  2.017570059  2-6  2.017570059
     ( 1.360000000)     ( 1.067652097)     ( 1.067652097)     ( 1.067652097)     ( 1.067652097)

 Bond angles

  1-2-5  121.63562805   1-2-6  121.63562805   2-1-3  121.63562805   2-1-4  121.63562805

  3-1-4  116.72874390   5-2-6  116.72874390

 NUCLEAR CHARGE:                   16
 NUMBER OF PRIMITIVE AOS:          72
 NUMBER OF SYMMETRY AOS:           70
 NUMBER OF CONTRACTIONS:           36   (   36A   )
 NUMBER OF CORE ORBITALS:           2   (    2A   )
 NUMBER OF VALENCE ORBITALS:       12   (   12A   )


 NUCLEAR REPULSION ENERGY   33.23475973

 EXTRA SYMMETRY OF AOS IN SYMMETRY 1:   1 1 1 2 1 1 2 1 1 1   3 2 1 1 1 1 1 2 1 1   2 1 1 1 3 2 1 1 1 1   1 1 1 1 1 1

 Eigenvalues of metric

         1 0.893E-02 0.173E-01 0.369E-01 0.453E-01 0.696E-01 0.207E+00 0.210E+00 0.228E+00


 Contracted 2-electron integrals neglected if value below      1.0D-11
 AO integral compression algorithm  1   Integral accuracy      1.0D-11

     0.786 MB (compressed) written to integral file ( 37.7%)


 NUMBER OF SORTED TWO-ELECTRON INTEGRALS:     222111.     BUFFER LENGTH:  32768
 NUMBER OF SEGMENTS:   1  SEGMENT LENGTH:     222111      RECORD LENGTH: 524288

 Memory used in sort:       0.78 MW

 SORT1 READ      284735. AND WROTE       98271. INTEGRALS IN      1 RECORDS. CPU TIME:     0.00 SEC, REAL TIME:     0.01 SEC
 SORT2 READ       98271. AND WROTE      222111. INTEGRALS IN      3 RECORDS. CPU TIME:     0.02 SEC, REAL TIME:     0.02 SEC

 FILE SIZES:   FILE 1:    30.9 MBYTE,  FILE 4:     4.2 MBYTE,   TOTAL:     35.1 MBYTE

 OPERATOR DM      FOR CENTER  0  COORDINATES:    0.000000    0.000000    0.000000


 **********************************************************************************************************************************
 DATASETS  * FILE   NREC   LENGTH (MB)   RECORD NAMES
              1      19       30.63       500      610      700      900      950      970     1000      129      960     1100   
                                          VAR    BASINP    GEOM    SYMINP    ZMAT    AOBASIS   BASIS     P2S    ABASIS      S 
                                         1400     1410     1200     1210     1080     1600     1650     1300     1700   
                                           T        V       H0       H01     AOSYM     SMH    MOLCAS    ERIS     OPER   

 PROGRAMS   *        TOTAL       INT
 CPU TIMES  *         0.30      0.22
 REAL TIME  *         0.48 SEC
 DISK USED  *        35.45 MB
 **********************************************************************************************************************************


 PROGRAM * RHF-SCF (CLOSED SHELL)       Authors: W. Meyer, H.-J. Werner


 NUMBER OF ELECTRONS:       8+    8-    SPACE SYMMETRY=1    SPIN SYMMETRY: Singlet 
 CONVERGENCE THRESHOLDS:    1.00E-05 (Density)    1.00E-07 (Energy)
 MAX. NUMBER OF ITERATIONS:       60
 INTERPOLATION TYPE:            DIIS
 INTERPOLATION STEPS:              2 (START)      1 (STEP)
 LEVEL SHIFTS:                  0.00 (CLOSED)  0.00 (OPEN) 



 Orbital guess generated from atomic densities. Full valence occupancy:    8

 Molecular orbital dump at record        2100.2

 Initial occupancy:   8

 ITERATION    DDIFF          GRAD             ENERGY        2-EL.EN.            DIPOLE MOMENTS         DIIS   ORB.
    1      0.000D+00      0.000D+00       -78.00545469    118.283605    0.00000    0.00000    0.00000    0    start
    2      0.000D+00      0.838D-02       -78.02678326    116.567586    0.00000   -0.00000    0.00000    1    diag
    3      0.807D-02      0.279D-02       -78.02876266    117.160327    0.00000    0.00000   -0.00000    2    diag
    4      0.253D-02      0.701D-03       -78.02896371    117.061096   -0.00000    0.00000    0.00000    3    diag
    5      0.104D-02      0.655D-04       -78.02896565    117.063874   -0.00000   -0.00000   -0.00000    4    diag
    6      0.139D-03      0.736D-05       -78.02896568    117.063478    0.00000    0.00000   -0.00000    5    diag
    7      0.133D-04      0.110D-05       -78.02896568    117.063486    0.00000    0.00000   -0.00000    6    diag
    8      0.161D-05      0.123D-06       -78.02896568    117.063481    0.00000   -0.00000    0.00000    0    orth

 Final occupancy:   8

 !RHF STATE  1.1 Energy               -78.028965678371
 Nuclear energy                        33.23475973
 One-electron energy                 -169.79546582
 Two-electron energy                   58.53174042
 Virial quotient                       -1.00031222
 !RHF STATE  1.1 Dipole moment          0.00000000    -0.00000000     0.00000000
 Dipole moment /Debye                   0.00000000    -0.00000000     0.00000000

 ELECTRON ORBITALS
 =================

  Orbital  Occupation    Energy     Coefficients
    1.1     2.00000   -11.22657     1 1s    0.70422     2 1s    0.70422
    2.1     2.00000   -11.22514     1 1s    0.70452     2 1s   -0.70452
    3.1     2.00000    -1.02172     1 1s    0.30131     2 1s    0.30131
    4.1     2.00000    -0.79777     2 1s   -0.24103
    5.1     2.00000    -0.63913     1 2py   0.32224     2 2py   0.32224
    6.1     2.00000    -0.57991     1 2pz   0.40753     2 2pz  -0.40753
    7.1     2.00000    -0.51193     1 2py   0.30836     2 2py  -0.30836
    8.1     2.00000    -0.36382     1 2px   0.37114     1 2px   0.31226     2 2px   0.37114     2 2px   0.31226
    9.1     0.00000     0.17343     1 2px   0.34401     1 2px   0.72031     2 2px  -0.34401     2 2px  -0.72031
   10.1     0.00000     0.26792     1 1s   -1.51762     1 2pz  -0.64648     2 1s   -1.51762     2 2pz   0.64648     3 1s    1.05400
                                    4 1s    1.05400     5 1s    1.05400     6 1s    1.05400
   11.1     0.00000     0.29869     1 2py  -0.25007     1 2py  -0.82577     2 2py  -0.25007     2 2py  -0.82577     3 1s    1.12100
                                    4 1s   -1.12100     5 1s    1.12100     6 1s   -1.12100
   12.1     0.00000     0.31050     1 1s    1.96219     2 1s   -1.96219     3 1s   -1.08228     4 1s   -1.08228     5 1s    1.08228
                                    6 1s    1.08228
   13.1     0.00000     0.39030     1 2py  -1.86267     2 2py   1.86267     3 1s    1.64359     4 1s   -1.64359     5 1s   -1.64359
                                    6 1s    1.64359
   14.1     0.00000     0.48576     1 1s   -2.73697     1 2pz   2.85995     2 1s    2.73697     2 2pz   2.85995     3 1s   -0.60649
                                    4 1s   -0.60649     5 1s    0.60649     6 1s    0.60649
   15.1     0.00000     0.67612     1 1s    0.28686     1 2pz  -0.56189     1 2pz   1.03714     2 1s    0.28686     2 2pz   0.56189
                                    2 2pz  -1.03714
   16.1     0.00000     0.75458     1 2py  -0.39792     1 2py   0.77913     2 2py  -0.39792     2 2py   0.77913     3 1s   -0.38169
                                    4 1s    0.38169     5 1s   -0.38169     6 1s    0.38169
   17.1     0.00000     0.78203     1 2px  -0.74552     1 2px   0.63964     2 2px  -0.74552     2 2px   0.63964
   18.1     0.00000     0.86243     1 1s   -0.89696     1 1s    1.48901     1 2pz   0.32339     2 1s   -0.89696     2 1s    1.48901
                                    2 2pz  -0.32339     3 1s   -0.39031     4 1s   -0.39031     5 1s   -0.39031     6 1s   -0.39031
   19.1     0.00000     0.88777     1 2px  -0.81635     1 2px   1.06594     2 2px   0.81635     2 2px  -1.06594
   20.1     0.00000     0.93809     1 1s   -0.71668     1 2pz   0.61804     1 2pz  -0.59609     2 1s    0.71668     2 2pz   0.61804
                                    2 2pz  -0.59609     3 1s    0.37089     4 1s    0.37089     5 1s   -0.37089     6 1s   -0.37089
   21.1     0.00000     1.12944     1 2py  -0.69466     1 2py   1.10140     2 2py  -0.69466     2 2py   1.10140     3 1s    0.38530
                                    3 1s   -1.06684     4 1s   -0.38530     4 1s    1.06684     5 1s    0.38530     5 1s   -1.06684
                                    6 1s   -0.38530     6 1s    1.06684
   22.1     0.00000     1.16219     1 2py   0.92464     1 2py  -2.97555     2 2py  -0.92464     2 2py   2.97555     3 1s    1.53982
                                    4 1s   -1.53982     5 1s   -1.53982     6 1s    1.53982
   23.1     0.00000     1.22357     1 1s    1.03694     1 1s   -1.73658     1 2pz   0.36553     1 2pz  -0.49676     2 1s    1.03694
                                    2 1s   -1.73658     2 2pz  -0.36553     2 2pz   0.49676     3 1s   -0.44259     3 1s    0.87181
                                    4 1s   -0.44259     4 1s    0.87181     5 1s   -0.44259     5 1s    0.87181     6 1s   -0.44259
                                    6 1s    0.87181
   24.1     0.00000     1.22736     1 1s   -0.42342     1 2pz  -0.63087     1 2pz   1.33705     2 1s    0.42342     2 2pz  -0.63087
                                    2 2pz   1.33705     3 1s    0.48581     3 1s   -0.94586     4 1s    0.48581     4 1s   -0.94586
                                    5 1s   -0.48581     5 1s    0.94586     6 1s   -0.48581     6 1s    0.94586
   25.1     0.00000     1.32630     1 1s   -1.62244     1 1s    5.27029     1 2pz  -1.75687     2 1s    1.62244     2 1s   -5.27029
                                    2 2pz  -1.75687     3 1s   -0.41046     4 1s   -0.41046     5 1s    0.41046     6 1s    0.41046
   26.1     0.00000     1.46624     1 2py   2.45538     2 2py  -2.45538     3 1s   -0.69540     3 1s   -0.65006     4 1s    0.69540
                                    4 1s    0.65006     5 1s    0.69540     5 1s    0.65006     6 1s   -0.69540     6 1s   -0.65006
   27.1     0.00000     1.73159     1 3d1+  0.62197     2 3d1+ -0.62197
   28.1     0.00000     1.82781     1 3d2-  0.68320     2 3d2-  0.68320
   29.1     0.00000     2.11756     1 3d2-  0.73372     2 3d2- -0.73372
   30.1     0.00000     2.22093     1 1s   -0.62084     1 3d2+  0.70550     2 1s   -0.62084     2 3d2+  0.70550     3 1s    0.36917
                                    4 1s    0.36917     5 1s    0.36917     6 1s    0.36917
   31.1     0.00000     2.33981     1 2py   0.27898     1 3d1-  0.69862     2 2py   0.27898     2 3d1- -0.69862     3 1s   -0.52687
                                    4 1s    0.52687     5 1s   -0.52687     6 1s    0.52687
   32.1     0.00000     2.38522     1 1s   -0.48736     1 2pz   0.27379     1 2pz  -0.45085     1 3d0   0.67192     2 1s   -0.48736
                                    2 2pz  -0.27379     2 2pz   0.45085     2 3d0   0.67192
   33.1     0.00000     2.62443     1 1s    0.28105     1 1s   -1.30002     1 3d2+  0.79892     2 1s   -0.28105     2 1s    1.30002
                                    2 3d2+ -0.79892     3 1s    0.45149     4 1s    0.45149     5 1s   -0.45149     6 1s   -0.45149
   34.1     0.00000     2.68456     1 2px  -0.26067     1 3d1+  0.88954     2 2px   0.26067     2 3d1+  0.88954
   35.1     0.00000     3.03755     1 1s    1.99526     1 2pz  -0.73757     1 2pz  -1.17458     1 3d0   1.09765     2 1s   -1.99526
                                    2 2pz  -0.73757     2 2pz  -1.17458     2 3d0  -1.09765
   36.1     0.00000     3.05622     1 2py   0.58997     1 3d1-  0.96116     2 2py  -0.58997     2 3d1-  0.96116     3 1s   -0.49067
                                    4 1s    0.49067     5 1s    0.49067     6 1s   -0.49067


 HOMO      8.1    -0.363823 =      -9.9001eV
 LUMO      9.1     0.173430 =       4.7193eV
 LUMO-HOMO         0.537253 =      14.6194eV


 **********************************************************************************************************************************
 DATASETS  * FILE   NREC   LENGTH (MB)   RECORD NAMES
              1      19       30.63       500      610      700      900      950      970     1000      129      960     1100   
                                          VAR    BASINP    GEOM    SYMINP    ZMAT    AOBASIS   BASIS     P2S    ABASIS      S 
                                         1400     1410     1200     1210     1080     1600     1650     1300     1700   
                                           T        V       H0       H01     AOSYM     SMH    MOLCAS    ERIS     OPER   

              2       4        2.86       700     1000      520     2100   
                                         GEOM     BASIS   MCVARS     RHF  

 PROGRAMS   *        TOTAL    HF-SCF       INT
 CPU TIMES  *         0.40      0.10      0.22
 REAL TIME  *         0.63 SEC
 DISK USED  *        35.45 MB
 **********************************************************************************************************************************


 PROGRAM * MULTI (Direct Multiconfiguration SCF)       Authors: P.J. Knowles, H.-J. Werner (1984)


 Number of closed-shell orbitals:   7 (   7 )
 Number of active  orbitals:        2 (   2 )
 Number of external orbitals:      27 (  27 )

 State symmetry 1

 Number of electrons:     2    Spin symmetry=Singlet   Space symmetry=1
 Number of states:        3
 Number of CSFs:          3   (4 determinants, 4 intermediate states)

 Molecular orbitals read from record     2100.2  Type=RHF/CANONICAL (state 1.1)

 EXTRA SYMMETRY OF MOS IN SYMMETRY 1:   1 1 1 1 1 1 1 2 2 1   1 1 1 1 1 1 2 1 2 1   1 1 1 1 1 1 2 3 3 1   1 1 1 2 1 1

 Wavefunction dump at record             2140.2

 Convergence thresholds  0.10E-01 (gradient)  0.10E-05 (energy)  0.10E-02 (step length)

 Weight factors for state symmetry  1:    0.33333   0.33333   0.33333

 Number of orbital rotations:      257   (    14 Core/Active    189 Core/Virtual   0 Active/Active     54 Active/Virtual)
 Total number of variables:        269

 Micro-Iterations solved by the two-step solver

 ITER. MIC  NCI  NEG     ENERGY(VAR)     ENERGY(PROJ)   ENERGY CHANGE     GRAD(0)  GRAD(ORB)   GRAD(CI)     STEP       TIME

   1    3    3    0     -77.73630425     -77.74216192   -0.00585767    0.12813271 0.00000130 0.00000000  0.61D-01      0.06
   2    2    3    0     -77.74207482     -77.74207800   -0.00000318    0.00280363 0.00000157 0.00000000  0.15D-02      0.09
   3    2    3    0     -77.74207801     -77.74207801   -0.00000000    0.00000181 0.00000000 0.00000000  0.11D-05      0.12

 ** WVFN ****  CONVERGENCE REACHED, FINAL GRADIENT:  0.88D-12



 Results for state 1.1
 =====================

 !MCSCF STATE  1.1 Energy             -78.047947848358
 Nuclear energy                        33.23475973
 Kinetic energy                        78.06378751
 One electron energy                 -169.90559718
 Two electron energy                   58.62288961
 Virial ratio                           1.99979709

 !MCSCF STATE  1.1 Dipole moment        0.00000000    -0.00000000     0.00000000
 Dipole moment /Debye                   0.00000000    -0.00000000     0.00000000

 Results for state 2.1
 =====================

 !MCSCF STATE  2.1 Energy             -77.677634698880
 Nuclear energy                        33.23475973
 Kinetic energy                        78.25127134
 One electron energy                 -169.37644008
 Two electron energy                   58.46404565
 Virial ratio                           1.99266930

 !MCSCF STATE  2.1 Dipole moment        0.00000000    -0.00000000     0.00000000
 Dipole moment /Debye                   0.00000000    -0.00000000     0.00000000

 Results for state 3.1
 =====================

 !MCSCF STATE  3.1 Energy             -77.500651468174
 Nuclear energy                        33.23475973
 Kinetic energy                        78.43875516
 One electron energy                 -168.84728297
 Two electron energy                   58.11187177
 Virial ratio                           1.98804030

 !MCSCF STATE  3.1 Dipole moment        0.00000000    -0.00000000    -0.00000000
 Dipole moment /Debye                   0.00000000    -0.00000000    -0.00000000

 State-averaged charge density matrix saved on record  2140.2 (density set 1)

 !MCSCF trans         <2.1|DMZ|1.1>    -1.512008194211 au =    -3.842889786244 Debye
 !MCSCF trans         <3.1|DMZ|2.1>    -2.315503789710 au =    -5.885038121852 Debye


 NATURAL ORBITALS (state averaged)
 =================================

  Orbital  Occupation    Energy     Coefficients
    1.1     2.00000   -11.24077     1 1s    0.70423     2 1s    0.70423
    2.1     2.00000   -11.23960     1 1s    0.70448     2 1s   -0.70448
    3.1     2.00000    -1.03500     1 1s    0.30917     2 1s    0.30917
    4.1     2.00000    -0.80508     1 1s    0.28260     2 1s   -0.28260
    5.1     2.00000    -0.65108     1 2py   0.32748     2 2py   0.32748
    6.1     2.00000    -0.59459     1 2pz   0.40943     2 2pz  -0.40943
    7.1     2.00000    -0.51814     1 2py   0.31439     2 2py  -0.31439
    8.1     1.00000    -0.22100     1 2px   0.35532     1 2px   0.32402     2 2px   0.35532     2 2px   0.32402
    9.1     1.00000     0.02955     1 2px   0.38037     1 2px   0.67554     2 2px  -0.38037     2 2px  -0.67554
   10.1    -0.00000     0.26535     1 1s   -1.51399     1 2pz  -0.65257     2 1s   -1.51399     2 2pz   0.65257     3 1s    1.05363
                                    4 1s    1.05363     5 1s    1.05363     6 1s    1.05363
   11.1    -0.00000     0.29074     1 2py  -0.81732     2 2py  -0.81732     3 1s    1.11310     4 1s   -1.11310     5 1s    1.11310
                                    6 1s   -1.11310
   12.1    -0.00000     0.30754     1 1s    1.98725     2 1s   -1.98725     3 1s   -1.07620     4 1s   -1.07620     5 1s    1.07620
                                    6 1s    1.07620
   13.1    -0.00000     0.38652     1 2py  -0.25015     1 2py  -1.84956     2 2py   0.25015     2 2py   1.84956     3 1s    1.63724
                                    4 1s   -1.63724     5 1s   -1.63724     6 1s    1.63724
   14.1    -0.00000     0.48270     1 1s   -2.71067     1 2pz   2.83967     2 1s    2.71067     2 2pz   2.83967     3 1s   -0.61687
                                    4 1s   -0.61687     5 1s    0.61687     6 1s    0.61687
   15.1    -0.00000     0.66540     1 2pz  -0.55521     1 2pz   1.01345     2 2pz   0.55521     2 2pz  -1.01345
   16.1    -0.00000     0.74436     1 2py  -0.40869     1 2py   0.78482     2 2py  -0.40869     2 2py   0.78482     3 1s   -0.37745
                                    4 1s    0.37745     5 1s   -0.37745     6 1s    0.37745
   17.1    -0.00000     0.77627     1 2px  -0.75242     1 2px   0.63408     2 2px  -0.75242     2 2px   0.63408
   18.1    -0.00000     0.85962     1 1s   -0.89084     1 1s    1.51599     1 2pz   0.37258     2 1s   -0.89084     2 1s    1.51599
                                    2 2pz  -0.37258     3 1s   -0.39269     3 1s   -0.25783     4 1s   -0.39269     4 1s   -0.25783
                                    5 1s   -0.39269     5 1s   -0.25783     6 1s   -0.39269     6 1s   -0.25783
   19.1    -0.00000     0.87093     1 2px  -0.80122     1 2px   1.09472     2 2px   0.80122     2 2px  -1.09472
   20.1    -0.00000     0.92017     1 1s   -0.56728     1 2pz   0.62087     1 2pz  -0.67664     2 1s    0.56728     2 2pz   0.62087
                                    2 2pz  -0.67664     3 1s    0.37169     4 1s    0.37169     5 1s   -0.37169     6 1s   -0.37169
   21.1    -0.00000     1.11465     1 2py  -0.68379     1 2py   1.10342     2 2py  -0.68379     2 2py   1.10342     3 1s    0.38561
                                    3 1s   -1.07541     4 1s   -0.38561     4 1s    1.07541     5 1s    0.38561     5 1s   -1.07541
                                    6 1s   -0.38561     6 1s    1.07541
   22.1    -0.00000     1.15039     1 2py   0.92190     1 2py  -2.97993     2 2py  -0.92190     2 2py   2.97993     3 1s    1.54725
                                    4 1s   -1.54725     5 1s   -1.54725     6 1s    1.54725
   23.1    -0.00000     1.22075     1 1s    1.03211     1 1s   -1.73250     1 2pz   0.36931     1 2pz  -0.50232     2 1s    1.03211
                                    2 1s   -1.73250     2 2pz  -0.36931     2 2pz   0.50232     3 1s   -0.44304     3 1s    0.87125
                                    4 1s   -0.44304     4 1s    0.87125     5 1s   -0.44304     5 1s    0.87125     6 1s   -0.44304
                                    6 1s    0.87125
   24.1    -0.00000     1.22458     1 1s   -0.32481     1 2pz  -0.64634     1 2pz   1.44191     2 1s    0.32481     2 2pz  -0.64634
                                    2 2pz   1.44191     3 1s    0.48859     3 1s   -0.91915     4 1s    0.48859     4 1s   -0.91915
                                    5 1s   -0.48859     5 1s    0.91915     6 1s   -0.48859     6 1s    0.91915
   25.1    -0.00000     1.30802     1 1s   -1.64657     1 1s    5.28102     1 2pz  -1.66948     2 1s    1.64657     2 1s   -5.28102
                                    2 2pz  -1.66948     3 1s   -0.46925     4 1s   -0.46925     5 1s    0.46925     6 1s    0.46925
   26.1    -0.00000     1.45782     1 2py   2.45873     2 2py  -2.45873     3 1s   -0.69426     3 1s   -0.65120     4 1s    0.69426
                                    4 1s    0.65120     5 1s    0.69426     5 1s    0.65120     6 1s   -0.69426     6 1s   -0.65120
   27.1    -0.00000     1.70724     1 3d1+  0.62174     2 3d1+ -0.62174
   28.1    -0.00000     1.81491     1 3d2-  0.68320     2 3d2-  0.68320
   29.1    -0.00000     2.09547     1 3d2-  0.73372     2 3d2- -0.73372
   30.1    -0.00000     2.20638     1 1s   -0.61665     1 3d2+  0.70446     2 1s   -0.61665     2 3d2+  0.70446     3 1s    0.37048
                                    4 1s    0.37048     5 1s    0.37048     6 1s    0.37048
   31.1    -0.00000     2.32444     1 2py   0.28579     1 3d1-  0.69687     2 2py   0.28579     2 3d1- -0.69687     3 1s   -0.53020
                                    4 1s    0.53020     5 1s   -0.53020     6 1s    0.53020
   32.1    -0.00000     2.36587     1 1s   -0.48497     1 2pz   0.27915     1 2pz  -0.45413     1 3d0   0.67119     2 1s   -0.48497
                                    2 2pz  -0.27915     2 2pz   0.45413     2 3d0   0.67119
   33.1    -0.00000     2.60566     1 1s    0.28173     1 1s   -1.30522     1 3d2+  0.79818     2 1s   -0.28173     2 1s    1.30522
                                    2 3d2+ -0.79818     3 1s    0.45449     4 1s    0.45449     5 1s   -0.45449     6 1s   -0.45449
   34.1    -0.00000     2.66275     1 2px  -0.26128     1 3d1+  0.88990     2 2px   0.26128     2 3d1+  0.88990
   35.1    -0.00000     3.02062     1 1s    2.01918     1 2pz  -0.73026     1 2pz  -1.18707     1 3d0   1.09913     2 1s   -2.01918
                                    2 2pz  -0.73026     2 2pz  -1.18707     2 3d0  -1.09913
   36.1    -0.00000     3.04402     1 2py   0.59005     1 3d1-  0.96075     2 2py  -0.59005     2 3d1-  0.96075     3 1s   -0.49292
                                    4 1s    0.49292     5 1s    0.49292     6 1s   -0.49292


 Natural orbital dump (state averaged) at molpro section  2140.2    (Orbital set 2)



 **********************************************************************************************************************************
 DATASETS  * FILE   NREC   LENGTH (MB)   RECORD NAMES
              1      20       31.36       500      610      700      900      950      970     1000      129      960     1100   
                                          VAR    BASINP    GEOM    SYMINP    ZMAT    AOBASIS   BASIS     P2S    ABASIS      S 
                                         1400     1410     1200     1210     1080     1600     1650     1300     1700     1380   
                                           T        V       H0       H01     AOSYM     SMH    MOLCAS    ERIS     OPER     JKOP   

              2       5        5.42       700     1000      520     2100     2140   
                                         GEOM     BASIS   MCVARS     RHF     MCSCF   

 PROGRAMS   *        TOTAL     MULTI    HF-SCF       INT
 CPU TIMES  *         0.55      0.15      0.10      0.22
 REAL TIME  *         0.81 SEC
 DISK USED  *        38.54 MB
 **********************************************************************************************************************************
 Molecular orbitals read from record     2140.2  Type=MCSCF/NATURAL (state averaged)
 Occupation numbers read from record     2140.2  Type=MCSCF/NATURAL (state averaged)
 Orbital energies read from record       2140.2  Type=MCSCF/NATURAL (state averaged)
 Redundancy group numbers read from rec  2140.2  Type=MCSCF/NATURAL (state averaged)

 MULTI/6-31G* energy=    -77.500651468174

           MULTI          HF-SCF
    -77.50065147    -78.02896568
 **********************************************************************************************************************************
 Molpro calculation terminated
