
 Primary working directories    : /scratch.local/johan406.molpro_temp/molpro.UP8CuMytxQ
 Secondary working directories  : /scratch.local/johan406.molpro_temp/molpro.UP8CuMytxQ
 Wavefunction directory         : /home/goodpast/johan406/wfu/
 Main file repository           : /scratch.local/johan406.molpro_temp/molpro.UP8CuMytxQ/

 id        : roweumn

 Nodes     nprocs
 cn0416       1

 Using customized tuning parameters: mindgm=1; mindgv=20; mindgc=4; mindgr=1; noblas=0; minvec=7
 default implementation of scratch files=df  


 Variables initialized (934), CPU time= 0.00 sec
                                                                                 !leave this line blank
 
 gprint, orbitals=30
 memory, 125., m
 symmetry, nosym
 nelect=16
 basis=6-31g*
 
 geometry={
 C 0.000 0.000 0.676
 C 0.000 -0.000 -0.676
 H 0.000 0.922 1.223
 H 0.000 -0.922 1.223
 H 0.000 0.922 -1.223
 H 0.000 -0.922 -1.223
 }
 
 hf
 {multi,
 closed 7
 occ 9
 wf,spin=0;STATE,3
 }
 
 Commands  initialized (763), CPU time= 0.01 sec, 617 directives.
 Default parameters read. Elapsed time= 0.05 sec

 Checking input...
 Passed
1


                                         ***  PROGRAM SYSTEM MOLPRO  ***
                                       Copyright, TTI GmbH Stuttgart, 2015
                                    Version 2019.2 linked Oct 25 2019 22:50:27


 **********************************************************************************************************************************
 LABEL *                                                                                 
  64 bit serial version                                                                  DATE: 15-Mar-23          TIME: 16:33:28  
 **********************************************************************************************************************************

 SHA1:             8dbd9ae1082e4ce945b0f27595c9eb2d4aa09004
 **********************************************************************************************************************************


 Variable memory set to  125000000 words,  buffer space 

 SETTING NELECT         =        16.00000000                                  
 SETTING BASIS          =    6-31G*
 ZSYMEL=NOSYM


Geometry recognized as XYZ



 Recomputing integrals since basis changed


 Using spherical harmonics

 Library entry C      S 6-31G                selected for orbital group  1
 Library entry C      P 6-31G                selected for orbital group  1
 Library entry C      D 6-31G*               selected for orbital group  1
 Library entry H      S 6-31G                selected for orbital group  2


 PROGRAM * SEWARD (Integral evaluation for generally contracted gaussian basis sets)     Author: Roland Lindh, 1990

 Geometry written to block  1 of record 700


 Point group  C1  



 ATOMIC COORDINATES

 NR  ATOM    CHARGE       X              Y              Z

   1  C       6.00    0.000000000    0.000000000    1.277454860
   2  C       6.00    0.000000000   -0.000000000   -1.277454860
   3  H       1.00    0.000000000    1.742327487    2.311135050
   4  H       1.00    0.000000000   -1.742327487    2.311135050
   5  H       1.00    0.000000000    1.742327487   -2.311135050
   6  H       1.00    0.000000000   -1.742327487   -2.311135050

 Bond lengths in Bohr (Angstrom)

 1-2  2.554909720  1-3  2.025882476  1-4  2.025882476  2-5  2.025882476  2-6  2.025882476
     ( 1.352000000)     ( 1.072050838)     ( 1.072050838)     ( 1.072050838)     ( 1.072050838)

 Bond angles

  1-2-5  120.67961726   1-2-6  120.67961726   2-1-3  120.67961726   2-1-4  120.67961726

  3-1-4  118.64076548   5-2-6  118.64076548

 NUCLEAR CHARGE:                   16
 NUMBER OF PRIMITIVE AOS:          72
 NUMBER OF SYMMETRY AOS:           70
 NUMBER OF CONTRACTIONS:           36   (   36A   )
 NUMBER OF CORE ORBITALS:           2   (    2A   )
 NUMBER OF VALENCE ORBITALS:       12   (   12A   )


 NUCLEAR REPULSION ENERGY   33.30559474

 EXTRA SYMMETRY OF AOS IN SYMMETRY 1:   1 1 1 2 1 1 2 1 1 1   3 2 1 1 1 1 1 2 1 1   2 1 1 1 3 2 1 1 1 1   1 1 1 1 1 1

 Eigenvalues of metric

         1 0.859E-02 0.167E-01 0.384E-01 0.472E-01 0.688E-01 0.201E+00 0.212E+00 0.229E+00


 Contracted 2-electron integrals neglected if value below      1.0D-11
 AO integral compression algorithm  1   Integral accuracy      1.0D-11

     0.786 MB (compressed) written to integral file ( 37.8%)


 NUMBER OF SORTED TWO-ELECTRON INTEGRALS:     222111.     BUFFER LENGTH:  32768
 NUMBER OF SEGMENTS:   1  SEGMENT LENGTH:     222111      RECORD LENGTH: 524288

 Memory used in sort:       0.78 MW

 SORT1 READ      284735. AND WROTE       98275. INTEGRALS IN      1 RECORDS. CPU TIME:     0.00 SEC, REAL TIME:     0.01 SEC
 SORT2 READ       98275. AND WROTE      222111. INTEGRALS IN      3 RECORDS. CPU TIME:     0.02 SEC, REAL TIME:     0.02 SEC

 FILE SIZES:   FILE 1:    30.9 MBYTE,  FILE 4:     4.2 MBYTE,   TOTAL:     35.1 MBYTE

 OPERATOR DM      FOR CENTER  0  COORDINATES:    0.000000    0.000000    0.000000


 **********************************************************************************************************************************
 DATASETS  * FILE   NREC   LENGTH (MB)   RECORD NAMES
              1      19       30.63       500      610      700      900      950      970     1000      129      960     1100   
                                          VAR    BASINP    GEOM    SYMINP    ZMAT    AOBASIS   BASIS     P2S    ABASIS      S 
                                         1400     1410     1200     1210     1080     1600     1650     1300     1700   
                                           T        V       H0       H01     AOSYM     SMH    MOLCAS    ERIS     OPER   

 PROGRAMS   *        TOTAL       INT
 CPU TIMES  *         0.30      0.22
 REAL TIME  *         0.50 SEC
 DISK USED  *        35.45 MB
 **********************************************************************************************************************************


 PROGRAM * RHF-SCF (CLOSED SHELL)       Authors: W. Meyer, H.-J. Werner


 NUMBER OF ELECTRONS:       8+    8-    SPACE SYMMETRY=1    SPIN SYMMETRY: Singlet 
 CONVERGENCE THRESHOLDS:    1.00E-05 (Density)    1.00E-07 (Energy)
 MAX. NUMBER OF ITERATIONS:       60
 INTERPOLATION TYPE:            DIIS
 INTERPOLATION STEPS:              2 (START)      1 (STEP)
 LEVEL SHIFTS:                  0.00 (CLOSED)  0.00 (OPEN) 



 Orbital guess generated from atomic densities. Full valence occupancy:    8

 Molecular orbital dump at record        2100.2

 Initial occupancy:   8

 ITERATION    DDIFF          GRAD             ENERGY        2-EL.EN.            DIPOLE MOMENTS         DIIS   ORB.
    1      0.000D+00      0.000D+00       -78.00599751    118.478509    0.00000   -0.00000   -0.00000    0    start
    2      0.000D+00      0.847D-02       -78.02747868    116.714780   -0.00000    0.00000    0.00000    1    diag
    3      0.811D-02      0.283D-02       -78.02949810    117.321439    0.00000    0.00000   -0.00000    2    diag
    4      0.256D-02      0.703D-03       -78.02969976    117.222630   -0.00000    0.00000   -0.00000    3    diag
    5      0.104D-02      0.658D-04       -78.02970174    117.225391   -0.00000    0.00000    0.00000    4    diag
    6      0.141D-03      0.728D-05       -78.02970176    117.224990    0.00000    0.00000   -0.00000    5    diag
    7      0.135D-04      0.105D-05       -78.02970176    117.224998   -0.00000    0.00000    0.00000    6    diag
    8      0.147D-05      0.117D-06       -78.02970176    117.224992   -0.00000    0.00000   -0.00000    0    orth

 Final occupancy:   8

 !RHF STATE  1.1 Energy               -78.029701760505
 Nuclear energy                        33.30559474
 One-electron energy                 -169.94779269
 Two-electron energy                   58.61249620
 Virial quotient                       -1.00031354
 !RHF STATE  1.1 Dipole moment         -0.00000000     0.00000000    -0.00000000
 Dipole moment /Debye                  -0.00000000     0.00000000    -0.00000000

 ELECTRON ORBITALS
 =================

  Orbital  Occupation    Energy     Coefficients
    1.1     2.00000   -11.22562     1 1s    0.70421     2 1s    0.70421
    2.1     2.00000   -11.22413     1 1s    0.70453     2 1s   -0.70453
    3.1     2.00000    -1.02409     1 1s    0.30117     2 1s    0.30117
    4.1     2.00000    -0.79238     2 1s   -0.24235
    5.1     2.00000    -0.64223     1 2py   0.32135     2 2py   0.32135
    6.1     2.00000    -0.57579     1 2pz   0.40781     2 2pz  -0.40781
    7.1     2.00000    -0.51156     1 2py   0.30742     2 2py  -0.30742
    8.1     2.00000    -0.36560     1 2px   0.37162     1 2px   0.31091     2 2px   0.37162     2 2px   0.31091
    9.1     0.00000     0.17578     1 2px   0.34330     1 2px   0.72539     2 2px  -0.34330     2 2px  -0.72539
   10.1     0.00000     0.26482     1 1s   -1.48806     1 2pz  -0.62801     2 1s   -1.48806     2 2pz   0.62801     3 1s    1.03266
                                    4 1s    1.03266     5 1s    1.03266     6 1s    1.03266
   11.1     0.00000     0.29735     1 2py  -0.25097     1 2py  -0.83294     2 2py  -0.25097     2 2py  -0.83294     3 1s    1.12245
                                    4 1s   -1.12245     5 1s    1.12245     6 1s   -1.12245
   12.1     0.00000     0.31164     1 1s    1.96370     2 1s   -1.96370     3 1s   -1.07963     4 1s   -1.07963     5 1s    1.07963
                                    6 1s    1.07963
   13.1     0.00000     0.38985     1 2py  -1.89205     2 2py   1.89205     3 1s    1.65039     4 1s   -1.65039     5 1s   -1.65039
                                    6 1s    1.65039
   14.1     0.00000     0.48397     1 1s   -2.81116     1 2pz   2.83840     2 1s    2.81116     2 2pz   2.83840     3 1s   -0.56576
                                    4 1s   -0.56576     5 1s    0.56576     6 1s    0.56576
   15.1     0.00000     0.67141     1 1s    0.27408     1 2pz  -0.55723     1 2pz   1.02584     2 1s    0.27408     2 2pz   0.55723
                                    2 2pz  -1.02584
   16.1     0.00000     0.76637     1 2py  -0.39747     1 2py   0.80160     2 2py  -0.39747     2 2py   0.80160     3 1s   -0.38550
                                    4 1s    0.38550     5 1s   -0.38550     6 1s    0.38550
   17.1     0.00000     0.78045     1 2px  -0.74388     1 2px   0.63950     2 2px  -0.74388     2 2px   0.63950
   18.1     0.00000     0.85963     1 1s   -0.89102     1 1s    1.42357     1 2pz   0.26442     2 1s   -0.89102     2 1s    1.42357
                                    2 2pz  -0.26442     3 1s   -0.39083     4 1s   -0.39083     5 1s   -0.39083     6 1s   -0.39083
   19.1     0.00000     0.88915     1 2px  -0.81717     1 2px   1.06877     2 2px   0.81717     2 2px  -1.06877
   20.1     0.00000     0.94768     1 1s   -0.83970     1 2pz   0.61869     1 2pz  -0.46984     2 1s    0.83970     2 2pz   0.61869
                                    2 2pz  -0.46984     3 1s    0.37342     4 1s    0.37342     5 1s   -0.37342     6 1s   -0.37342
   21.1     0.00000     1.12549     1 2py  -0.69746     1 2py   1.11447     2 2py  -0.69746     2 2py   1.11447     3 1s    0.38363
                                    3 1s   -1.06723     4 1s   -0.38363     4 1s    1.06723     5 1s    0.38363     5 1s   -1.06723
                                    6 1s   -0.38363     6 1s    1.06723
   22.1     0.00000     1.16238     1 2py   0.92695     1 2py  -2.97858     2 2py  -0.92695     2 2py   2.97858     3 1s    1.53763
                                    4 1s   -1.53763     5 1s   -1.53763     6 1s    1.53763
   23.1     0.00000     1.21440     1 1s    1.04181     1 1s   -1.73797     1 2pz   0.36264     1 2pz  -0.48921     2 1s    1.04181
                                    2 1s   -1.73797     2 2pz  -0.36264     2 2pz   0.48921     3 1s   -0.43629     3 1s    0.86760
                                    4 1s   -0.43629     4 1s    0.86760     5 1s   -0.43629     5 1s    0.86760     6 1s   -0.43629
                                    6 1s    0.86760
   24.1     0.00000     1.21872     1 1s   -0.42474     1 2pz  -0.62648     1 2pz   1.34803     2 1s    0.42474     2 2pz  -0.62648
                                    2 2pz   1.34803     3 1s    0.48158     3 1s   -0.95161     4 1s    0.48158     4 1s   -0.95161
                                    5 1s   -0.48158     5 1s    0.95161     6 1s   -0.48158     6 1s    0.95161
   25.1     0.00000     1.33192     1 1s   -1.62530     1 1s    5.36398     1 2pz  -1.82010     2 1s    1.62530     2 1s   -5.36398
                                    2 2pz  -1.82010     3 1s   -0.40356     4 1s   -0.40356     5 1s    0.40356     6 1s    0.40356
   26.1     0.00000     1.49421     1 2py   2.57994     2 2py  -2.57994     3 1s   -0.70442     3 1s   -0.70243     4 1s    0.70442
                                    4 1s    0.70243     5 1s    0.70442     5 1s    0.70243     6 1s   -0.70442     6 1s   -0.70243
   27.1     0.00000     1.73568     1 3d1+  0.62088     2 3d1+ -0.62088
   28.1     0.00000     1.82504     1 3d2-  0.68248     2 3d2-  0.68248
   29.1     0.00000     2.12062     1 3d2-  0.73460     2 3d2- -0.73460
   30.1     0.00000     2.21874     1 1s   -0.60575     1 3d2+  0.70467     2 1s   -0.60575     2 3d2+  0.70467     3 1s    0.36429
                                    4 1s    0.36429     5 1s    0.36429     6 1s    0.36429
   31.1     0.00000     2.32914     1 2py   0.27229     1 3d1-  0.69434     2 2py   0.27229     2 3d1- -0.69434     3 1s   -0.52141
                                    4 1s    0.52141     5 1s   -0.52141     6 1s    0.52141
   32.1     0.00000     2.40158     1 1s   -0.49378     1 2pz   0.27088     1 2pz  -0.44431     1 3d0   0.67488     2 1s   -0.49378
                                    2 2pz  -0.27088     2 2pz   0.44431     2 3d0   0.67488
   33.1     0.00000     2.63936     1 1s    0.28900     1 1s   -1.41974     1 2pz   0.33360     1 3d2+  0.80151     2 1s   -0.28900
                                    2 1s    1.41974     2 2pz   0.33360     2 3d2+ -0.80151     3 1s    0.45453     4 1s    0.45453
                                    5 1s   -0.45453     6 1s   -0.45453
   34.1     0.00000     2.69474     1 2px  -0.26184     1 3d1+  0.89428     2 2px   0.26184     2 3d1+  0.89428
   35.1     0.00000     3.03058     1 2py   0.59025     1 3d1-  0.95833     2 2py  -0.59025     2 3d1-  0.95833     3 1s   -0.47825
                                    4 1s    0.47825     5 1s    0.47825     6 1s   -0.47825
   36.1     0.00000     3.04763     1 1s    0.27593     1 1s    1.97531     1 2pz  -0.76260     1 2pz  -1.15423     1 3d0   1.10249
                                    2 1s   -0.27593     2 1s   -1.97531     2 2pz  -0.76260     2 2pz  -1.15423     2 3d0  -1.10249


 HOMO      8.1    -0.365596 =      -9.9484eV
 LUMO      9.1     0.175779 =       4.7832eV
 LUMO-HOMO         0.541375 =      14.7316eV


 **********************************************************************************************************************************
 DATASETS  * FILE   NREC   LENGTH (MB)   RECORD NAMES
              1      19       30.63       500      610      700      900      950      970     1000      129      960     1100   
                                          VAR    BASINP    GEOM    SYMINP    ZMAT    AOBASIS   BASIS     P2S    ABASIS      S 
                                         1400     1410     1200     1210     1080     1600     1650     1300     1700   
                                           T        V       H0       H01     AOSYM     SMH    MOLCAS    ERIS     OPER   

              2       4        2.86       700     1000      520     2100   
                                         GEOM     BASIS   MCVARS     RHF  

 PROGRAMS   *        TOTAL    HF-SCF       INT
 CPU TIMES  *         0.39      0.09      0.22
 REAL TIME  *         0.62 SEC
 DISK USED  *        35.45 MB
 **********************************************************************************************************************************


 PROGRAM * MULTI (Direct Multiconfiguration SCF)       Authors: P.J. Knowles, H.-J. Werner (1984)


 Number of closed-shell orbitals:   7 (   7 )
 Number of active  orbitals:        2 (   2 )
 Number of external orbitals:      27 (  27 )

 State symmetry 1

 Number of electrons:     2    Spin symmetry=Singlet   Space symmetry=1
 Number of states:        3
 Number of CSFs:          3   (4 determinants, 4 intermediate states)

 Molecular orbitals read from record     2100.2  Type=RHF/CANONICAL (state 1.1)

 EXTRA SYMMETRY OF MOS IN SYMMETRY 1:   1 1 1 1 1 1 1 2 2 1   1 1 1 1 1 1 2 1 2 1   1 1 1 1 1 1 2 3 3 1   1 1 1 2 1 1

 Wavefunction dump at record             2140.2

 Convergence thresholds  0.10E-01 (gradient)  0.10E-05 (energy)  0.10E-02 (step length)

 Weight factors for state symmetry  1:    0.33333   0.33333   0.33333

 Number of orbital rotations:      257   (    14 Core/Active    189 Core/Virtual   0 Active/Active     54 Active/Virtual)
 Total number of variables:        269

 Micro-Iterations solved by the two-step solver

 ITER. MIC  NCI  NEG     ENERGY(VAR)     ENERGY(PROJ)   ENERGY CHANGE     GRAD(0)  GRAD(ORB)   GRAD(CI)     STEP       TIME

   1    3    3    0     -77.73371617     -77.73969534   -0.00597916    0.12957682 0.00000137 0.00000000  0.61D-01      0.06
   2    2    3    0     -77.73960466     -77.73960802   -0.00000337    0.00288010 0.00000166 0.00000000  0.15D-02      0.09
   3    2    3    0     -77.73960803     -77.73960803   -0.00000000    0.00000192 0.00000000 0.00000000  0.12D-05      0.12

 ** WVFN ****  CONVERGENCE REACHED, FINAL GRADIENT:  0.10D-11



 Results for state 1.1
 =====================

 !MCSCF STATE  1.1 Energy             -78.048185400441
 Nuclear energy                        33.30559474
 Kinetic energy                        78.06812738
 One electron energy                 -170.06473050
 Two electron energy                   58.71095036
 Virial ratio                           1.99974456

 !MCSCF STATE  1.1 Dipole moment        0.00000000     0.00000000    -0.00000000
 Dipole moment /Debye                   0.00000000     0.00000000    -0.00000000

 Results for state 2.1
 =====================

 !MCSCF STATE  2.1 Energy             -77.675610028088
 Nuclear energy                        33.30559474
 Kinetic energy                        78.25387105
 One electron energy                 -169.51848419
 Two electron energy                   58.53727942
 Virial ratio                           1.99261045

 !MCSCF STATE  2.1 Dipole moment        0.00000000     0.00000000    -0.00000000
 Dipole moment /Debye                   0.00000000     0.00000000    -0.00000000

 Results for state 3.1
 =====================

 !MCSCF STATE  3.1 Energy             -77.495028646986
 Nuclear energy                        33.30559474
 Kinetic energy                        78.43961472
 One electron energy                 -168.97223787
 Two electron energy                   58.17161449
 Virial ratio                           1.98795779

 !MCSCF STATE  3.1 Dipole moment        0.00000000     0.00000000    -0.00000000
 Dipole moment /Debye                   0.00000000     0.00000000    -0.00000000

 State-averaged charge density matrix saved on record  2140.2 (density set 1)

 !MCSCF trans         <2.1|DMZ|1.1>    -1.511977972275 au =    -3.842812974774 Debye
 !MCSCF trans         <3.1|DMZ|2.1>    -2.299404844719 au =    -5.844121365241 Debye


 NATURAL ORBITALS (state averaged)
 =================================

  Orbital  Occupation    Energy     Coefficients
    1.1     2.00000   -11.24046     1 1s    0.70422     2 1s    0.70422
    2.1     2.00000   -11.23923     1 1s    0.70449     2 1s   -0.70449
    3.1     2.00000    -1.03806     1 1s    0.30906     2 1s    0.30906
    4.1     2.00000    -0.80007     1 1s    0.28654     2 1s   -0.28654
    5.1     2.00000    -0.65464     1 2py   0.32665     2 2py   0.32665
    6.1     2.00000    -0.59070     1 2pz   0.40962     2 2pz  -0.40962
    7.1     2.00000    -0.51811     1 2py   0.31357     2 2py  -0.31357
    8.1     1.00000     0.03147     1 2px   0.38036     1 2px   0.67967     2 2px  -0.38036     2 2px  -0.67967
    9.1     1.00000    -0.22246     1 2px   0.35598     1 2px   0.32252     2 2px   0.35598     2 2px   0.32252
   10.1    -0.00000     0.26205     1 1s   -1.48397     1 2pz  -0.63389     2 1s   -1.48397     2 2pz   0.63389     3 1s    1.03212
                                    4 1s    1.03212     5 1s    1.03212     6 1s    1.03212
   11.1    -0.00000     0.28922     1 2py  -0.82402     2 2py  -0.82402     3 1s    1.11432     4 1s   -1.11432     5 1s    1.11432
                                    6 1s   -1.11432
   12.1    -0.00000     0.30858     1 1s    1.98866     2 1s   -1.98866     3 1s   -1.07401     4 1s   -1.07401     5 1s    1.07401
                                    6 1s    1.07401
   13.1    -0.00000     0.38589     1 2py  -1.87849     2 2py   1.87849     3 1s    1.64390     4 1s   -1.64390     5 1s   -1.64390
                                    6 1s    1.64390
   14.1    -0.00000     0.48135     1 1s   -2.78710     1 2pz   2.82063     2 1s    2.78710     2 2pz   2.82063     3 1s   -0.57612
                                    4 1s   -0.57612     5 1s    0.57612     6 1s    0.57612
   15.1    -0.00000     0.66109     1 2pz  -0.55102     1 2pz   1.00494     2 2pz   0.55102     2 2pz  -1.00494
   16.1    -0.00000     0.75576     1 2py  -0.40829     1 2py   0.80752     2 2py  -0.40829     2 2py   0.80752     3 1s   -0.38125
                                    4 1s    0.38125     5 1s   -0.38125     6 1s    0.38125
   17.1    -0.00000     0.77453     1 2px  -0.75066     1 2px   0.63405     2 2px  -0.75066     2 2px   0.63405
   18.1    -0.00000     0.85622     1 1s   -0.88573     1 1s    1.45113     1 2pz   0.31393     2 1s   -0.88573     2 1s    1.45113
                                    2 2pz  -0.31393     3 1s   -0.39359     4 1s   -0.39359     5 1s   -0.39359     6 1s   -0.39359
   19.1    -0.00000     0.87195     1 2px  -0.80183     1 2px   1.09826     2 2px   0.80183     2 2px  -1.09826
   20.1    -0.00000     0.92894     1 1s   -0.68857     1 2pz   0.62186     1 2pz  -0.54836     2 1s    0.68857     2 2pz   0.62186
                                    2 2pz  -0.54836     3 1s    0.37444     4 1s    0.37444     5 1s   -0.37444     6 1s   -0.37444
   21.1    -0.00000     1.11029     1 2py  -0.68652     1 2py   1.11667     2 2py  -0.68652     2 2py   1.11667     3 1s    0.38401
                                    3 1s   -1.07598     4 1s   -0.38401     4 1s    1.07598     5 1s    0.38401     5 1s   -1.07598
                                    6 1s   -0.38401     6 1s    1.07598
   22.1    -0.00000     1.15024     1 2py   0.92411     1 2py  -2.98327     2 2py  -0.92411     2 2py   2.98327     3 1s    1.54522
                                    4 1s   -1.54522     5 1s   -1.54522     6 1s    1.54522
   23.1    -0.00000     1.21131     1 1s    1.03679     1 1s   -1.73379     1 2pz   0.36672     1 2pz  -0.49513     2 1s    1.03679
                                    2 1s   -1.73379     2 2pz  -0.36672     2 2pz   0.49513     3 1s   -0.43680     3 1s    0.86702
                                    4 1s   -0.43680     4 1s    0.86702     5 1s   -0.43680     5 1s    0.86702     6 1s   -0.43680
                                    6 1s    0.86702
   24.1    -0.00000     1.21585     1 1s   -0.34156     1 2pz  -0.64086     1 2pz   1.44069     2 1s    0.34156     2 2pz  -0.64086
                                    2 2pz   1.44069     3 1s    0.48353     3 1s   -0.92968     4 1s    0.48353     4 1s   -0.92968
                                    5 1s   -0.48353     5 1s    0.92968     6 1s   -0.48353     6 1s    0.92968
   25.1    -0.00000     1.31325     1 1s   -1.64658     1 1s    5.37676     1 2pz  -1.74711     2 1s    1.64658     2 1s   -5.37676
                                    2 2pz  -1.74711     3 1s   -0.45366     4 1s   -0.45366     5 1s    0.45366     6 1s    0.45366
   26.1    -0.00000     1.48561     1 2py   2.58310     2 2py  -2.58310     3 1s   -0.70322     3 1s   -0.70354     4 1s    0.70322
                                    4 1s    0.70354     5 1s    0.70322     5 1s    0.70354     6 1s   -0.70322     6 1s   -0.70354
   27.1    -0.00000     1.71081     1 3d1+  0.62064     2 3d1+ -0.62064
   28.1    -0.00000     1.81173     1 3d2-  0.68248     2 3d2-  0.68248
   29.1    -0.00000     2.09810     1 3d2-  0.73460     2 3d2- -0.73460
   30.1    -0.00000     2.20369     1 1s   -0.60148     1 3d2+  0.70374     2 1s   -0.60148     2 3d2+  0.70374     3 1s    0.36563
                                    4 1s    0.36563     5 1s    0.36563     6 1s    0.36563
   31.1    -0.00000     2.31355     1 2py   0.27918     1 3d1-  0.69258     2 2py   0.27918     2 3d1- -0.69258     3 1s   -0.52477
                                    4 1s    0.52477     5 1s   -0.52477     6 1s    0.52477
   32.1    -0.00000     2.38189     1 1s   -0.49159     1 2pz   0.27629     1 2pz  -0.44745     1 3d0   0.67423     2 1s   -0.49159
                                    2 2pz  -0.27629     2 2pz   0.44745     2 3d0   0.67423
   33.1    -0.00000     2.62025     1 1s    0.28993     1 1s   -1.42581     1 2pz   0.33283     1 3d2+  0.80078     2 1s   -0.28993
                                    2 1s    1.42581     2 2pz   0.33283     2 3d2+ -0.80078     3 1s    0.45756     4 1s    0.45756
                                    5 1s   -0.45756     6 1s   -0.45756
   34.1    -0.00000     2.67262     1 2px  -0.26250     1 3d1+  0.89465     2 2px   0.26250     2 3d1+  0.89465
   35.1    -0.00000     3.01824     1 2py   0.59083     1 3d1-  0.95790     2 2py  -0.59083     2 3d1-  0.95790     3 1s   -0.48062
                                    4 1s    0.48062     5 1s    0.48062     6 1s   -0.48062
   36.1    -0.00000     3.03022     1 1s    0.26893     1 1s    2.00027     1 2pz  -0.75523     1 2pz  -1.16720     1 3d0   1.10405
                                    2 1s   -0.26893     2 1s   -2.00027     2 2pz  -0.75523     2 2pz  -1.16720     2 3d0  -1.10405


 Natural orbital dump (state averaged) at molpro section  2140.2    (Orbital set 2)



 **********************************************************************************************************************************
 DATASETS  * FILE   NREC   LENGTH (MB)   RECORD NAMES
              1      20       31.36       500      610      700      900      950      970     1000      129      960     1100   
                                          VAR    BASINP    GEOM    SYMINP    ZMAT    AOBASIS   BASIS     P2S    ABASIS      S 
                                         1400     1410     1200     1210     1080     1600     1650     1300     1700     1380   
                                           T        V       H0       H01     AOSYM     SMH    MOLCAS    ERIS     OPER     JKOP   

              2       5        5.42       700     1000      520     2100     2140   
                                         GEOM     BASIS   MCVARS     RHF     MCSCF   

 PROGRAMS   *        TOTAL     MULTI    HF-SCF       INT
 CPU TIMES  *         0.54      0.15      0.09      0.22
 REAL TIME  *         0.85 SEC
 DISK USED  *        38.55 MB
 **********************************************************************************************************************************
 Molecular orbitals read from record     2140.2  Type=MCSCF/NATURAL (state averaged)
 Occupation numbers read from record     2140.2  Type=MCSCF/NATURAL (state averaged)
 Orbital energies read from record       2140.2  Type=MCSCF/NATURAL (state averaged)
 Redundancy group numbers read from rec  2140.2  Type=MCSCF/NATURAL (state averaged)

 MULTI/6-31G* energy=    -77.495028646986

           MULTI          HF-SCF
    -77.49502865    -78.02970176
 **********************************************************************************************************************************
 Molpro calculation terminated
