
 Primary working directories    : /scratch.local/johan406.molpro_temp/molpro.CFGhSUVutA
 Secondary working directories  : /scratch.local/johan406.molpro_temp/molpro.CFGhSUVutA
 Wavefunction directory         : /home/goodpast/johan406/wfu/
 Main file repository           : /scratch.local/johan406.molpro_temp/molpro.CFGhSUVutA/

 id        : roweumn

 Nodes     nprocs
 cn0416       1

 Using customized tuning parameters: mindgm=1; mindgv=20; mindgc=4; mindgr=1; noblas=0; minvec=7
 default implementation of scratch files=df  


 Variables initialized (934), CPU time= 0.00 sec
                                                                                 !leave this line blank
 
 gprint, orbitals=30
 memory, 125., m
 symmetry, nosym
 nelect=16
 basis=6-31g*
 
 geometry={
 C 0.000 0.000 0.672
 C 0.000 -0.000 -0.672
 H 0.000 0.912 1.236
 H 0.000 -0.912 1.236
 H 0.000 0.912 -1.236
 H 0.000 -0.912 -1.236
 }
 
 hf
 {multi,
 closed 7
 occ 9
 wf,spin=0;STATE,3
 }
 
 Commands  initialized (763), CPU time= 0.01 sec, 617 directives.
 Default parameters read. Elapsed time= 0.04 sec

 Checking input...
 Passed
1


                                         ***  PROGRAM SYSTEM MOLPRO  ***
                                       Copyright, TTI GmbH Stuttgart, 2015
                                    Version 2019.2 linked Oct 25 2019 22:50:27


 **********************************************************************************************************************************
 LABEL *                                                                                 
  64 bit serial version                                                                  DATE: 15-Mar-23          TIME: 16:36:41  
 **********************************************************************************************************************************

 SHA1:             8dbd9ae1082e4ce945b0f27595c9eb2d4aa09004
 **********************************************************************************************************************************


 Variable memory set to  125000000 words,  buffer space 

 SETTING NELECT         =        16.00000000                                  
 SETTING BASIS          =    6-31G*
 ZSYMEL=NOSYM


Geometry recognized as XYZ



 Recomputing integrals since basis changed


 Using spherical harmonics

 Library entry C      S 6-31G                selected for orbital group  1
 Library entry C      P 6-31G                selected for orbital group  1
 Library entry C      D 6-31G*               selected for orbital group  1
 Library entry H      S 6-31G                selected for orbital group  2


 PROGRAM * SEWARD (Integral evaluation for generally contracted gaussian basis sets)     Author: Roland Lindh, 1990

 Geometry written to block  1 of record 700


 Point group  C1  



 ATOMIC COORDINATES

 NR  ATOM    CHARGE       X              Y              Z

   1  C       6.00    0.000000000    0.000000000    1.269895956
   2  C       6.00    0.000000000   -0.000000000   -1.269895956
   3  H       1.00    0.000000000    1.723430226    2.335701490
   4  H       1.00    0.000000000   -1.723430226    2.335701490
   5  H       1.00    0.000000000    1.723430226   -2.335701490
   6  H       1.00    0.000000000   -1.723430226   -2.335701490

 Bond lengths in Bohr (Angstrom)

 1-2  2.539791911  1-3  2.026364523  1-4  2.026364523  2-5  2.026364523  2-6  2.026364523
     ( 1.344000000)     ( 1.072305926)     ( 1.072305926)     ( 1.072305926)     ( 1.072305926)

 Bond angles

  1-2-5  121.73351915   1-2-6  121.73351915   2-1-3  121.73351915   2-1-4  121.73351915

  3-1-4  116.53296169   5-2-6  116.53296169

 NUCLEAR CHARGE:                   16
 NUMBER OF PRIMITIVE AOS:          72
 NUMBER OF SYMMETRY AOS:           70
 NUMBER OF CONTRACTIONS:           36   (   36A   )
 NUMBER OF CORE ORBITALS:           2   (    2A   )
 NUMBER OF VALENCE ORBITALS:       12   (   12A   )


 NUCLEAR REPULSION ENERGY   33.37667206

 EXTRA SYMMETRY OF AOS IN SYMMETRY 1:   1 1 1 2 1 1 2 1 1 1   3 2 1 1 1 1 1 2 1 1   2 1 1 1 3 2 1 1 1 1   1 1 1 1 1 1

 Eigenvalues of metric

         1 0.848E-02 0.172E-01 0.373E-01 0.456E-01 0.704E-01 0.196E+00 0.210E+00 0.226E+00


 Contracted 2-electron integrals neglected if value below      1.0D-11
 AO integral compression algorithm  1   Integral accuracy      1.0D-11

     0.786 MB (compressed) written to integral file ( 37.8%)


 NUMBER OF SORTED TWO-ELECTRON INTEGRALS:     222111.     BUFFER LENGTH:  32768
 NUMBER OF SEGMENTS:   1  SEGMENT LENGTH:     222111      RECORD LENGTH: 524288

 Memory used in sort:       0.78 MW

 SORT1 READ      284735. AND WROTE       98271. INTEGRALS IN      1 RECORDS. CPU TIME:     0.00 SEC, REAL TIME:     0.00 SEC
 SORT2 READ       98271. AND WROTE      222111. INTEGRALS IN      3 RECORDS. CPU TIME:     0.02 SEC, REAL TIME:     0.02 SEC

 FILE SIZES:   FILE 1:    30.9 MBYTE,  FILE 4:     4.2 MBYTE,   TOTAL:     35.1 MBYTE

 OPERATOR DM      FOR CENTER  0  COORDINATES:    0.000000    0.000000    0.000000


 **********************************************************************************************************************************
 DATASETS  * FILE   NREC   LENGTH (MB)   RECORD NAMES
              1      19       30.63       500      610      700      900      950      970     1000      129      960     1100   
                                          VAR    BASINP    GEOM    SYMINP    ZMAT    AOBASIS   BASIS     P2S    ABASIS      S 
                                         1400     1410     1200     1210     1080     1600     1650     1300     1700   
                                           T        V       H0       H01     AOSYM     SMH    MOLCAS    ERIS     OPER   

 PROGRAMS   *        TOTAL       INT
 CPU TIMES  *         0.32      0.22
 REAL TIME  *         0.47 SEC
 DISK USED  *        35.45 MB
 **********************************************************************************************************************************


 PROGRAM * RHF-SCF (CLOSED SHELL)       Authors: W. Meyer, H.-J. Werner


 NUMBER OF ELECTRONS:       8+    8-    SPACE SYMMETRY=1    SPIN SYMMETRY: Singlet 
 CONVERGENCE THRESHOLDS:    1.00E-05 (Density)    1.00E-07 (Energy)
 MAX. NUMBER OF ITERATIONS:       60
 INTERPOLATION TYPE:            DIIS
 INTERPOLATION STEPS:              2 (START)      1 (STEP)
 LEVEL SHIFTS:                  0.00 (CLOSED)  0.00 (OPEN) 



 Orbital guess generated from atomic densities. Full valence occupancy:    8

 Molecular orbital dump at record        2100.2

 Initial occupancy:   8

 ITERATION    DDIFF          GRAD             ENERGY        2-EL.EN.            DIPOLE MOMENTS         DIIS   ORB.
    1      0.000D+00      0.000D+00       -78.00632779    118.634140   -0.00000   -0.00000   -0.00000    0    start
    2      0.000D+00      0.854D-02       -78.02813900    116.828402   -0.00000    0.00000   -0.00000    1    diag
    3      0.818D-02      0.288D-02       -78.03022427    117.448203    0.00000    0.00000   -0.00000    2    diag
    4      0.260D-02      0.709D-03       -78.03043130    117.349487   -0.00000    0.00000   -0.00000    3    diag
    5      0.106D-02      0.671D-04       -78.03043334    117.352342    0.00000    0.00000   -0.00000    4    diag
    6      0.144D-03      0.785D-05       -78.03043337    117.351922   -0.00000    0.00000    0.00000    5    diag
    7      0.147D-04      0.115D-05       -78.03043337    117.351930    0.00000    0.00000   -0.00000    6    diag
    8      0.172D-05      0.134D-06       -78.03043337    117.351924   -0.00000   -0.00000   -0.00000    0    orth

 Final occupancy:   8

 !RHF STATE  1.1 Energy               -78.030433373626
 Nuclear energy                        33.37667206
 One-electron energy                 -170.08306753
 Two-electron energy                   58.67596210
 Virial quotient                       -1.00007367
 !RHF STATE  1.1 Dipole moment         -0.00000000    -0.00000000    -0.00000000
 Dipole moment /Debye                  -0.00000000    -0.00000000    -0.00000000

 ELECTRON ORBITALS
 =================

  Orbital  Occupation    Energy     Coefficients
    1.1     2.00000   -11.22517     1 1s    0.70419     2 1s    0.70419
    2.1     2.00000   -11.22362     1 1s    0.70454     2 1s   -0.70454
    3.1     2.00000    -1.02564     1 1s    0.30194     2 1s    0.30194
    4.1     2.00000    -0.79426     2 1s   -0.24086
    5.1     2.00000    -0.63904     1 2py   0.32203     2 2py   0.32203
    6.1     2.00000    -0.58237     1 2pz   0.40747     2 2pz  -0.40747
    7.1     2.00000    -0.50773     1 2py   0.30646     2 2py  -0.30646
    8.1     2.00000    -0.36774     1 2px   0.37267     1 2px   0.30912     2 2px   0.37267     2 2px   0.30912
    9.1     0.00000     0.17722     1 2px   0.34255     1 2px   0.73029     2 2px  -0.34255     2 2px  -0.73029
   10.1     0.00000     0.26723     1 1s   -1.50681     1 2pz  -0.64856     2 1s   -1.50681     2 2pz   0.64856     3 1s    1.04740
                                    4 1s    1.04740     5 1s    1.04740     6 1s    1.04740
   11.1     0.00000     0.29613     1 2py  -0.25137     1 2py  -0.81540     2 2py  -0.25137     2 2py  -0.81540     3 1s    1.10978
                                    4 1s   -1.10978     5 1s    1.10978     6 1s   -1.10978
   12.1     0.00000     0.31021     1 1s    1.95002     2 1s   -1.95002     3 1s   -1.08031     4 1s   -1.08031     5 1s    1.08031
                                    6 1s    1.08031
   13.1     0.00000     0.39119     1 2py  -1.87784     2 2py   1.87784     3 1s    1.63945     4 1s   -1.63945     5 1s   -1.63945
                                    6 1s    1.63945
   14.1     0.00000     0.48960     1 1s   -2.91811     1 2pz   2.93332     2 1s    2.91811     2 2pz   2.93332     3 1s   -0.59925
                                    4 1s   -0.59925     5 1s    0.59925     6 1s    0.59925
   15.1     0.00000     0.67115     1 1s    0.26033     1 2pz  -0.55745     1 2pz   1.03924     2 1s    0.26033     2 2pz   0.55745
                                    2 2pz  -1.03924
   16.1     0.00000     0.75970     1 2py  -0.39821     1 2py   0.77508     2 2py  -0.39821     2 2py   0.77508     3 1s   -0.38485
                                    4 1s    0.38485     5 1s   -0.38485     6 1s    0.38485
   17.1     0.00000     0.77864     1 2px  -0.74195     1 2px   0.63955     2 2px  -0.74195     2 2px   0.63955
   18.1     0.00000     0.86251     1 1s   -0.89132     1 1s    1.47753     1 2pz   0.33663     2 1s   -0.89132     2 1s    1.47753
                                    2 2pz  -0.33663     3 1s   -0.39350     4 1s   -0.39350     5 1s   -0.39350     6 1s   -0.39350
   19.1     0.00000     0.88984     1 2px  -0.81798     1 2px   1.07169     2 2px   0.81798     2 2px  -1.07169
   20.1     0.00000     0.94989     1 1s   -0.82979     1 2pz   0.60720     1 2pz  -0.50755     2 1s    0.82979     2 2pz   0.60720
                                    2 2pz  -0.50755     3 1s    0.38007     4 1s    0.38007     5 1s   -0.38007     6 1s   -0.38007
   21.1     0.00000     1.12104     1 2py  -0.69124     1 2py   1.10219     2 2py  -0.69124     2 2py   1.10219     3 1s    0.38281
                                    3 1s   -1.06588     4 1s   -0.38281     4 1s    1.06588     5 1s    0.38281     5 1s   -1.06588
                                    6 1s   -0.38281     6 1s    1.06588
   22.1     0.00000     1.16188     1 2py   0.92558     1 2py  -2.96515     2 2py  -0.92558     2 2py   2.96515     3 1s    1.52459
                                    4 1s   -1.52459     5 1s   -1.52459     6 1s    1.52459
   23.1     0.00000     1.21994     1 1s    1.03618     1 1s   -1.73063     1 2pz   0.36657     1 2pz  -0.49706     2 1s    1.03618
                                    2 1s   -1.73063     2 2pz  -0.36657     2 2pz   0.49706     3 1s   -0.44144     3 1s    0.86891
                                    4 1s   -0.44144     4 1s    0.86891     5 1s   -0.44144     5 1s    0.86891     6 1s   -0.44144
                                    6 1s    0.86891
   24.1     0.00000     1.22550     1 1s   -0.49784     1 1s    0.40157     1 2pz  -0.62827     1 2pz   1.26581     2 1s    0.49784
                                    2 1s   -0.40157     2 2pz  -0.62827     2 2pz   1.26581     3 1s    0.47494     3 1s   -0.96440
                                    4 1s    0.47494     4 1s   -0.96440     5 1s   -0.47494     5 1s    0.96440     6 1s   -0.47494
                                    6 1s    0.96440
   25.1     0.00000     1.33503     1 1s   -1.60157     1 1s    5.35741     1 2pz  -1.86910     2 1s    1.60157     2 1s   -5.35741
                                    2 2pz  -1.86910     3 1s   -0.35649     4 1s   -0.35649     5 1s    0.35649     6 1s    0.35649
   26.1     0.00000     1.47191     1 2py   2.51099     2 2py  -2.51099     3 1s   -0.69713     3 1s   -0.66331     4 1s    0.69713
                                    4 1s    0.66331     5 1s    0.69713     5 1s    0.66331     6 1s   -0.69713     6 1s   -0.66331
   27.1     0.00000     1.73700     1 3d1+  0.61982     2 3d1+ -0.61982
   28.1     0.00000     1.82329     1 3d2-  0.68175     2 3d2-  0.68175
   29.1     0.00000     2.12493     1 3d2-  0.73552     2 3d2- -0.73552
   30.1     0.00000     2.21282     1 1s   -0.61338     1 3d2+  0.71222     2 1s   -0.61338     2 3d2+  0.71222     3 1s    0.37491
                                    4 1s    0.37491     5 1s    0.37491     6 1s    0.37491
   31.1     0.00000     2.33716     1 2py   0.27981     1 3d1-  0.69441     2 2py   0.27981     2 3d1- -0.69441     3 1s   -0.52260
                                    4 1s    0.52260     5 1s   -0.52260     6 1s    0.52260
   32.1     0.00000     2.40158     1 1s   -0.50345     1 2pz   0.27994     1 2pz  -0.44838     1 3d0   0.68524     2 1s   -0.50345
                                    2 2pz  -0.27994     2 2pz   0.44838     2 3d0   0.68524
   33.1     0.00000     2.62752     1 1s    0.28730     1 1s   -1.33416     1 2pz   0.26436     1 3d2+  0.79955     2 1s   -0.28730
                                    2 1s    1.33416     2 2pz   0.26436     2 3d2+ -0.79955     3 1s    0.44794     4 1s    0.44794
                                    5 1s   -0.44794     6 1s   -0.44794
   34.1     0.00000     2.70184     1 2px  -0.26348     1 3d1+  0.89912     2 2px   0.26348     2 3d1+  0.89912
   35.1     0.00000     3.05533     1 1s    0.29723     1 1s    2.01734     1 2pz  -0.78049     1 2pz  -1.17841     1 3d0   1.10814
                                    2 1s   -0.29723     2 1s   -2.01734     2 2pz  -0.78049     2 2pz  -1.17841     2 3d0  -1.10814
   36.1     0.00000     3.06531     1 2py   0.57755     1 3d1-  0.96926     2 2py  -0.57755     2 3d1-  0.96926     3 1s   -0.48411
                                    4 1s    0.48411     5 1s    0.48411     6 1s   -0.48411


 HOMO      8.1    -0.367737 =     -10.0066eV
 LUMO      9.1     0.177221 =       4.8224eV
 LUMO-HOMO         0.544957 =      14.8290eV


 **********************************************************************************************************************************
 DATASETS  * FILE   NREC   LENGTH (MB)   RECORD NAMES
              1      19       30.63       500      610      700      900      950      970     1000      129      960     1100   
                                          VAR    BASINP    GEOM    SYMINP    ZMAT    AOBASIS   BASIS     P2S    ABASIS      S 
                                         1400     1410     1200     1210     1080     1600     1650     1300     1700   
                                           T        V       H0       H01     AOSYM     SMH    MOLCAS    ERIS     OPER   

              2       4        2.86       700     1000      520     2100   
                                         GEOM     BASIS   MCVARS     RHF  

 PROGRAMS   *        TOTAL    HF-SCF       INT
 CPU TIMES  *         0.41      0.10      0.22
 REAL TIME  *         0.59 SEC
 DISK USED  *        35.45 MB
 **********************************************************************************************************************************


 PROGRAM * MULTI (Direct Multiconfiguration SCF)       Authors: P.J. Knowles, H.-J. Werner (1984)


 Number of closed-shell orbitals:   7 (   7 )
 Number of active  orbitals:        2 (   2 )
 Number of external orbitals:      27 (  27 )

 State symmetry 1

 Number of electrons:     2    Spin symmetry=Singlet   Space symmetry=1
 Number of states:        3
 Number of CSFs:          3   (4 determinants, 4 intermediate states)

 Molecular orbitals read from record     2100.2  Type=RHF/CANONICAL (state 1.1)

 EXTRA SYMMETRY OF MOS IN SYMMETRY 1:   1 1 1 1 1 1 1 2 2 1   1 1 1 1 1 1 2 1 2 1   1 1 1 1 1 1 2 3 3 1   1 1 1 2 1 1

 Wavefunction dump at record             2140.2

 Convergence thresholds  0.10E-01 (gradient)  0.10E-05 (energy)  0.10E-02 (step length)

 Weight factors for state symmetry  1:    0.33333   0.33333   0.33333

 Number of orbital rotations:      257   (    14 Core/Active    189 Core/Virtual   0 Active/Active     54 Active/Virtual)
 Total number of variables:        269

 Micro-Iterations solved by the two-step solver

 ITER. MIC  NCI  NEG     ENERGY(VAR)     ENERGY(PROJ)   ENERGY CHANGE     GRAD(0)  GRAD(ORB)   GRAD(CI)     STEP       TIME

   1    3    3    0     -77.73159106     -77.73772913   -0.00613807    0.13142283 0.00000147 0.00000000  0.62D-01      0.05
   2    2    3    0     -77.73763384     -77.73763744   -0.00000360    0.00297616 0.00000177 0.00000000  0.16D-02      0.08
   3    2    3    0     -77.73763744     -77.73763744   -0.00000000    0.00000206 0.00000000 0.00000000  0.13D-05      0.11

 ** WVFN ****  CONVERGENCE REACHED, FINAL GRADIENT:  0.11D-11



 Results for state 1.1
 =====================

 !MCSCF STATE  1.1 Energy             -78.048453928509
 Nuclear energy                        33.37667206
 Kinetic energy                        78.09049151
 One electron energy                 -170.20907575
 Two electron energy                   58.78394977
 Virial ratio                           1.99946168

 !MCSCF STATE  1.1 Dipole moment        0.00000000    -0.00000000    -0.00000000
 Dipole moment /Debye                   0.00000000    -0.00000000    -0.00000000

 Results for state 2.1
 =====================

 !MCSCF STATE  2.1 Energy             -77.674064936734
 Nuclear energy                        33.37667206
 Kinetic energy                        78.27268446
 One electron energy                 -169.64760611
 Two electron energy                   58.59686912
 Virial ratio                           1.99235213

 !MCSCF STATE  2.1 Dipole moment        0.00000000    -0.00000000    -0.00000000
 Dipole moment /Debye                   0.00000000    -0.00000000    -0.00000000

 Results for state 3.1
 =====================

 !MCSCF STATE  3.1 Energy             -77.490393468783
 Nuclear energy                        33.37667206
 Kinetic energy                        78.45487742
 One electron energy                 -169.08613647
 Two electron energy                   58.21907095
 Virial ratio                           1.98770651

 !MCSCF STATE  3.1 Dipole moment        0.00000000    -0.00000000    -0.00000000
 Dipole moment /Debye                   0.00000000    -0.00000000    -0.00000000

 State-averaged charge density matrix saved on record  2140.2 (density set 1)

 !MCSCF trans         <2.1|DMZ|1.1>    -1.510970192749 au =    -3.840251622488 Debye
 !MCSCF trans         <3.1|DMZ|2.1>    -2.284780240533 au =    -5.806951763733 Debye


 NATURAL ORBITALS (state averaged)
 =================================

  Orbital  Occupation    Energy     Coefficients
    1.1     2.00000   -11.24051     1 1s    0.70421     2 1s    0.70421
    2.1     2.00000   -11.23923     1 1s    0.70450     2 1s   -0.70450
    3.1     2.00000    -1.03997     1 1s    0.30993     2 1s    0.30993
    4.1     2.00000    -0.80195     1 1s    0.28550     2 1s   -0.28550
    5.1     2.00000    -0.65165     1 2py   0.32760     2 2py   0.32760
    6.1     2.00000    -0.59744     1 2pz   0.40924     2 2pz  -0.40924
    7.1     2.00000    -0.51426     1 2py   0.31284     2 2py  -0.31284
    8.1     1.00000    -0.22417     1 2px   0.35718     1 2px   0.32062     2 2px   0.35718     2 2px   0.32062
    9.1     1.00000     0.03260     1 2px   0.38008     1 2px   0.68389     2 2px  -0.38008     2 2px  -0.68389
   10.1    -0.00000     0.26452     1 1s   -1.50291     1 2pz  -0.65450     2 1s   -1.50291     2 2pz   0.65450     3 1s    1.04696
                                    4 1s    1.04696     5 1s    1.04696     6 1s    1.04696
   11.1    -0.00000     0.28783     1 2py  -0.80607     2 2py  -0.80607     3 1s    1.10140     4 1s   -1.10140     5 1s    1.10140
                                    6 1s   -1.10140
   12.1    -0.00000     0.30716     1 1s    1.97419     2 1s   -1.97419     3 1s   -1.07467     4 1s   -1.07467     5 1s    1.07467
                                    6 1s    1.07467
   13.1    -0.00000     0.38714     1 2py  -0.25061     1 2py  -1.86378     2 2py   0.25061     2 2py   1.86378     3 1s    1.63274
                                    4 1s   -1.63274     5 1s   -1.63274     6 1s    1.63274
   14.1    -0.00000     0.48675     1 1s   -2.89470     1 2pz   2.91441     2 1s    2.89470     2 2pz   2.91441     3 1s   -0.60876
                                    4 1s   -0.60876     5 1s    0.60876     6 1s    0.60876
   15.1    -0.00000     0.65992     1 1s    0.25047     1 2pz  -0.54983     1 2pz   1.01553     2 1s    0.25047     2 2pz   0.54983
                                    2 2pz  -1.01553
   16.1    -0.00000     0.74925     1 2py  -0.40937     1 2py   0.78188     2 2py  -0.40937     2 2py   0.78188     3 1s   -0.38031
                                    4 1s    0.38031     5 1s   -0.38031     6 1s    0.38031
   17.1    -0.00000     0.77267     1 2px  -0.74864     1 2px   0.63421     2 2px  -0.74864     2 2px   0.63421
   18.1    -0.00000     0.85966     1 1s   -0.88479     1 1s    1.50273     1 2pz   0.38434     2 1s   -0.88479     2 1s    1.50273
                                    2 2pz  -0.38434     3 1s   -0.39540     3 1s   -0.25039     4 1s   -0.39540     4 1s   -0.25039
                                    5 1s   -0.39540     5 1s   -0.25039     6 1s   -0.39540     6 1s   -0.25039
   19.1    -0.00000     0.87241     1 2px  -0.80252     1 2px   1.10170     2 2px   0.80252     2 2px  -1.10170
   20.1    -0.00000     0.93120     1 1s   -0.67375     1 2pz   0.61128     1 2pz  -0.59105     2 1s    0.67375     2 2pz   0.61128
                                    2 2pz  -0.59105     3 1s    0.38040     4 1s    0.38040     5 1s   -0.38040     6 1s   -0.38040
   21.1    -0.00000     1.10567     1 2py  -0.67982     1 2py   1.10397     2 2py  -0.67982     2 2py   1.10397     3 1s    0.38340
                                    3 1s   -1.07480     4 1s   -0.38340     4 1s    1.07480     5 1s    0.38340     5 1s   -1.07480
                                    6 1s   -0.38340     6 1s    1.07480
   22.1    -0.00000     1.14949     1 2py   0.92268     1 2py  -2.96975     2 2py  -0.92268     2 2py   2.96975     3 1s    1.53238
                                    4 1s   -1.53238     5 1s   -1.53238     6 1s    1.53238
   23.1    -0.00000     1.21680     1 1s    1.03133     1 1s   -1.72669     1 2pz   0.37020     1 2pz  -0.50265     2 1s    1.03133
                                    2 1s   -1.72669     2 2pz  -0.37020     2 2pz   0.50265     3 1s   -0.44194     3 1s    0.86848
                                    4 1s   -0.44194     4 1s    0.86848     5 1s   -0.44194     5 1s    0.86848     6 1s   -0.44194
                                    6 1s    0.86848
   24.1    -0.00000     1.22298     1 1s   -0.42301     1 2pz  -0.64289     1 2pz   1.35271     2 1s    0.42301     2 2pz  -0.64289
                                    2 2pz   1.35271     3 1s    0.47780     3 1s   -0.94678     4 1s    0.47780     4 1s   -0.94678
                                    5 1s   -0.47780     5 1s    0.94678     6 1s   -0.47780     6 1s    0.94678
   25.1    -0.00000     1.31567     1 1s   -1.62490     1 1s    5.38265     1 2pz  -1.80617     2 1s    1.62490     2 1s   -5.38265
                                    2 2pz  -1.80617     3 1s   -0.40322     4 1s   -0.40322     5 1s    0.40322     6 1s    0.40322
   26.1    -0.00000     1.46332     1 2py   2.51476     2 2py  -2.51476     3 1s   -0.69596     3 1s   -0.66467     4 1s    0.69596
                                    4 1s    0.66467     5 1s    0.69596     5 1s    0.66467     6 1s   -0.69596     6 1s   -0.66467
   27.1    -0.00000     1.71162     1 3d1+  0.61956     2 3d1+ -0.61956
   28.1    -0.00000     1.80966     1 3d2-  0.68175     2 3d2-  0.68175
   29.1    -0.00000     2.10207     1 3d2-  0.73552     2 3d2- -0.73552
   30.1    -0.00000     2.19763     1 1s   -0.60923     1 3d2+  0.71164     2 1s   -0.60923     2 3d2+  0.71164     3 1s    0.37671
                                    4 1s    0.37671     5 1s    0.37671     6 1s    0.37671
   31.1    -0.00000     2.32114     1 2py   0.28666     1 3d1-  0.69265     2 2py   0.28666     2 3d1- -0.69265     3 1s   -0.52599
                                    4 1s    0.52599     5 1s   -0.52599     6 1s    0.52599
   32.1    -0.00000     2.38163     1 1s   -0.50143     1 2pz   0.28573     1 2pz  -0.45128     1 3d0   0.68494     2 1s   -0.50143
                                    2 2pz  -0.28573     2 2pz   0.45128     2 3d0   0.68494
   33.1    -0.00000     2.60801     1 1s    0.28808     1 1s   -1.33984     1 2pz   0.26306     1 3d2+  0.79879     2 1s   -0.28808
                                    2 1s    1.33984     2 2pz   0.26306     2 3d2+ -0.79879     3 1s    0.45100     4 1s    0.45100
                                    5 1s   -0.45100     6 1s   -0.45100
   34.1    -0.00000     2.67947     1 2px  -0.26420     1 3d1+  0.89950     2 2px   0.26420     2 3d1+  0.89950
   35.1    -0.00000     3.03756     1 1s    0.29021     1 1s    2.04258     1 2pz  -0.77301     1 2pz  -1.19159     1 3d0   1.10974
                                    2 1s   -0.29021     2 1s   -2.04258     2 2pz  -0.77301     2 2pz  -1.19159     2 3d0  -1.10974
   36.1    -0.00000     3.05265     1 2py   0.57765     1 3d1-  0.96887     2 2py  -0.57765     2 3d1-  0.96887     3 1s   -0.48640
                                    4 1s    0.48640     5 1s    0.48640     6 1s   -0.48640


 Natural orbital dump (state averaged) at molpro section  2140.2    (Orbital set 2)



 **********************************************************************************************************************************
 DATASETS  * FILE   NREC   LENGTH (MB)   RECORD NAMES
              1      20       31.36       500      610      700      900      950      970     1000      129      960     1100   
                                          VAR    BASINP    GEOM    SYMINP    ZMAT    AOBASIS   BASIS     P2S    ABASIS      S 
                                         1400     1410     1200     1210     1080     1600     1650     1300     1700     1380   
                                           T        V       H0       H01     AOSYM     SMH    MOLCAS    ERIS     OPER     JKOP   

              2       5        5.42       700     1000      520     2100     2140   
                                         GEOM     BASIS   MCVARS     RHF     MCSCF   

 PROGRAMS   *        TOTAL     MULTI    HF-SCF       INT
 CPU TIMES  *         0.55      0.14      0.10      0.22
 REAL TIME  *         0.79 SEC
 DISK USED  *        38.55 MB
 **********************************************************************************************************************************
 Molecular orbitals read from record     2140.2  Type=MCSCF/NATURAL (state averaged)
 Occupation numbers read from record     2140.2  Type=MCSCF/NATURAL (state averaged)
 Orbital energies read from record       2140.2  Type=MCSCF/NATURAL (state averaged)
 Redundancy group numbers read from rec  2140.2  Type=MCSCF/NATURAL (state averaged)

 MULTI/6-31G* energy=    -77.490393468783

           MULTI          HF-SCF
    -77.49039347    -78.03043337
 **********************************************************************************************************************************
 Molpro calculation terminated
