
 Primary working directories    : /scratch.local/johan406.molpro_temp/molpro.eqcqWME9XN
 Secondary working directories  : /scratch.local/johan406.molpro_temp/molpro.eqcqWME9XN
 Wavefunction directory         : /home/goodpast/johan406/wfu/
 Main file repository           : /scratch.local/johan406.molpro_temp/molpro.eqcqWME9XN/

 id        : roweumn

 Nodes     nprocs
 cn0416       1

 Using customized tuning parameters: mindgm=1; mindgv=20; mindgc=4; mindgr=1; noblas=0; minvec=7
 default implementation of scratch files=df  


 Variables initialized (934), CPU time= 0.00 sec
                                                                                 !leave this line blank
 
 gprint, orbitals=30
 memory, 125., m
 symmetry, nosym
 nelect=16
 basis=6-31g*
 
 geometry={
 C 0.000 0.000 0.680
 C 0.000 -0.000 -0.680
 H 0.000 0.913 1.239
 H 0.000 -0.913 1.239
 H 0.000 0.913 -1.239
 H 0.000 -0.913 -1.239
 }
 
 hf
 {multi,
 closed 7
 occ 9
 wf,spin=0;STATE,3
 }
 
 Commands  initialized (763), CPU time= 0.01 sec, 617 directives.
 Default parameters read. Elapsed time= 0.05 sec

 Checking input...
 Passed
1


                                         ***  PROGRAM SYSTEM MOLPRO  ***
                                       Copyright, TTI GmbH Stuttgart, 2015
                                    Version 2019.2 linked Oct 25 2019 22:50:27


 **********************************************************************************************************************************
 LABEL *                                                                                 
  64 bit serial version                                                                  DATE: 15-Mar-23          TIME: 16:39:18  
 **********************************************************************************************************************************

 SHA1:             8dbd9ae1082e4ce945b0f27595c9eb2d4aa09004
 **********************************************************************************************************************************


 Variable memory set to  125000000 words,  buffer space 

 SETTING NELECT         =        16.00000000                                  
 SETTING BASIS          =    6-31G*
 ZSYMEL=NOSYM


Geometry recognized as XYZ



 Recomputing integrals since basis changed


 Using spherical harmonics

 Library entry C      S 6-31G                selected for orbital group  1
 Library entry C      P 6-31G                selected for orbital group  1
 Library entry C      D 6-31G*               selected for orbital group  1
 Library entry H      S 6-31G                selected for orbital group  2


 PROGRAM * SEWARD (Integral evaluation for generally contracted gaussian basis sets)     Author: Roland Lindh, 1990

 Geometry written to block  1 of record 700


 Point group  C1  



 ATOMIC COORDINATES

 NR  ATOM    CHARGE       X              Y              Z

   1  C       6.00    0.000000000    0.000000000    1.285013765
   2  C       6.00    0.000000000   -0.000000000   -1.285013765
   3  H       1.00    0.000000000    1.725319952    2.341370668
   4  H       1.00    0.000000000   -1.725319952    2.341370668
   5  H       1.00    0.000000000    1.725319952   -2.341370668
   6  H       1.00    0.000000000   -1.725319952   -2.341370668

 Bond lengths in Bohr (Angstrom)

 1-2  2.570027529  1-3  2.023022205  1-4  2.023022205  2-5  2.023022205  2-6  2.023022205
     ( 1.360000000)     ( 1.070537248)     ( 1.070537248)     ( 1.070537248)     ( 1.070537248)

 Bond angles

  1-2-5  121.47777088   1-2-6  121.47777088   2-1-3  121.47777088   2-1-4  121.47777088

  3-1-4  117.04445824   5-2-6  117.04445824

 NUCLEAR CHARGE:                   16
 NUMBER OF PRIMITIVE AOS:          72
 NUMBER OF SYMMETRY AOS:           70
 NUMBER OF CONTRACTIONS:           36   (   36A   )
 NUMBER OF CORE ORBITALS:           2   (    2A   )
 NUMBER OF VALENCE ORBITALS:       12   (   12A   )


 NUCLEAR REPULSION ENERGY   33.19786177

 EXTRA SYMMETRY OF AOS IN SYMMETRY 1:   1 1 1 2 1 1 2 1 1 1   3 2 1 1 1 1 1 2 1 1   2 1 1 1 3 2 1 1 1 1   1 1 1 1 1 1

 Eigenvalues of metric

         1 0.891E-02 0.173E-01 0.374E-01 0.459E-01 0.699E-01 0.207E+00 0.211E+00 0.229E+00


 Contracted 2-electron integrals neglected if value below      1.0D-11
 AO integral compression algorithm  1   Integral accuracy      1.0D-11

     0.786 MB (compressed) written to integral file ( 37.7%)


 NUMBER OF SORTED TWO-ELECTRON INTEGRALS:     222111.     BUFFER LENGTH:  32768
 NUMBER OF SEGMENTS:   1  SEGMENT LENGTH:     222111      RECORD LENGTH: 524288

 Memory used in sort:       0.78 MW

 SORT1 READ      284735. AND WROTE       98271. INTEGRALS IN      1 RECORDS. CPU TIME:     0.00 SEC, REAL TIME:     0.00 SEC
 SORT2 READ       98271. AND WROTE      222111. INTEGRALS IN      3 RECORDS. CPU TIME:     0.02 SEC, REAL TIME:     0.02 SEC

 FILE SIZES:   FILE 1:    30.9 MBYTE,  FILE 4:     4.2 MBYTE,   TOTAL:     35.1 MBYTE

 OPERATOR DM      FOR CENTER  0  COORDINATES:    0.000000    0.000000    0.000000


 **********************************************************************************************************************************
 DATASETS  * FILE   NREC   LENGTH (MB)   RECORD NAMES
              1      19       30.63       500      610      700      900      950      970     1000      129      960     1100   
                                          VAR    BASINP    GEOM    SYMINP    ZMAT    AOBASIS   BASIS     P2S    ABASIS      S 
                                         1400     1410     1200     1210     1080     1600     1650     1300     1700   
                                           T        V       H0       H01     AOSYM     SMH    MOLCAS    ERIS     OPER   

 PROGRAMS   *        TOTAL       INT
 CPU TIMES  *         0.30      0.20
 REAL TIME  *         0.50 SEC
 DISK USED  *        35.45 MB
 **********************************************************************************************************************************


 PROGRAM * RHF-SCF (CLOSED SHELL)       Authors: W. Meyer, H.-J. Werner


 NUMBER OF ELECTRONS:       8+    8-    SPACE SYMMETRY=1    SPIN SYMMETRY: Singlet 
 CONVERGENCE THRESHOLDS:    1.00E-05 (Density)    1.00E-07 (Energy)
 MAX. NUMBER OF ITERATIONS:       60
 INTERPOLATION TYPE:            DIIS
 INTERPOLATION STEPS:              2 (START)      1 (STEP)
 LEVEL SHIFTS:                  0.00 (CLOSED)  0.00 (OPEN) 



 Orbital guess generated from atomic densities. Full valence occupancy:    8

 Molecular orbital dump at record        2100.2

 Initial occupancy:   8

 ITERATION    DDIFF          GRAD             ENERGY        2-EL.EN.            DIPOLE MOMENTS         DIIS   ORB.
    1      0.000D+00      0.000D+00       -78.00564594    118.219537    0.00000    0.00000   -0.00000    0    start
    2      0.000D+00      0.837D-02       -78.02690198    116.503849   -0.00000   -0.00000    0.00000    1    diag
    3      0.804D-02      0.279D-02       -78.02887904    117.097483    0.00000    0.00000   -0.00000    2    diag
    4      0.253D-02      0.701D-03       -78.02907990    116.997959    0.00000    0.00000    0.00000    3    diag
    5      0.104D-02      0.656D-04       -78.02908184    117.000760   -0.00000    0.00000    0.00000    4    diag
    6      0.139D-03      0.739D-05       -78.02908187    117.000361   -0.00000    0.00000    0.00000    5    diag
    7      0.135D-04      0.110D-05       -78.02908187    117.000369   -0.00000   -0.00000    0.00000    6    diag
    8      0.159D-05      0.124D-06       -78.02908187    117.000363   -0.00000    0.00000    0.00000    0    orth

 Final occupancy:   8

 !RHF STATE  1.1 Energy               -78.029081869111
 Nuclear energy                        33.19786177
 One-electron energy                 -169.72712537
 Two-electron energy                   58.50018173
 Virial quotient                       -1.00053469
 !RHF STATE  1.1 Dipole moment         -0.00000000     0.00000000     0.00000000
 Dipole moment /Debye                  -0.00000000     0.00000000     0.00000000

 ELECTRON ORBITALS
 =================

  Orbital  Occupation    Energy     Coefficients
    1.1     2.00000   -11.22719     1 1s    0.70422     2 1s    0.70422
    2.1     2.00000   -11.22576     1 1s    0.70453     2 1s   -0.70453
    3.1     2.00000    -1.02140     1 1s    0.30125     2 1s    0.30125
    4.1     2.00000    -0.79617     2 1s   -0.24092
    5.1     2.00000    -0.63881     1 2py   0.32181     2 2py   0.32181
    6.1     2.00000    -0.57875     1 2pz   0.40727     2 2pz  -0.40727
    7.1     2.00000    -0.51141     1 2py   0.30783     2 2py  -0.30783
    8.1     2.00000    -0.36390     1 2px   0.37116     1 2px   0.31223     2 2px   0.37116     2 2px   0.31223
    9.1     0.00000     0.17348     1 2px   0.34407     1 2px   0.72029     2 2px  -0.34407     2 2px  -0.72029
   10.1     0.00000     0.26696     1 1s   -1.50671     1 2pz  -0.64191     2 1s   -1.50671     2 2pz   0.64191     3 1s    1.04726
                                    4 1s    1.04726     5 1s    1.04726     6 1s    1.04726
   11.1     0.00000     0.29785     1 2py  -0.25044     1 2py  -0.82475     2 2py  -0.25044     2 2py  -0.82475     3 1s    1.11695
                                    4 1s   -1.11695     5 1s    1.11695     6 1s   -1.11695
   12.1     0.00000     0.30993     1 1s    1.95215     2 1s   -1.95215     3 1s   -1.07821     4 1s   -1.07821     5 1s    1.07821
                                    6 1s    1.07821
   13.1     0.00000     0.38992     1 2py  -1.86046     2 2py   1.86046     3 1s    1.63747     4 1s   -1.63747     5 1s   -1.63747
                                    6 1s    1.63747
   14.1     0.00000     0.48509     1 1s   -2.74363     1 2pz   2.84919     2 1s    2.74363     2 2pz   2.84919     3 1s   -0.59582
                                    4 1s   -0.59582     5 1s    0.59582     6 1s    0.59582
   15.1     0.00000     0.67589     1 1s    0.28206     1 2pz  -0.56208     1 2pz   1.03420     2 1s    0.28206     2 2pz   0.56208
                                    2 2pz  -1.03420
   16.1     0.00000     0.75679     1 2py  -0.39842     1 2py   0.77961     2 2py  -0.39842     2 2py   0.77961     3 1s   -0.38264
                                    4 1s    0.38264     5 1s   -0.38264     6 1s    0.38264
   17.1     0.00000     0.78188     1 2px  -0.74549     1 2px   0.63966     2 2px  -0.74549     2 2px   0.63966
   18.1     0.00000     0.86205     1 1s   -0.89450     1 1s    1.47066     1 2pz   0.31323     2 1s   -0.89450     2 1s    1.47066
                                    2 2pz  -0.31323     3 1s   -0.39148     4 1s   -0.39148     5 1s   -0.39148     6 1s   -0.39148
   19.1     0.00000     0.88765     1 2px  -0.81634     1 2px   1.06596     2 2px   0.81634     2 2px  -1.06596
   20.1     0.00000     0.93864     1 1s   -0.71371     1 2pz   0.61845     1 2pz  -0.58014     2 1s    0.71371     2 2pz   0.61845
                                    2 2pz  -0.58014     3 1s    0.37159     4 1s    0.37159     5 1s   -0.37159     6 1s   -0.37159
   21.1     0.00000     1.12754     1 2py  -0.69500     1 2py   1.10196     2 2py  -0.69500     2 2py   1.10196     3 1s    0.38511
                                    3 1s   -1.06451     4 1s   -0.38511     4 1s    1.06451     5 1s    0.38511     5 1s   -1.06451
                                    6 1s   -0.38511     6 1s    1.06451
   22.1     0.00000     1.16094     1 2py   0.92443     1 2py  -2.95213     2 2py  -0.92443     2 2py   2.95213     3 1s    1.52877
                                    4 1s   -1.52877     5 1s   -1.52877     6 1s    1.52877
   23.1     0.00000     1.21972     1 1s    1.03800     1 1s   -1.73539     1 2pz   0.36388     1 2pz  -0.49478     2 1s    1.03800
                                    2 1s   -1.73539     2 2pz  -0.36388     2 2pz   0.49478     3 1s   -0.44090     3 1s    0.87025
                                    4 1s   -0.44090     4 1s    0.87025     5 1s   -0.44090     5 1s    0.87025     6 1s   -0.44090
                                    6 1s    0.87025
   24.1     0.00000     1.22366     1 1s   -0.42714     1 2pz  -0.62967     1 2pz   1.33209     2 1s    0.42714     2 2pz  -0.62967
                                    2 2pz   1.33209     3 1s    0.48431     3 1s   -0.94682     4 1s    0.48431     4 1s   -0.94682
                                    5 1s   -0.48431     5 1s    0.94682     6 1s   -0.48431     6 1s    0.94682
   25.1     0.00000     1.32657     1 1s   -1.62157     1 1s    5.27275     1 2pz  -1.76749     2 1s    1.62157     2 1s   -5.27275
                                    2 2pz  -1.76749     3 1s   -0.40464     4 1s   -0.40464     5 1s    0.40464     6 1s    0.40464
   26.1     0.00000     1.46920     1 2py   2.48234     2 2py  -2.48234     3 1s   -0.69563     3 1s   -0.65975     4 1s    0.69563
                                    4 1s    0.65975     5 1s    0.69563     5 1s    0.65975     6 1s   -0.69563     6 1s   -0.65975
   27.1     0.00000     1.73186     1 3d1+  0.62196     2 3d1+ -0.62196
   28.1     0.00000     1.82795     1 3d2-  0.68320     2 3d2-  0.68320
   29.1     0.00000     2.11775     1 3d2-  0.73372     2 3d2- -0.73372
   30.1     0.00000     2.21904     1 1s   -0.61641     1 3d2+  0.70511     2 1s   -0.61641     2 3d2+  0.70511     3 1s    0.36659
                                    4 1s    0.36659     5 1s    0.36659     6 1s    0.36659
   31.1     0.00000     2.33456     1 2py   0.27498     1 3d1-  0.69739     2 2py   0.27498     2 3d1- -0.69739     3 1s   -0.52392
                                    4 1s    0.52392     5 1s   -0.52392     6 1s    0.52392
   32.1     0.00000     2.38630     1 1s   -0.48684     1 2pz   0.27415     1 2pz  -0.44923     1 3d0   0.67203     2 1s   -0.48684
                                    2 2pz  -0.27415     2 2pz   0.44923     2 3d0   0.67203
   33.1     0.00000     2.62348     1 1s    0.28366     1 1s   -1.31202     1 2pz   0.26036     1 3d2+  0.79846     2 1s   -0.28366
                                    2 1s    1.31202     2 2pz   0.26036     2 3d2+ -0.79846     3 1s    0.44994     4 1s    0.44994
                                    5 1s   -0.44994     6 1s   -0.44994
   34.1     0.00000     2.68483     1 2px  -0.26065     1 3d1+  0.88954     2 2px   0.26065     2 3d1+  0.88954
   35.1     0.00000     3.03782     1 1s    1.99177     1 2pz  -0.73800     1 2pz  -1.17132     1 3d0   1.09763     2 1s   -1.99177
                                    2 2pz  -0.73800     2 2pz  -1.17132     2 3d0  -1.09763
   36.1     0.00000     3.04769     1 2py   0.58434     1 3d1-  0.95883     2 2py  -0.58434     2 3d1-  0.95883     3 1s   -0.48612
                                    4 1s    0.48612     5 1s    0.48612     6 1s   -0.48612


 HOMO      8.1    -0.363897 =      -9.9022eV
 LUMO      9.1     0.173482 =       4.7207eV
 LUMO-HOMO         0.537380 =      14.6228eV


 **********************************************************************************************************************************
 DATASETS  * FILE   NREC   LENGTH (MB)   RECORD NAMES
              1      19       30.63       500      610      700      900      950      970     1000      129      960     1100   
                                          VAR    BASINP    GEOM    SYMINP    ZMAT    AOBASIS   BASIS     P2S    ABASIS      S 
                                         1400     1410     1200     1210     1080     1600     1650     1300     1700   
                                           T        V       H0       H01     AOSYM     SMH    MOLCAS    ERIS     OPER   

              2       4        2.86       700     1000      520     2100   
                                         GEOM     BASIS   MCVARS     RHF  

 PROGRAMS   *        TOTAL    HF-SCF       INT
 CPU TIMES  *         0.40      0.11      0.20
 REAL TIME  *         0.62 SEC
 DISK USED  *        35.45 MB
 **********************************************************************************************************************************


 PROGRAM * MULTI (Direct Multiconfiguration SCF)       Authors: P.J. Knowles, H.-J. Werner (1984)


 Number of closed-shell orbitals:   7 (   7 )
 Number of active  orbitals:        2 (   2 )
 Number of external orbitals:      27 (  27 )

 State symmetry 1

 Number of electrons:     2    Spin symmetry=Singlet   Space symmetry=1
 Number of states:        3
 Number of CSFs:          3   (4 determinants, 4 intermediate states)

 Molecular orbitals read from record     2100.2  Type=RHF/CANONICAL (state 1.1)

 EXTRA SYMMETRY OF MOS IN SYMMETRY 1:   1 1 1 1 1 1 1 2 2 1   1 1 1 1 1 1 2 1 2 1   1 1 1 1 1 1 2 3 3 1   1 1 1 2 1 1

 Wavefunction dump at record             2140.2

 Convergence thresholds  0.10E-01 (gradient)  0.10E-05 (energy)  0.10E-02 (step length)

 Weight factors for state symmetry  1:    0.33333   0.33333   0.33333

 Number of orbital rotations:      257   (    14 Core/Active    189 Core/Virtual   0 Active/Active     54 Active/Virtual)
 Total number of variables:        269

 Micro-Iterations solved by the two-step solver

 ITER. MIC  NCI  NEG     ENERGY(VAR)     ENERGY(PROJ)   ENERGY CHANGE     GRAD(0)  GRAD(ORB)   GRAD(CI)     STEP       TIME

   1    3    3    0     -77.73631740     -77.74217690   -0.00585950    0.12810887 0.00000130 0.00000000  0.61D-01      0.06
   2    2    3    0     -77.74208963     -77.74209283   -0.00000320    0.00280765 0.00000157 0.00000000  0.15D-02      0.09
   3    2    3    0     -77.74209283     -77.74209283   -0.00000000    0.00000182 0.00000000 0.00000000  0.11D-05      0.12

 ** WVFN ****  CONVERGENCE REACHED, FINAL GRADIENT:  0.89D-12



 Results for state 1.1
 =====================

 !MCSCF STATE  1.1 Energy             -78.048055953638
 Nuclear energy                        33.19786177
 Kinetic energy                        78.04665404
 One electron energy                 -169.83753762
 Two electron energy                   58.59161990
 Virial ratio                           2.00001796

 !MCSCF STATE  1.1 Dipole moment        0.00000000    -0.00000000    -0.00000000
 Dipole moment /Debye                   0.00000000    -0.00000000    -0.00000000

 Results for state 2.1
 =====================

 !MCSCF STATE  2.1 Energy             -77.677649765410
 Nuclear energy                        33.19786177
 Kinetic energy                        78.23423803
 One electron energy                 -169.30812404
 Two electron energy                   58.43261251
 Virial ratio                           1.99288562

 !MCSCF STATE  2.1 Dipole moment        0.00000000    -0.00000000    -0.00000000
 Dipole moment /Debye                   0.00000000    -0.00000000    -0.00000000

 Results for state 3.1
 =====================

 !MCSCF STATE  3.1 Energy             -77.500572761999
 Nuclear energy                        33.19786177
 Kinetic energy                        78.42182202
 One electron energy                 -168.77871046
 Two electron energy                   58.08027593
 Virial ratio                           1.98825264

 !MCSCF STATE  3.1 Dipole moment        0.00000000    -0.00000000     0.00000000
 Dipole moment /Debye                   0.00000000    -0.00000000     0.00000000

 State-averaged charge density matrix saved on record  2140.2 (density set 1)

 !MCSCF trans         <2.1|DMZ|1.1>    -1.512030836811 au =    -3.842947334222 Debye
 !MCSCF trans         <3.1|DMZ|2.1>    -2.315155479144 au =    -5.884152862683 Debye


 NATURAL ORBITALS (state averaged)
 =================================

  Orbital  Occupation    Energy     Coefficients
    1.1     2.00000   -11.24137     1 1s    0.70423     2 1s    0.70423
    2.1     2.00000   -11.24020     1 1s    0.70449     2 1s   -0.70449
    3.1     2.00000    -1.03473     1 1s    0.30909     2 1s    0.30909
    4.1     2.00000    -0.80350     1 1s    0.28383     2 1s   -0.28383
    5.1     2.00000    -0.65076     1 2py   0.32704     2 2py   0.32704
    6.1     2.00000    -0.59337     1 2pz   0.40915     2 2pz  -0.40915
    7.1     2.00000    -0.51762     1 2py   0.31386     2 2py  -0.31386
    8.1     1.00000     0.02961     1 2px   0.38045     1 2px   0.67549     2 2px  -0.38045     2 2px  -0.67549
    9.1     1.00000    -0.22104     1 2px   0.35534     1 2px   0.32399     2 2px   0.35534     2 2px   0.32399
   10.1    -0.00000     0.26439     1 1s   -1.50306     1 2pz  -0.64793     2 1s   -1.50306     2 2pz   0.64793     3 1s    1.04689
                                    4 1s    1.04689     5 1s    1.04689     6 1s    1.04689
   11.1    -0.00000     0.28988     1 2py  -0.81627     2 2py  -0.81627     3 1s    1.10907     4 1s   -1.10907     5 1s    1.10907
                                    6 1s   -1.10907
   12.1    -0.00000     0.30695     1 1s    1.97750     2 1s   -1.97750     3 1s   -1.07214     4 1s   -1.07214     5 1s    1.07214
                                    6 1s    1.07214
   13.1    -0.00000     0.38611     1 2py  -0.25045     1 2py  -1.84736     2 2py   0.25045     2 2py   1.84736     3 1s    1.63113
                                    4 1s   -1.63113     5 1s   -1.63113     6 1s    1.63113
   14.1    -0.00000     0.48209     1 1s   -2.71724     1 2pz   2.82930     2 1s    2.71724     2 2pz   2.82930     3 1s   -0.60640
                                    4 1s   -0.60640     5 1s    0.60640     6 1s    0.60640
   15.1    -0.00000     0.66523     1 2pz  -0.55542     1 2pz   1.01102     2 2pz   0.55542     2 2pz  -1.01102
   16.1    -0.00000     0.74657     1 2py  -0.40922     1 2py   0.78539     2 2py  -0.40922     2 2py   0.78539     3 1s   -0.37839
                                    4 1s    0.37839     5 1s   -0.37839     6 1s    0.37839
   17.1    -0.00000     0.77613     1 2px  -0.75239     1 2px   0.63409     2 2px  -0.75239     2 2px   0.63409
   18.1    -0.00000     0.85921     1 1s   -0.88850     1 1s    1.49756     1 2pz   0.36238     2 1s   -0.88850     2 1s    1.49756
                                    2 2pz  -0.36238     3 1s   -0.39389     4 1s   -0.39389     5 1s   -0.39389     6 1s   -0.39389
   19.1    -0.00000     0.87082     1 2px  -0.80120     1 2px   1.09475     2 2px   0.80120     2 2px  -1.09475
   20.1    -0.00000     0.92070     1 1s   -0.56471     1 2pz   0.62133     1 2pz  -0.66026     2 1s    0.56471     2 2pz   0.62133
                                    2 2pz  -0.66026     3 1s    0.37236     4 1s    0.37236     5 1s   -0.37236     6 1s   -0.37236
   21.1    -0.00000     1.11278     1 2py  -0.68413     1 2py   1.10395     2 2py  -0.68413     2 2py   1.10395     3 1s    0.38546
                                    3 1s   -1.07306     4 1s   -0.38546     4 1s    1.07306     5 1s    0.38546     5 1s   -1.07306
                                    6 1s   -0.38546     6 1s    1.07306
   22.1    -0.00000     1.14915     1 2py   0.92164     1 2py  -2.95686     2 2py  -0.92164     2 2py   2.95686     3 1s    1.53628
                                    4 1s   -1.53628     5 1s   -1.53628     6 1s    1.53628
   23.1    -0.00000     1.21689     1 1s    1.03312     1 1s   -1.73129     1 2pz   0.36777     1 2pz  -0.50044     2 1s    1.03312
                                    2 1s   -1.73129     2 2pz  -0.36777     2 2pz   0.50044     3 1s   -0.44138     3 1s    0.86970
                                    4 1s   -0.44138     4 1s    0.86970     5 1s   -0.44138     5 1s    0.86970     6 1s   -0.44138
                                    6 1s    0.86970
   24.1    -0.00000     1.22096     1 1s   -0.33401     1 2pz  -0.64463     1 2pz   1.43212     2 1s    0.33401     2 2pz  -0.64463
                                    2 2pz   1.43212     3 1s    0.48702     3 1s   -0.92195     4 1s    0.48702     4 1s   -0.92195
                                    5 1s   -0.48702     5 1s    0.92195     6 1s   -0.48702     6 1s    0.92195
   25.1    -0.00000     1.30825     1 1s   -1.64480     1 1s    5.28449     1 2pz  -1.68524     2 1s    1.64480     2 1s   -5.28449
                                    2 2pz  -1.68524     3 1s   -0.46034     4 1s   -0.46034     5 1s    0.46034     6 1s    0.46034
   26.1    -0.00000     1.46081     1 2py   2.48523     2 2py  -2.48523     3 1s   -0.69450     3 1s   -0.66069     4 1s    0.69450
                                    4 1s    0.66069     5 1s    0.69450     5 1s    0.66069     6 1s   -0.69450     6 1s   -0.66069
   27.1    -0.00000     1.70754     1 3d1+  0.62174     2 3d1+ -0.62174
   28.1    -0.00000     1.81507     1 3d2-  0.68320     2 3d2-  0.68320
   29.1    -0.00000     2.09568     1 3d2-  0.73372     2 3d2- -0.73372
   30.1    -0.00000     2.20451     1 1s   -0.61223     1 3d2+  0.70407     2 1s   -0.61223     2 3d2+  0.70407     3 1s    0.36788
                                    4 1s    0.36788     5 1s    0.36788     6 1s    0.36788
   31.1    -0.00000     2.31921     1 2py   0.28181     1 3d1-  0.69565     2 2py   0.28181     2 3d1- -0.69565     3 1s   -0.52724
                                    4 1s    0.52724     5 1s   -0.52724     6 1s    0.52724
   32.1    -0.00000     2.36698     1 1s   -0.48445     1 2pz   0.27951     1 2pz  -0.45249     1 3d0   0.67130     2 1s   -0.48445
                                    2 2pz  -0.27951     2 2pz   0.45249     2 3d0   0.67130
   33.1    -0.00000     2.60473     1 1s    0.28439     1 1s   -1.31742     1 2pz   0.25907     1 3d2+  0.79773     2 1s   -0.28439
                                    2 1s    1.31742     2 2pz   0.25907     2 3d2+ -0.79773     3 1s    0.45293     4 1s    0.45293
                                    5 1s   -0.45293     6 1s   -0.45293
   34.1    -0.00000     2.66304     1 2px  -0.26126     1 3d1+  0.88991     2 2px   0.26126     2 3d1+  0.88991
   35.1    -0.00000     3.02091     1 1s    2.01569     1 2pz  -0.73071     1 2pz  -1.18382     1 3d0   1.09911     2 1s   -2.01569
                                    2 2pz  -0.73071     2 2pz  -1.18382     2 3d0  -1.09911
   36.1    -0.00000     3.03552     1 2py   0.58448     1 3d1-  0.95842     2 2py  -0.58448     2 3d1-  0.95842     3 1s   -0.48839
                                    4 1s    0.48839     5 1s    0.48839     6 1s   -0.48839


 Natural orbital dump (state averaged) at molpro section  2140.2    (Orbital set 2)



 **********************************************************************************************************************************
 DATASETS  * FILE   NREC   LENGTH (MB)   RECORD NAMES
              1      20       31.36       500      610      700      900      950      970     1000      129      960     1100   
                                          VAR    BASINP    GEOM    SYMINP    ZMAT    AOBASIS   BASIS     P2S    ABASIS      S 
                                         1400     1410     1200     1210     1080     1600     1650     1300     1700     1380   
                                           T        V       H0       H01     AOSYM     SMH    MOLCAS    ERIS     OPER     JKOP   

              2       5        5.42       700     1000      520     2100     2140   
                                         GEOM     BASIS   MCVARS     RHF     MCSCF   

 PROGRAMS   *        TOTAL     MULTI    HF-SCF       INT
 CPU TIMES  *         0.55      0.15      0.11      0.20
 REAL TIME  *         0.80 SEC
 DISK USED  *        38.54 MB
 **********************************************************************************************************************************
 Molecular orbitals read from record     2140.2  Type=MCSCF/NATURAL (state averaged)
 Occupation numbers read from record     2140.2  Type=MCSCF/NATURAL (state averaged)
 Orbital energies read from record       2140.2  Type=MCSCF/NATURAL (state averaged)
 Redundancy group numbers read from rec  2140.2  Type=MCSCF/NATURAL (state averaged)

 MULTI/6-31G* energy=    -77.500572761999

           MULTI          HF-SCF
    -77.50057276    -78.02908187
 **********************************************************************************************************************************
 Molpro calculation terminated
