
 Primary working directories    : /scratch.local/johan406.molpro_temp/molpro.TKrnYIMUCY
 Secondary working directories  : /scratch.local/johan406.molpro_temp/molpro.TKrnYIMUCY
 Wavefunction directory         : /home/goodpast/johan406/wfu/
 Main file repository           : /scratch.local/johan406.molpro_temp/molpro.TKrnYIMUCY/

 id        : roweumn

 Nodes     nprocs
 cn0416       1

 Using customized tuning parameters: mindgm=1; mindgv=20; mindgc=4; mindgr=1; noblas=0; minvec=7
 default implementation of scratch files=df  


 Variables initialized (934), CPU time= 0.00 sec
                                                                                 !leave this line blank
 
 gprint, orbitals=30
 memory, 125., m
 symmetry, nosym
 nelect=16
 basis=6-31g*
 
 geometry={
 C 0.000 0.000 0.681
 C 0.000 -0.000 -0.681
 H 0.000 0.913 1.238
 H 0.000 -0.913 1.238
 H 0.000 0.913 -1.238
 H 0.000 -0.913 -1.238
 }
 
 hf
 {multi,
 closed 7
 occ 9
 wf,spin=0;STATE,3
 }
 
 Commands  initialized (763), CPU time= 0.00 sec, 617 directives.
 Default parameters read. Elapsed time= 0.05 sec

 Checking input...
 Passed
1


                                         ***  PROGRAM SYSTEM MOLPRO  ***
                                       Copyright, TTI GmbH Stuttgart, 2015
                                    Version 2019.2 linked Oct 25 2019 22:50:27


 **********************************************************************************************************************************
 LABEL *                                                                                 
  64 bit serial version                                                                  DATE: 15-Mar-23          TIME: 16:39:23  
 **********************************************************************************************************************************

 SHA1:             8dbd9ae1082e4ce945b0f27595c9eb2d4aa09004
 **********************************************************************************************************************************


 Variable memory set to  125000000 words,  buffer space 

 SETTING NELECT         =        16.00000000                                  
 SETTING BASIS          =    6-31G*
 ZSYMEL=NOSYM


Geometry recognized as XYZ



 Recomputing integrals since basis changed


 Using spherical harmonics

 Library entry C      S 6-31G                selected for orbital group  1
 Library entry C      P 6-31G                selected for orbital group  1
 Library entry C      D 6-31G*               selected for orbital group  1
 Library entry H      S 6-31G                selected for orbital group  2


 PROGRAM * SEWARD (Integral evaluation for generally contracted gaussian basis sets)     Author: Roland Lindh, 1990

 Geometry written to block  1 of record 700


 Point group  C1  



 ATOMIC COORDINATES

 NR  ATOM    CHARGE       X              Y              Z

   1  C       6.00    0.000000000    0.000000000    1.286903491
   2  C       6.00    0.000000000   -0.000000000   -1.286903491
   3  H       1.00    0.000000000    1.725319952    2.339480942
   4  H       1.00    0.000000000   -1.725319952    2.339480942
   5  H       1.00    0.000000000    1.725319952   -2.339480942
   6  H       1.00    0.000000000   -1.725319952   -2.339480942

 Bond lengths in Bohr (Angstrom)

 1-2  2.573806982  1-3  2.021051268  1-4  2.021051268  2-5  2.021051268  2-6  2.021051268
     ( 1.362000000)     ( 1.069494273)     ( 1.069494273)     ( 1.069494273)     ( 1.069494273)

 Bond angles

  1-2-5  121.38639253   1-2-6  121.38639253   2-1-3  121.38639253   2-1-4  121.38639253

  3-1-4  117.22721495   5-2-6  117.22721495

 NUCLEAR CHARGE:                   16
 NUMBER OF PRIMITIVE AOS:          72
 NUMBER OF SYMMETRY AOS:           70
 NUMBER OF CONTRACTIONS:           36   (   36A   )
 NUMBER OF CORE ORBITALS:           2   (    2A   )
 NUMBER OF VALENCE ORBITALS:       12   (   12A   )


 NUCLEAR REPULSION ENERGY   33.18938675

 EXTRA SYMMETRY OF AOS IN SYMMETRY 1:   1 1 1 2 1 1 2 1 1 1   3 2 1 1 1 1 1 2 1 1   2 1 1 1 3 2 1 1 1 1   1 1 1 1 1 1

 Eigenvalues of metric

         1 0.896E-02 0.173E-01 0.374E-01 0.459E-01 0.696E-01 0.208E+00 0.211E+00 0.229E+00


 Contracted 2-electron integrals neglected if value below      1.0D-11
 AO integral compression algorithm  1   Integral accuracy      1.0D-11

     0.786 MB (compressed) written to integral file ( 37.7%)


 NUMBER OF SORTED TWO-ELECTRON INTEGRALS:     222111.     BUFFER LENGTH:  32768
 NUMBER OF SEGMENTS:   1  SEGMENT LENGTH:     222111      RECORD LENGTH: 524288

 Memory used in sort:       0.78 MW

 SORT1 READ      284735. AND WROTE       98271. INTEGRALS IN      1 RECORDS. CPU TIME:     0.00 SEC, REAL TIME:     0.01 SEC
 SORT2 READ       98271. AND WROTE      222111. INTEGRALS IN      3 RECORDS. CPU TIME:     0.02 SEC, REAL TIME:     0.02 SEC

 FILE SIZES:   FILE 1:    30.9 MBYTE,  FILE 4:     4.2 MBYTE,   TOTAL:     35.1 MBYTE

 OPERATOR DM      FOR CENTER  0  COORDINATES:    0.000000    0.000000    0.000000


 **********************************************************************************************************************************
 DATASETS  * FILE   NREC   LENGTH (MB)   RECORD NAMES
              1      19       30.63       500      610      700      900      950      970     1000      129      960     1100   
                                          VAR    BASINP    GEOM    SYMINP    ZMAT    AOBASIS   BASIS     P2S    ABASIS      S 
                                         1400     1410     1200     1210     1080     1600     1650     1300     1700   
                                           T        V       H0       H01     AOSYM     SMH    MOLCAS    ERIS     OPER   

 PROGRAMS   *        TOTAL       INT
 CPU TIMES  *         0.30      0.22
 REAL TIME  *         0.49 SEC
 DISK USED  *        35.45 MB
 **********************************************************************************************************************************


 PROGRAM * RHF-SCF (CLOSED SHELL)       Authors: W. Meyer, H.-J. Werner


 NUMBER OF ELECTRONS:       8+    8-    SPACE SYMMETRY=1    SPIN SYMMETRY: Singlet 
 CONVERGENCE THRESHOLDS:    1.00E-05 (Density)    1.00E-07 (Energy)
 MAX. NUMBER OF ITERATIONS:       60
 INTERPOLATION TYPE:            DIIS
 INTERPOLATION STEPS:              2 (START)      1 (STEP)
 LEVEL SHIFTS:                  0.00 (CLOSED)  0.00 (OPEN) 



 Orbital guess generated from atomic densities. Full valence occupancy:    8

 Molecular orbital dump at record        2100.2

 Initial occupancy:   8

 ITERATION    DDIFF          GRAD             ENERGY        2-EL.EN.            DIPOLE MOMENTS         DIIS   ORB.
    1      0.000D+00      0.000D+00       -78.00547744    118.194356    0.00000    0.00000    0.00000    0    start
    2      0.000D+00      0.835D-02       -78.02668427    116.489111    0.00000    0.00000    0.00000    1    diag
    3      0.803D-02      0.278D-02       -78.02864821    117.079306    0.00000    0.00000   -0.00000    2    diag
    4      0.252D-02      0.699D-03       -78.02884809    116.979820   -0.00000    0.00000    0.00000    3    diag
    5      0.103D-02      0.653D-04       -78.02885002    116.982600    0.00000    0.00000   -0.00000    4    diag
    6      0.139D-03      0.729D-05       -78.02885005    116.982206   -0.00000   -0.00000    0.00000    5    diag
    7      0.132D-04      0.108D-05       -78.02885005    116.982214   -0.00000   -0.00000    0.00000    6    diag
    8      0.156D-05      0.121D-06       -78.02885005    116.982208    0.00000   -0.00000    0.00000    0    orth

 Final occupancy:   8

 !RHF STATE  1.1 Energy               -78.028850046283
 Nuclear energy                        33.18938675
 One-electron energy                 -169.70934097
 Two-electron energy                   58.49110418
 Virial quotient                       -1.00052161
 !RHF STATE  1.1 Dipole moment          0.00000000    -0.00000000     0.00000000
 Dipole moment /Debye                   0.00000000    -0.00000000     0.00000000

 ELECTRON ORBITALS
 =================

  Orbital  Occupation    Energy     Coefficients
    1.1     2.00000   -11.22718     1 1s    0.70422     2 1s    0.70422
    2.1     2.00000   -11.22576     1 1s    0.70452     2 1s   -0.70452
    3.1     2.00000    -1.02105     1 1s    0.30113     2 1s    0.30113
    4.1     2.00000    -0.79657     2 1s   -0.24121
    5.1     2.00000    -0.63927     1 2py   0.32185     2 2py   0.32185
    6.1     2.00000    -0.57809     1 2pz   0.40737     2 2pz  -0.40737
    7.1     2.00000    -0.51227     1 2py   0.30819     2 2py  -0.30819
    8.1     2.00000    -0.36338     1 2px   0.37094     1 2px   0.31265     2 2px   0.37094     2 2px   0.31265
    9.1     0.00000     0.17305     1 2px   0.34423     1 2px   0.71909     2 2px  -0.34423     2 2px  -0.71909
   10.1     0.00000     0.26696     1 1s   -1.50790     1 2pz  -0.64048     2 1s   -1.50790     2 2pz   0.64048     3 1s    1.04763
                                    4 1s    1.04763     5 1s    1.04763     6 1s    1.04763
   11.1     0.00000     0.29837     1 2py  -0.25023     1 2py  -0.82773     2 2py  -0.25023     2 2py  -0.82773     3 1s    1.12017
                                    4 1s   -1.12017     5 1s    1.12017     6 1s   -1.12017
   12.1     0.00000     0.31026     1 1s    1.95710     2 1s   -1.95710     3 1s   -1.07922     4 1s   -1.07922     5 1s    1.07922
                                    6 1s    1.07922
   13.1     0.00000     0.38980     1 2py  -1.86175     2 2py   1.86175     3 1s    1.64052     4 1s   -1.64052     5 1s   -1.64052
                                    6 1s    1.64052
   14.1     0.00000     0.48433     1 1s   -2.71811     1 2pz   2.83603     2 1s    2.71811     2 2pz   2.83603     3 1s   -0.59506
                                    4 1s   -0.59506     5 1s    0.59506     6 1s    0.59506
   15.1     0.00000     0.67629     1 1s    0.28699     1 2pz  -0.56225     1 2pz   1.03328     2 1s    0.28699     2 2pz   0.56225
                                    2 2pz  -1.03328
   16.1     0.00000     0.75665     1 2py  -0.39818     1 2py   0.78286     2 2py  -0.39818     2 2py   0.78286     3 1s   -0.38227
                                    4 1s    0.38227     5 1s   -0.38227     6 1s    0.38227
   17.1     0.00000     0.78234     1 2px  -0.74595     1 2px   0.63966     2 2px  -0.74595     2 2px   0.63966
   18.1     0.00000     0.86180     1 1s   -0.89541     1 1s    1.46927     1 2pz   0.30606     2 1s   -0.89541     2 1s    1.46927
                                    2 2pz  -0.30606     3 1s   -0.39065     4 1s   -0.39065     5 1s   -0.39065     6 1s   -0.39065
   19.1     0.00000     0.88747     1 2px  -0.81615     1 2px   1.06524     2 2px   0.81615     2 2px  -1.06524
   20.1     0.00000     0.93744     1 1s   -0.70872     1 2pz   0.62027     1 2pz  -0.58485     2 1s    0.70872     2 2pz   0.62027
                                    2 2pz  -0.58485     3 1s    0.37008     4 1s    0.37008     5 1s   -0.37008     6 1s   -0.37008
   21.1     0.00000     1.12909     1 2py   0.69586     1 2py  -1.10319     2 2py   0.69586     2 2py  -1.10319     3 1s   -0.38543
                                    3 1s    1.06530     4 1s    0.38543     4 1s   -1.06530     5 1s   -0.38543     5 1s    1.06530
                                    6 1s    0.38543     6 1s   -1.06530
   22.1     0.00000     1.16134     1 2py   0.92461     1 2py  -2.96002     2 2py  -0.92461     2 2py   2.96002     3 1s    1.53396
                                    4 1s   -1.53396     5 1s   -1.53396     6 1s    1.53396
   23.1     0.00000     1.22024     1 1s    1.03848     1 1s   -1.73704     1 2pz   0.36375     1 2pz  -0.49436     2 1s    1.03848
                                    2 1s   -1.73704     2 2pz  -0.36375     2 2pz   0.49436     3 1s   -0.44077     3 1s    0.87072
                                    4 1s   -0.44077     4 1s    0.87072     5 1s   -0.44077     5 1s    0.87072     6 1s   -0.44077
                                    6 1s    0.87072
   24.1     0.00000     1.22386     1 1s   -0.41232     1 2pz  -0.62979     1 2pz   1.34739     2 1s    0.41232     2 2pz  -0.62979
                                    2 2pz   1.34739     3 1s    0.48606     3 1s   -0.94351     4 1s    0.48606     4 1s   -0.94351
                                    5 1s   -0.48606     5 1s    0.94351     6 1s   -0.48606     6 1s    0.94351
   25.1     0.00000     1.32566     1 1s   -1.62565     1 1s    5.26639     1 2pz  -1.75123     2 1s    1.62565     2 1s   -5.26639
                                    2 2pz  -1.75123     3 1s   -0.41526     4 1s   -0.41526     5 1s    0.41526     6 1s    0.41526
   26.1     0.00000     1.47073     1 2py   2.48048     2 2py  -2.48048     3 1s   -0.69628     3 1s   -0.66127     4 1s    0.69628
                                    4 1s    0.66127     5 1s    0.69628     5 1s    0.66127     6 1s   -0.69628     6 1s   -0.66127
   27.1     0.00000     1.73134     1 3d1+  0.62224     2 3d1+ -0.62224
   28.1     0.00000     1.82841     1 3d2-  0.68337     2 3d2-  0.68337
   29.1     0.00000     2.11672     1 3d2-  0.73350     2 3d2- -0.73350
   30.1     0.00000     2.22059     1 1s   -0.61702     1 3d2+  0.70332     2 1s   -0.61702     2 3d2+  0.70332     3 1s    0.36511
                                    4 1s    0.36511     5 1s    0.36511     6 1s    0.36511
   31.1     0.00000     2.33517     1 2py   0.27504     1 3d1-  0.69798     2 2py   0.27504     2 3d1- -0.69798     3 1s   -0.52477
                                    4 1s    0.52477     5 1s   -0.52477     6 1s    0.52477
   32.1     0.00000     2.38504     1 1s   -0.48430     1 2pz   0.27225     1 2pz  -0.44939     1 3d0   0.66946     2 1s   -0.48430
                                    2 2pz  -0.27225     2 2pz   0.44939     2 3d0   0.66946
   33.1     0.00000     2.62491     1 1s    0.28287     1 1s   -1.31685     1 2pz   0.26468     1 3d2+  0.79878     2 1s   -0.28287
                                    2 1s    1.31685     2 2pz   0.26468     2 3d2+ -0.79878     3 1s    0.45133     4 1s    0.45133
                                    5 1s   -0.45133     6 1s   -0.45133
   34.1     0.00000     2.68280     1 2px  -0.26028     1 3d1+  0.88838     2 2px   0.26028     2 3d1+  0.88838
   35.1     0.00000     3.03578     1 1s    1.98631     1 2pz  -0.73315     1 2pz  -1.16904     1 3d0   1.09629     2 1s   -1.98631
                                    2 2pz  -0.73315     2 2pz  -1.16904     2 3d0  -1.09629
   36.1     0.00000     3.04519     1 2py   0.58853     1 3d1-  0.95761     2 2py  -0.58853     2 3d1-  0.95761     3 1s   -0.48708
                                    4 1s    0.48708     5 1s    0.48708     6 1s   -0.48708


 HOMO      8.1    -0.363376 =      -9.8880eV
 LUMO      9.1     0.173053 =       4.7090eV
 LUMO-HOMO         0.536429 =      14.5970eV


 **********************************************************************************************************************************
 DATASETS  * FILE   NREC   LENGTH (MB)   RECORD NAMES
              1      19       30.63       500      610      700      900      950      970     1000      129      960     1100   
                                          VAR    BASINP    GEOM    SYMINP    ZMAT    AOBASIS   BASIS     P2S    ABASIS      S 
                                         1400     1410     1200     1210     1080     1600     1650     1300     1700   
                                           T        V       H0       H01     AOSYM     SMH    MOLCAS    ERIS     OPER   

              2       4        2.86       700     1000      520     2100   
                                         GEOM     BASIS   MCVARS     RHF  

 PROGRAMS   *        TOTAL    HF-SCF       INT
 CPU TIMES  *         0.39      0.09      0.22
 REAL TIME  *         0.62 SEC
 DISK USED  *        35.45 MB
 **********************************************************************************************************************************


 PROGRAM * MULTI (Direct Multiconfiguration SCF)       Authors: P.J. Knowles, H.-J. Werner (1984)


 Number of closed-shell orbitals:   7 (   7 )
 Number of active  orbitals:        2 (   2 )
 Number of external orbitals:      27 (  27 )

 State symmetry 1

 Number of electrons:     2    Spin symmetry=Singlet   Space symmetry=1
 Number of states:        3
 Number of CSFs:          3   (4 determinants, 4 intermediate states)

 Molecular orbitals read from record     2100.2  Type=RHF/CANONICAL (state 1.1)

 EXTRA SYMMETRY OF MOS IN SYMMETRY 1:   1 1 1 1 1 1 1 2 2 1   1 1 1 1 1 1 2 1 2 1   1 1 1 1 1 1 2 3 3 1   1 1 1 2 1 1

 Wavefunction dump at record             2140.2

 Convergence thresholds  0.10E-01 (gradient)  0.10E-05 (energy)  0.10E-02 (step length)

 Weight factors for state symmetry  1:    0.33333   0.33333   0.33333

 Number of orbital rotations:      257   (    14 Core/Active    189 Core/Virtual   0 Active/Active     54 Active/Virtual)
 Total number of variables:        269

 Micro-Iterations solved by the two-step solver

 ITER. MIC  NCI  NEG     ENERGY(VAR)     ENERGY(PROJ)   ENERGY CHANGE     GRAD(0)  GRAD(ORB)   GRAD(CI)     STEP       TIME

   1    3    3    0     -77.73684238     -77.74266581   -0.00582343    0.12769178 0.00000128 0.00000000  0.61D-01      0.05
   2    2    3    0     -77.74257960     -77.74258274   -0.00000314    0.00278500 0.00000155 0.00000000  0.15D-02      0.08
   3    2    3    0     -77.74258275     -77.74258275   -0.00000000    0.00000179 0.00000000 0.00000000  0.11D-05      0.11

 ** WVFN ****  CONVERGENCE REACHED, FINAL GRADIENT:  0.86D-12



 Results for state 1.1
 =====================

 !MCSCF STATE  1.1 Energy             -78.047944740049
 Nuclear energy                        33.18938675
 Kinetic energy                        78.04666801
 One electron energy                 -169.81763087
 Two electron energy                   58.58029939
 Virial ratio                           2.00001636

 !MCSCF STATE  1.1 Dipole moment        0.00000000    -0.00000000    -0.00000000
 Dipole moment /Debye                   0.00000000    -0.00000000    -0.00000000

 Results for state 2.1
 =====================

 !MCSCF STATE  2.1 Energy             -77.678034441418
 Nuclear energy                        33.18938675
 Kinetic energy                        78.23495099
 One electron energy                 -169.29210094
 Two electron energy                   58.42467975
 Virial ratio                           1.99288149

 !MCSCF STATE  2.1 Dipole moment        0.00000000    -0.00000000    -0.00000000
 Dipole moment /Debye                   0.00000000    -0.00000000    -0.00000000

 Results for state 3.1
 =====================

 !MCSCF STATE  3.1 Energy             -77.501769055761
 Nuclear energy                        33.18938675
 Kinetic energy                        78.42323398
 One electron energy                 -168.76657101
 Two electron energy                   58.07541521
 Virial ratio                           1.98825010

 !MCSCF STATE  3.1 Dipole moment        0.00000000    -0.00000000    -0.00000000
 Dipole moment /Debye                   0.00000000    -0.00000000    -0.00000000

 State-averaged charge density matrix saved on record  2140.2 (density set 1)

 !MCSCF trans         <2.1|DMZ|1.1>    -1.512169305627 au =    -3.843299263796 Debye
 !MCSCF trans         <3.1|DMZ|2.1>    -2.319009370556 au =    -5.893947836019 Debye


 NATURAL ORBITALS (state averaged)
 =================================

  Orbital  Occupation    Energy     Coefficients
    1.1     2.00000   -11.24123     1 1s    0.70423     2 1s    0.70423
    2.1     2.00000   -11.24008     1 1s    0.70448     2 1s   -0.70448
    3.1     2.00000    -1.03425     1 1s    0.30895     2 1s    0.30895
    4.1     2.00000    -0.80387     1 1s    0.28347     2 1s   -0.28347
    5.1     2.00000    -0.65116     1 2py   0.32703     2 2py   0.32703
    6.1     2.00000    -0.59268     1 2pz   0.40927     2 2pz  -0.40927
    7.1     2.00000    -0.51846     1 2py   0.31417     2 2py  -0.31417
    8.1     1.00000     0.02927     1 2px   0.38047     1 2px   0.67448     2 2px  -0.38047     2 2px  -0.67448
    9.1     1.00000    -0.22063     1 2px   0.35508     1 2px   0.32444     2 2px   0.35508     2 2px   0.32444
   10.1    -0.00000     0.26440     1 1s   -1.50425     1 2pz  -0.64652     2 1s   -1.50425     2 2pz   0.64652     3 1s    1.04725
                                    4 1s    1.04725     5 1s    1.04725     6 1s    1.04725
   11.1    -0.00000     0.29045     1 2py  -0.81936     2 2py  -0.81936     3 1s    1.11234     4 1s   -1.11234     5 1s    1.11234
                                    6 1s   -1.11234
   12.1    -0.00000     0.30729     1 1s    1.98252     2 1s   -1.98252     3 1s   -1.07313     4 1s   -1.07313     5 1s    1.07313
                                    6 1s    1.07313
   13.1    -0.00000     0.38602     1 2py  -0.25007     1 2py  -1.84877     2 2py   0.25007     2 2py   1.84877     3 1s    1.63423
                                    4 1s   -1.63423     5 1s   -1.63423     6 1s    1.63423
   14.1    -0.00000     0.48133     1 1s   -2.69149     1 2pz   2.81610     2 1s    2.69149     2 2pz   2.81610     3 1s   -0.60575
                                    4 1s   -0.60575     5 1s    0.60575     6 1s    0.60575
   15.1    -0.00000     0.66576     1 2pz  -0.55583     1 2pz   1.01031     2 2pz   0.55583     2 2pz  -1.01031
   16.1    -0.00000     0.74643     1 2py  -0.40891     1 2py   0.78844     2 2py  -0.40891     2 2py   0.78844     3 1s   -0.37807
                                    4 1s    0.37807     5 1s   -0.37807     6 1s    0.37807
   17.1    -0.00000     0.77660     1 2px  -0.75287     1 2px   0.63406     2 2px  -0.75287     2 2px   0.63406
   18.1    -0.00000     0.85890     1 1s   -0.88956     1 1s    1.49662     1 2pz   0.35555     2 1s   -0.88956     2 1s    1.49662
                                    2 2pz  -0.35555     3 1s   -0.39319     4 1s   -0.39319     5 1s   -0.39319     6 1s   -0.39319
   19.1    -0.00000     0.87071     1 2px  -0.80104     1 2px   1.09389     2 2px   0.80104     2 2px  -1.09389
   20.1    -0.00000     0.91955     1 1s   -0.56064     1 2pz   0.62296     1 2pz  -0.66431     2 1s    0.56064     2 2pz   0.62296
                                    2 2pz  -0.66431     3 1s    0.37097     4 1s    0.37097     5 1s   -0.37097     6 1s   -0.37097
   21.1    -0.00000     1.11438     1 2py   0.68508     1 2py  -1.10524     2 2py   0.68508     2 2py  -1.10524     3 1s   -0.38573
                                    3 1s    1.07381     4 1s    0.38573     4 1s   -1.07381     5 1s   -0.38573     5 1s    1.07381
                                    6 1s    0.38573     6 1s   -1.07381
   22.1    -0.00000     1.14962     1 2py   0.92184     1 2py  -2.96467     2 2py  -0.92184     2 2py   2.96467     3 1s    1.54141
                                    4 1s   -1.54141     5 1s   -1.54141     6 1s    1.54141
   23.1    -0.00000     1.21744     1 1s    1.03360     1 1s   -1.73290     1 2pz   0.36767     1 2pz  -0.50003     2 1s    1.03360
                                    2 1s   -1.73290     2 2pz  -0.36767     2 2pz   0.50003     3 1s   -0.44124     3 1s    0.87014
                                    4 1s   -0.44124     4 1s    0.87014     5 1s   -0.44124     5 1s    0.87014     6 1s   -0.44124
                                    6 1s    0.87014
   24.1    -0.00000     1.22107     1 1s   -0.31543     1 2pz  -0.64479     1 2pz   1.45006     2 1s    0.31543     2 2pz  -0.64479
                                    2 2pz   1.45006     3 1s    0.48861     3 1s   -0.91701     4 1s    0.48861     4 1s   -0.91701
                                    5 1s   -0.48861     5 1s    0.91701     6 1s   -0.48861     6 1s    0.91701
   25.1    -0.00000     1.30751     1 1s   -1.64867     1 1s    5.27491     1 2pz  -1.66493     2 1s    1.64867     2 1s   -5.27491
                                    2 2pz  -1.66493     3 1s   -0.47274     4 1s   -0.47274     5 1s    0.47274     6 1s    0.47274
   26.1    -0.00000     1.46233     1 2py   2.48338     2 2py  -2.48338     3 1s   -0.69514     3 1s   -0.66220     4 1s    0.69514
                                    4 1s    0.66220     5 1s    0.69514     5 1s    0.66220     6 1s   -0.69514     6 1s   -0.66220
   27.1    -0.00000     1.70713     1 3d1+  0.62202     2 3d1+ -0.62202
   28.1    -0.00000     1.81561     1 3d2-  0.68337     2 3d2-  0.68337
   29.1    -0.00000     2.09474     1 3d2-  0.73350     2 3d2- -0.73350
   30.1    -0.00000     2.20610     1 1s   -0.61282     1 3d2+  0.70217     2 1s   -0.61282     2 3d2+  0.70217     3 1s    0.36629
                                    4 1s    0.36629     5 1s    0.36629     6 1s    0.36629
   31.1    -0.00000     2.31991     1 2py   0.28187     1 3d1-  0.69623     2 2py   0.28187     2 3d1- -0.69623     3 1s   -0.52809
                                    4 1s    0.52809     5 1s   -0.52809     6 1s    0.52809
   32.1    -0.00000     2.36579     1 1s   -0.48184     1 2pz   0.27751     1 2pz  -0.45271     1 3d0   0.66863     2 1s   -0.48184
                                    2 2pz  -0.27751     2 2pz   0.45271     2 3d0   0.66863
   33.1    -0.00000     2.60624     1 1s    0.28360     1 1s   -1.32222     1 2pz   0.26341     1 3d2+  0.79805     2 1s   -0.28360
                                    2 1s    1.32222     2 2pz   0.26341     2 3d2+ -0.79805     3 1s    0.45431     4 1s    0.45431
                                    5 1s   -0.45431     6 1s   -0.45431
   34.1    -0.00000     2.66107     1 2px  -0.26087     1 3d1+  0.88874     2 2px   0.26087     2 3d1+  0.88874
   35.1    -0.00000     3.01896     1 1s    2.01011     1 2pz  -0.72587     1 2pz  -1.18147     1 3d0   1.09775     2 1s   -2.01011
                                    2 2pz  -0.72587     2 2pz  -1.18147     2 3d0  -1.09775
   36.1    -0.00000     3.03307     1 2py   0.58870     1 3d1-  0.95720     2 2py  -0.58870     2 3d1-  0.95720     3 1s   -0.48935
                                    4 1s    0.48935     5 1s    0.48935     6 1s   -0.48935


 Natural orbital dump (state averaged) at molpro section  2140.2    (Orbital set 2)



 **********************************************************************************************************************************
 DATASETS  * FILE   NREC   LENGTH (MB)   RECORD NAMES
              1      20       31.36       500      610      700      900      950      970     1000      129      960     1100   
                                          VAR    BASINP    GEOM    SYMINP    ZMAT    AOBASIS   BASIS     P2S    ABASIS      S 
                                         1400     1410     1200     1210     1080     1600     1650     1300     1700     1380   
                                           T        V       H0       H01     AOSYM     SMH    MOLCAS    ERIS     OPER     JKOP   

              2       5        5.42       700     1000      520     2100     2140   
                                         GEOM     BASIS   MCVARS     RHF     MCSCF   

 PROGRAMS   *        TOTAL     MULTI    HF-SCF       INT
 CPU TIMES  *         0.54      0.15      0.09      0.22
 REAL TIME  *         0.81 SEC
 DISK USED  *        38.54 MB
 **********************************************************************************************************************************
 Molecular orbitals read from record     2140.2  Type=MCSCF/NATURAL (state averaged)
 Occupation numbers read from record     2140.2  Type=MCSCF/NATURAL (state averaged)
 Orbital energies read from record       2140.2  Type=MCSCF/NATURAL (state averaged)
 Redundancy group numbers read from rec  2140.2  Type=MCSCF/NATURAL (state averaged)

 MULTI/6-31G* energy=    -77.501769055761

           MULTI          HF-SCF
    -77.50176906    -78.02885005
 **********************************************************************************************************************************
 Molpro calculation terminated
