
 Primary working directories    : /scratch.local/johan406.molpro_temp/molpro.54wAcyjMJ2
 Secondary working directories  : /scratch.local/johan406.molpro_temp/molpro.54wAcyjMJ2
 Wavefunction directory         : /home/goodpast/johan406/wfu/
 Main file repository           : /scratch.local/johan406.molpro_temp/molpro.54wAcyjMJ2/

 id        : roweumn

 Nodes     nprocs
 cn0416       1

 Using customized tuning parameters: mindgm=1; mindgv=20; mindgc=4; mindgr=1; noblas=0; minvec=7
 default implementation of scratch files=df  


 Variables initialized (934), CPU time= 0.00 sec
                                                                                 !leave this line blank
 
 gprint, orbitals=30
 memory, 125., m
 symmetry, nosym
 nelect=16
 basis=6-31g*
 
 geometry={
 C 0.000 0.000 0.675
 C 0.000 -0.000 -0.675
 H 0.000 0.918 1.228
 H 0.000 -0.918 1.228
 H 0.000 0.918 -1.228
 H 0.000 -0.918 -1.228
 }
 
 hf
 {multi,
 closed 7
 occ 9
 wf,spin=0;STATE,3
 }
 
 Commands  initialized (763), CPU time= 0.01 sec, 617 directives.
 Default parameters read. Elapsed time= 0.04 sec

 Checking input...
 Passed
1


                                         ***  PROGRAM SYSTEM MOLPRO  ***
                                       Copyright, TTI GmbH Stuttgart, 2015
                                    Version 2019.2 linked Oct 25 2019 22:50:27


 **********************************************************************************************************************************
 LABEL *                                                                                 
  64 bit serial version                                                                  DATE: 15-Mar-23          TIME: 16:16:10  
 **********************************************************************************************************************************

 SHA1:             8dbd9ae1082e4ce945b0f27595c9eb2d4aa09004
 **********************************************************************************************************************************


 Variable memory set to  125000000 words,  buffer space 

 SETTING NELECT         =        16.00000000                                  
 SETTING BASIS          =    6-31G*
 ZSYMEL=NOSYM


Geometry recognized as XYZ



 Recomputing integrals since basis changed


 Using spherical harmonics

 Library entry C      S 6-31G                selected for orbital group  1
 Library entry C      P 6-31G                selected for orbital group  1
 Library entry C      D 6-31G*               selected for orbital group  1
 Library entry H      S 6-31G                selected for orbital group  2


 PROGRAM * SEWARD (Integral evaluation for generally contracted gaussian basis sets)     Author: Roland Lindh, 1990

 Geometry written to block  1 of record 700


 Point group  C1  



 ATOMIC COORDINATES

 NR  ATOM    CHARGE       X              Y              Z

   1  C       6.00    0.000000000    0.000000000    1.275565134
   2  C       6.00    0.000000000   -0.000000000   -1.275565134
   3  H       1.00    0.000000000    1.734768582    2.320583681
   4  H       1.00    0.000000000   -1.734768582    2.320583681
   5  H       1.00    0.000000000    1.734768582   -2.320583681
   6  H       1.00    0.000000000   -1.734768582   -2.320583681

 Bond lengths in Bohr (Angstrom)

 1-2  2.551130268  1-3  2.025212531  1-4  2.025212531  2-5  2.025212531  2-6  2.025212531
     ( 1.350000000)     ( 1.071696319)     ( 1.071696319)     ( 1.071696319)     ( 1.071696319)

 Bond angles

  1-2-5  121.06461314   1-2-6  121.06461314   2-1-3  121.06461314   2-1-4  121.06461314

  3-1-4  117.87077373   5-2-6  117.87077373

 NUCLEAR CHARGE:                   16
 NUMBER OF PRIMITIVE AOS:          72
 NUMBER OF SYMMETRY AOS:           70
 NUMBER OF CONTRACTIONS:           36   (   36A   )
 NUMBER OF CORE ORBITALS:           2   (    2A   )
 NUMBER OF VALENCE ORBITALS:       12   (   12A   )


 NUCLEAR REPULSION ENERGY   33.32547701

 EXTRA SYMMETRY OF AOS IN SYMMETRY 1:   1 1 1 2 1 1 2 1 1 1   3 2 1 1 1 1 1 2 1 1   2 1 1 1 3 2 1 1 1 1   1 1 1 1 1 1

 Eigenvalues of metric

         1 0.858E-02 0.169E-01 0.380E-01 0.466E-01 0.693E-01 0.200E+00 0.211E+00 0.228E+00


 Contracted 2-electron integrals neglected if value below      1.0D-11
 AO integral compression algorithm  1   Integral accuracy      1.0D-11

     0.786 MB (compressed) written to integral file ( 37.8%)


 NUMBER OF SORTED TWO-ELECTRON INTEGRALS:     222111.     BUFFER LENGTH:  32768
 NUMBER OF SEGMENTS:   1  SEGMENT LENGTH:     222111      RECORD LENGTH: 524288

 Memory used in sort:       0.78 MW

 SORT1 READ      284735. AND WROTE       98271. INTEGRALS IN      1 RECORDS. CPU TIME:     0.01 SEC, REAL TIME:     0.00 SEC
 SORT2 READ       98271. AND WROTE      222111. INTEGRALS IN      3 RECORDS. CPU TIME:     0.01 SEC, REAL TIME:     0.02 SEC

 FILE SIZES:   FILE 1:    30.9 MBYTE,  FILE 4:     4.2 MBYTE,   TOTAL:     35.1 MBYTE

 OPERATOR DM      FOR CENTER  0  COORDINATES:    0.000000    0.000000    0.000000


 **********************************************************************************************************************************
 DATASETS  * FILE   NREC   LENGTH (MB)   RECORD NAMES
              1      19       30.63       500      610      700      900      950      970     1000      129      960     1100   
                                          VAR    BASINP    GEOM    SYMINP    ZMAT    AOBASIS   BASIS     P2S    ABASIS      S 
                                         1400     1410     1200     1210     1080     1600     1650     1300     1700   
                                           T        V       H0       H01     AOSYM     SMH    MOLCAS    ERIS     OPER   

 PROGRAMS   *        TOTAL       INT
 CPU TIMES  *         0.31      0.23
 REAL TIME  *         0.48 SEC
 DISK USED  *        35.45 MB
 **********************************************************************************************************************************


 PROGRAM * RHF-SCF (CLOSED SHELL)       Authors: W. Meyer, H.-J. Werner


 NUMBER OF ELECTRONS:       8+    8-    SPACE SYMMETRY=1    SPIN SYMMETRY: Singlet 
 CONVERGENCE THRESHOLDS:    1.00E-05 (Density)    1.00E-07 (Energy)
 MAX. NUMBER OF ITERATIONS:       60
 INTERPOLATION TYPE:            DIIS
 INTERPOLATION STEPS:              2 (START)      1 (STEP)
 LEVEL SHIFTS:                  0.00 (CLOSED)  0.00 (OPEN) 



 Orbital guess generated from atomic densities. Full valence occupancy:    8

 Molecular orbital dump at record        2100.2

 Initial occupancy:   8

 ITERATION    DDIFF          GRAD             ENERGY        2-EL.EN.            DIPOLE MOMENTS         DIIS   ORB.
    1      0.000D+00      0.000D+00       -78.00614368    118.518771    0.00000    0.00000    0.00000    0    start
    2      0.000D+00      0.848D-02       -78.02771882    116.745135    0.00000    0.00000    0.00000    1    diag
    3      0.813D-02      0.284D-02       -78.02975546    117.354875   -0.00000    0.00000    0.00000    2    diag
    4      0.257D-02      0.705D-03       -78.02995868    117.256085    0.00000   -0.00000    0.00000    3    diag
    5      0.105D-02      0.661D-04       -78.02996067    117.258872   -0.00000   -0.00000    0.00000    4    diag
    6      0.142D-03      0.745D-05       -78.02996070    117.258466    0.00000   -0.00000    0.00000    5    diag
    7      0.139D-04      0.109D-05       -78.02996070    117.258474   -0.00000   -0.00000   -0.00000    6    diag
    8      0.155D-05      0.123D-06       -78.02996070    117.258469   -0.00000   -0.00000    0.00000    0    orth

 Final occupancy:   8

 !RHF STATE  1.1 Energy               -78.029960699424
 Nuclear energy                        33.32547701
 One-electron energy                 -169.98467197
 Two-electron energy                   58.62923426
 Virial quotient                       -1.00022813
 !RHF STATE  1.1 Dipole moment         -0.00000000    -0.00000000     0.00000000
 Dipole moment /Debye                  -0.00000000    -0.00000000     0.00000000

 ELECTRON ORBITALS
 =================

  Orbital  Occupation    Energy     Coefficients
    1.1     2.00000   -11.22550     1 1s    0.70420     2 1s    0.70420
    2.1     2.00000   -11.22399     1 1s    0.70453     2 1s   -0.70453
    3.1     2.00000    -1.02444     1 1s    0.30142     2 1s    0.30142
    4.1     2.00000    -0.79335     1 1s    0.24168
    5.1     2.00000    -0.64111     1 2py   0.32163     2 2py   0.32163
    6.1     2.00000    -0.57811     1 2pz   0.40771     2 2pz  -0.40771
    7.1     2.00000    -0.51047     1 2py   0.30721     2 2py  -0.30721
    8.1     2.00000    -0.36614     1 2px   0.37191     1 2px   0.31045     2 2px   0.37191     2 2px   0.31045
    9.1     0.00000     0.17609     1 2px   0.34311     1 2px   0.72659     2 2px  -0.34311     2 2px  -0.72659
   10.1     0.00000     0.26582     1 1s   -1.49612     1 2pz  -0.63558     2 1s   -1.49612     2 2pz   0.63558     3 1s    1.03881
                                    4 1s    1.03881     5 1s    1.03881     6 1s    1.03881
   11.1     0.00000     0.29712     1 2py  -0.25103     1 2py  -0.82722     2 2py  -0.25103     2 2py  -0.82722     3 1s    1.11873
                                    4 1s   -1.11873     5 1s    1.11873     6 1s   -1.11873
   12.1     0.00000     0.31119     1 1s    1.96053     2 1s   -1.96053     3 1s   -1.08020     4 1s   -1.08020     5 1s    1.08020
                                    6 1s    1.08020
   13.1     0.00000     0.39029     1 2py  -1.88628     2 2py   1.88628     3 1s    1.64701     4 1s   -1.64701     5 1s   -1.64701
                                    6 1s    1.64701
   14.1     0.00000     0.48584     1 1s   -2.83831     1 2pz   2.86879     2 1s    2.83831     2 2pz   2.86879     3 1s   -0.57893
                                    4 1s   -0.57893     5 1s    0.57893     6 1s    0.57893
   15.1     0.00000     0.67162     1 1s    0.27110     1 2pz  -0.55764     1 2pz   1.03093     2 1s    0.27110     2 2pz   0.55764
                                    2 2pz  -1.03093
   16.1     0.00000     0.76345     1 2py  -0.39764     1 2py   0.79202     2 2py  -0.39764     2 2py   0.79202     3 1s   -0.38503
                                    4 1s    0.38503     5 1s   -0.38503     6 1s    0.38503
   17.1     0.00000     0.78000     1 2px  -0.74339     1 2px   0.63952     2 2px  -0.74339     2 2px   0.63952
   18.1     0.00000     0.86059     1 1s   -0.89167     1 1s    1.44445     1 2pz   0.28992     2 1s   -0.89167     2 1s    1.44445
                                    2 2pz  -0.28992     3 1s   -0.39161     4 1s   -0.39161     5 1s   -0.39161     6 1s   -0.39161
   19.1     0.00000     0.88929     1 2px  -0.81737     1 2px   1.06950     2 2px   0.81737     2 2px  -1.06950
   20.1     0.00000     0.94776     1 1s   -0.83068     1 2pz   0.61510     1 2pz  -0.48845     2 1s    0.83068     2 2pz   0.61510
                                    2 2pz  -0.48845     3 1s    0.37530     4 1s    0.37530     5 1s   -0.37530     6 1s   -0.37530
   21.1     0.00000     1.12448     1 2py  -0.69540     1 2py   1.10998     2 2py  -0.69540     2 2py   1.10998     3 1s    0.38346
                                    3 1s   -1.06692     4 1s   -0.38346     4 1s    1.06692     5 1s    0.38346     5 1s   -1.06692
                                    6 1s   -0.38346     6 1s    1.06692
   22.1     0.00000     1.16230     1 2py   0.92644     1 2py  -2.97551     2 2py  -0.92644     2 2py   2.97551     3 1s    1.53434
                                    4 1s   -1.53434     5 1s   -1.53434     6 1s    1.53434
   23.1     0.00000     1.21685     1 1s    1.03981     1 1s   -1.73599     1 2pz   0.36414     1 2pz  -0.49231     2 1s    1.03981
                                    2 1s   -1.73599     2 2pz  -0.36414     2 2pz   0.49231     3 1s   -0.43830     3 1s    0.86845
                                    4 1s   -0.43830     4 1s    0.86845     5 1s   -0.43830     5 1s    0.86845     6 1s   -0.43830
                                    6 1s    0.86845
   24.1     0.00000     1.22153     1 1s   -0.44628     1 2pz  -0.62768     1 2pz   1.32378     2 1s    0.44628     2 2pz  -0.62768
                                    2 2pz   1.32378     3 1s    0.47999     3 1s   -0.95530     4 1s    0.47999     4 1s   -0.95530
                                    5 1s   -0.47999     5 1s    0.95530     6 1s   -0.47999     6 1s    0.95530
   25.1     0.00000     1.33248     1 1s   -1.61850     1 1s    5.35793     1 2pz  -1.83078     2 1s    1.61850     2 1s   -5.35793
                                    2 2pz  -1.83078     3 1s   -0.39034     4 1s   -0.39034     5 1s    0.39034     6 1s    0.39034
   26.1     0.00000     1.48571     1 2py   2.55094     2 2py  -2.55094     3 1s   -0.70161     3 1s   -0.68731     4 1s    0.70161
                                    4 1s    0.68731     5 1s    0.70161     5 1s    0.68731     6 1s   -0.70161     6 1s   -0.68731
   27.1     0.00000     1.73582     1 3d1+  0.62061     2 3d1+ -0.62061
   28.1     0.00000     1.82465     1 3d2-  0.68230     2 3d2-  0.68230
   29.1     0.00000     2.12175     1 3d2-  0.73483     2 3d2- -0.73483
   30.1     0.00000     2.21723     1 1s   -0.60899     1 3d2+  0.70739     2 1s   -0.60899     2 3d2+  0.70739     3 1s    0.36821
                                    4 1s    0.36821     5 1s    0.36821     6 1s    0.36821
   31.1     0.00000     2.33262     1 2py   0.27527     1 3d1-  0.69470     2 2py   0.27527     2 3d1- -0.69470     3 1s   -0.52230
                                    4 1s    0.52230     5 1s   -0.52230     6 1s    0.52230
   32.1     0.00000     2.40048     1 1s   -0.49672     1 2pz   0.27394     1 2pz  -0.44621     1 3d0   0.67812     2 1s   -0.49672
                                    2 2pz  -0.27394     2 2pz   0.44621     2 3d0   0.67812
   33.1     0.00000     2.63494     1 1s    0.28789     1 1s   -1.38619     1 2pz   0.30713     1 3d2+  0.80081     2 1s   -0.28789
                                    2 1s    1.38619     2 2pz   0.30713     2 3d2+ -0.80081     3 1s    0.45246     4 1s    0.45246
                                    5 1s   -0.45246     6 1s   -0.45246
   34.1     0.00000     2.69633     1 2px  -0.26228     1 3d1+  0.89548     2 2px   0.26228     2 3d1+  0.89548
   35.1     0.00000     3.04334     1 2py   0.58775     1 3d1-  0.96195     2 2py  -0.58775     2 3d1-  0.96195     3 1s   -0.48123
                                    4 1s    0.48123     5 1s    0.48123     6 1s   -0.48123
   36.1     0.00000     3.04929     1 1s    0.28067     1 1s    1.98997     1 2pz  -0.76661     1 2pz  -1.16318     1 3d0   1.10395
                                    2 1s   -0.28067     2 1s   -1.98997     2 2pz  -0.76661     2 2pz  -1.16318     2 3d0  -1.10395


 HOMO      8.1    -0.366141 =      -9.9632eV
 LUMO      9.1     0.176085 =       4.7915eV
 LUMO-HOMO         0.542226 =      14.7547eV


 **********************************************************************************************************************************
 DATASETS  * FILE   NREC   LENGTH (MB)   RECORD NAMES
              1      19       30.63       500      610      700      900      950      970     1000      129      960     1100   
                                          VAR    BASINP    GEOM    SYMINP    ZMAT    AOBASIS   BASIS     P2S    ABASIS      S 
                                         1400     1410     1200     1210     1080     1600     1650     1300     1700   
                                           T        V       H0       H01     AOSYM     SMH    MOLCAS    ERIS     OPER   

              2       4        2.86       700     1000      520     2100   
                                         GEOM     BASIS   MCVARS     RHF  

 PROGRAMS   *        TOTAL    HF-SCF       INT
 CPU TIMES  *         0.40      0.09      0.23
 REAL TIME  *         0.65 SEC
 DISK USED  *        35.45 MB
 **********************************************************************************************************************************


 PROGRAM * MULTI (Direct Multiconfiguration SCF)       Authors: P.J. Knowles, H.-J. Werner (1984)


 Number of closed-shell orbitals:   7 (   7 )
 Number of active  orbitals:        2 (   2 )
 Number of external orbitals:      27 (  27 )

 State symmetry 1

 Number of electrons:     2    Spin symmetry=Singlet   Space symmetry=1
 Number of states:        3
 Number of CSFs:          3   (4 determinants, 4 intermediate states)

 Molecular orbitals read from record     2100.2  Type=RHF/CANONICAL (state 1.1)

 EXTRA SYMMETRY OF MOS IN SYMMETRY 1:   1 1 1 1 1 1 1 2 2 1   1 1 1 1 1 1 2 1 2 1   1 1 1 1 1 1 2 3 3 1   1 1 1 2 1 1

 Wavefunction dump at record             2140.2

 Convergence thresholds  0.10E-01 (gradient)  0.10E-05 (energy)  0.10E-02 (step length)

 Weight factors for state symmetry  1:    0.33333   0.33333   0.33333

 Number of orbital rotations:      257   (    14 Core/Active    189 Core/Virtual   0 Active/Active     54 Active/Virtual)
 Total number of variables:        269

 Micro-Iterations solved by the two-step solver

 ITER. MIC  NCI  NEG     ENERGY(VAR)     ENERGY(PROJ)   ENERGY CHANGE     GRAD(0)  GRAD(ORB)   GRAD(CI)     STEP       TIME

   1    3    3    0     -77.73330036     -77.73932038   -0.00602002    0.13005625 0.00000139 0.00000000  0.62D-01      0.05
   2    2    3    0     -77.73922853     -77.73923195   -0.00000342    0.00290444 0.00000169 0.00000000  0.15D-02      0.08
   3    2    3    0     -77.73923195     -77.73923195   -0.00000000    0.00000195 0.00000000 0.00000000  0.12D-05      0.11

 ** WVFN ****  CONVERGENCE REACHED, FINAL GRADIENT:  0.10D-11



 Results for state 1.1
 =====================

 !MCSCF STATE  1.1 Energy             -78.048330985499
 Nuclear energy                        33.32547701
 Kinetic energy                        78.07571436
 One electron energy                 -170.10395786
 Two electron energy                   58.73014987
 Virial ratio                           1.99964927

 !MCSCF STATE  1.1 Dipole moment        0.00000000    -0.00000000    -0.00000000
 Dipole moment /Debye                   0.00000000    -0.00000000    -0.00000000

 Results for state 2.1
 =====================

 !MCSCF STATE  2.1 Energy             -77.675338147260
 Nuclear energy                        33.32547701
 Kinetic energy                        78.26048084
 One electron energy                 -169.55407217
 Two electron energy                   58.55325701
 Virial ratio                           1.99252314

 !MCSCF STATE  2.1 Dipole moment        0.00000000    -0.00000000     0.00000000
 Dipole moment /Debye                   0.00000000    -0.00000000     0.00000000

 Results for state 3.1
 =====================

 !MCSCF STATE  3.1 Energy             -77.494026732209
 Nuclear energy                        33.32547701
 Kinetic energy                        78.44524732
 One electron energy                 -169.00418647
 Two electron energy                   58.18468272
 Virial ratio                           1.98787408

 !MCSCF STATE  3.1 Dipole moment        0.00000000    -0.00000000    -0.00000000
 Dipole moment /Debye                   0.00000000    -0.00000000    -0.00000000

 State-averaged charge density matrix saved on record  2140.2 (density set 1)

 !MCSCF trans         <2.1|DMZ|1.1>    -1.511688792342 au =    -3.842078000840 Debye
 !MCSCF trans         <3.1|DMZ|2.1>    -2.295847891557 au =    -5.835081084224 Debye


 NATURAL ORBITALS (state averaged)
 =================================

  Orbital  Occupation    Energy     Coefficients
    1.1     2.00000   -11.24045     1 1s    0.70422     2 1s    0.70422
    2.1     2.00000   -11.23921     1 1s    0.70449     2 1s   -0.70449
    3.1     2.00000    -1.03848     1 1s    0.30934     2 1s    0.30934
    4.1     2.00000    -0.80102     1 1s    0.28594     2 1s   -0.28594
    5.1     2.00000    -0.65356     1 2py   0.32701     2 2py   0.32701
    6.1     2.00000    -0.59306     1 2pz   0.40951     2 2pz  -0.40951
    7.1     2.00000    -0.51699     1 2py   0.31342     2 2py  -0.31342
    8.1     1.00000     0.03170     1 2px   0.38027     1 2px   0.68072     2 2px  -0.38027     2 2px  -0.68072
    9.1     1.00000    -0.22289     1 2px   0.35631     1 2px   0.32203     2 2px   0.35631     2 2px   0.32203
   10.1    -0.00000     0.26307     1 1s   -1.49211     1 2pz  -0.64149     2 1s   -1.49211     2 2pz   0.64149     3 1s    1.03831
                                    4 1s    1.03831     5 1s    1.03831     6 1s    1.03831
   11.1    -0.00000     0.28896     1 2py  -0.81820     2 2py  -0.81820     3 1s    1.11053     4 1s   -1.11053     5 1s    1.11053
                                    6 1s   -1.11053
   12.1    -0.00000     0.30814     1 1s    1.98521     2 1s   -1.98521     3 1s   -1.07455     4 1s   -1.07455     5 1s    1.07455
                                    6 1s    1.07455
   13.1    -0.00000     0.38631     1 2py  -1.87260     2 2py   1.87260     3 1s    1.64045     4 1s   -1.64045     5 1s   -1.64045
                                    6 1s    1.64045
   14.1    -0.00000     0.48313     1 1s   -2.81438     1 2pz   2.85053     2 1s    2.81438     2 2pz   2.85053     3 1s   -0.58901
                                    4 1s   -0.58901     5 1s    0.58901     6 1s    0.58901
   15.1    -0.00000     0.66100     1 2pz  -0.55097     1 2pz   1.00896     2 2pz   0.55097     2 2pz  -1.00896
   16.1    -0.00000     0.75291     1 2py  -0.40856     1 2py   0.79819     2 2py  -0.40856     2 2py   0.79819     3 1s   -0.38070
                                    4 1s    0.38070     5 1s   -0.38070     6 1s    0.38070
   17.1    -0.00000     0.77407     1 2px  -0.75015     1 2px   0.63410     2 2px  -0.75015     2 2px   0.63410
   18.1    -0.00000     0.85739     1 1s   -0.88592     1 1s    1.47127     1 2pz   0.33895     2 1s   -0.88592     2 1s    1.47127
                                    2 2pz  -0.33895     3 1s   -0.39409     4 1s   -0.39409     5 1s   -0.39409     6 1s   -0.39409
   19.1    -0.00000     0.87204     1 2px  -0.80201     1 2px   1.09910     2 2px   0.80201     2 2px  -1.09910
   20.1    -0.00000     0.92908     1 1s   -0.67812     1 2pz   0.61854     1 2pz  -0.56863     2 1s    0.67812     2 2pz   0.61854
                                    2 2pz  -0.56863     3 1s    0.37609     4 1s    0.37609     5 1s   -0.37609     6 1s   -0.37609
   21.1    -0.00000     1.10925     1 2py  -0.68432     1 2py   1.11204     2 2py  -0.68432     2 2py   1.11204     3 1s    0.38390
                                    3 1s   -1.07572     4 1s   -0.38390     4 1s    1.07572     5 1s    0.38390     5 1s   -1.07572
                                    6 1s   -0.38390     6 1s    1.07572
   22.1    -0.00000     1.15010     1 2py   0.92359     1 2py  -2.98015     2 2py  -0.92359     2 2py   2.98015     3 1s    1.54198
                                    4 1s   -1.54198     5 1s   -1.54198     6 1s    1.54198
   23.1    -0.00000     1.21376     1 1s    1.03486     1 1s   -1.73189     1 2pz   0.36806     1 2pz  -0.49810     2 1s    1.03486
                                    2 1s   -1.73189     2 2pz  -0.36806     2 2pz   0.49810     3 1s   -0.43880     3 1s    0.86792
                                    4 1s   -0.43880     4 1s    0.86792     5 1s   -0.43880     5 1s    0.86792     6 1s   -0.43880
                                    6 1s    0.86792
   24.1    -0.00000     1.21877     1 1s   -0.36429     1 2pz  -0.64227     1 2pz   1.41595     2 1s    0.36429     2 2pz  -0.64227
                                    2 2pz   1.41595     3 1s    0.48230     3 1s   -0.93430     4 1s    0.48230     4 1s   -0.93430
                                    5 1s   -0.48230     5 1s    0.93430     6 1s   -0.48230     6 1s    0.93430
   25.1    -0.00000     1.31363     1 1s   -1.64073     1 1s    5.37454     1 2pz  -1.75966     2 1s    1.64073     2 1s   -5.37454
                                    2 2pz  -1.75966     3 1s   -0.44021     4 1s   -0.44021     5 1s    0.44021     6 1s    0.44021
   26.1    -0.00000     1.47712     1 2py   2.55431     2 2py  -2.55431     3 1s   -0.70042     3 1s   -0.68850     4 1s    0.70042
                                    4 1s    0.68850     5 1s    0.70042     5 1s    0.68850     6 1s   -0.70042     6 1s   -0.68850
   27.1    -0.00000     1.71082     1 3d1+  0.62037     2 3d1+ -0.62037
   28.1    -0.00000     1.81126     1 3d2-  0.68230     2 3d2-  0.68230
   29.1    -0.00000     2.09915     1 3d2-  0.73483     2 3d2- -0.73483
   30.1    -0.00000     2.20217     1 1s   -0.60476     1 3d2+  0.70658     2 1s   -0.60476     2 3d2+  0.70658     3 1s    0.36972
                                    4 1s    0.36972     5 1s    0.36972     6 1s    0.36972
   31.1    -0.00000     2.31691     1 2py   0.28215     1 3d1-  0.69294     2 2py   0.28215     2 3d1- -0.69294     3 1s   -0.52567
                                    4 1s    0.52567     5 1s   -0.52567     6 1s    0.52567
   32.1    -0.00000     2.38072     1 1s   -0.49458     1 2pz   0.27948     1 2pz  -0.44929     1 3d0   0.67759     2 1s   -0.49458
                                    2 2pz  -0.27948     2 2pz   0.44929     2 3d0   0.67759
   33.1    -0.00000     2.61572     1 1s    0.28875     1 1s   -1.39208     1 2pz   0.30616     1 3d2+  0.80007     2 1s   -0.28875
                                    2 1s    1.39208     2 2pz   0.30616     2 3d2+ -0.80007     3 1s    0.45550     4 1s    0.45550
                                    5 1s   -0.45550     6 1s   -0.45550
   34.1    -0.00000     2.67415     1 2px  -0.26295     1 3d1+  0.89585     2 2px   0.26295     2 3d1+  0.89585
   35.1    -0.00000     3.03092     1 2py   0.58815     1 3d1-  0.96154     2 2py  -0.58815     2 3d1-  0.96154     3 1s   -0.48357
                                    4 1s    0.48357     5 1s    0.48357     6 1s   -0.48357
   36.1    -0.00000     3.03180     1 1s    0.27367     1 1s    2.01496     1 2pz  -0.75921     1 2pz  -1.17619     1 3d0   1.10552
                                    2 1s   -0.27367     2 1s   -2.01496     2 2pz  -0.75921     2 2pz  -1.17619     2 3d0  -1.10552


 Natural orbital dump (state averaged) at molpro section  2140.2    (Orbital set 2)



 **********************************************************************************************************************************
 DATASETS  * FILE   NREC   LENGTH (MB)   RECORD NAMES
              1      20       31.36       500      610      700      900      950      970     1000      129      960     1100   
                                          VAR    BASINP    GEOM    SYMINP    ZMAT    AOBASIS   BASIS     P2S    ABASIS      S 
                                         1400     1410     1200     1210     1080     1600     1650     1300     1700     1380   
                                           T        V       H0       H01     AOSYM     SMH    MOLCAS    ERIS     OPER     JKOP   

              2       5        5.42       700     1000      520     2100     2140   
                                         GEOM     BASIS   MCVARS     RHF     MCSCF   

 PROGRAMS   *        TOTAL     MULTI    HF-SCF       INT
 CPU TIMES  *         0.54      0.14      0.09      0.23
 REAL TIME  *         0.87 SEC
 DISK USED  *        38.55 MB
 **********************************************************************************************************************************
 Molecular orbitals read from record     2140.2  Type=MCSCF/NATURAL (state averaged)
 Occupation numbers read from record     2140.2  Type=MCSCF/NATURAL (state averaged)
 Orbital energies read from record       2140.2  Type=MCSCF/NATURAL (state averaged)
 Redundancy group numbers read from rec  2140.2  Type=MCSCF/NATURAL (state averaged)

 MULTI/6-31G* energy=    -77.494026732209

           MULTI          HF-SCF
    -77.49402673    -78.02996070
 **********************************************************************************************************************************
 Molpro calculation terminated
