
 Primary working directories    : /scratch.local/johan406.molpro_temp/molpro.nspUCRKcbi
 Secondary working directories  : /scratch.local/johan406.molpro_temp/molpro.nspUCRKcbi
 Wavefunction directory         : /home/goodpast/johan406/wfu/
 Main file repository           : /scratch.local/johan406.molpro_temp/molpro.nspUCRKcbi/

 id        : roweumn

 Nodes     nprocs
 cn0416       1

 Using customized tuning parameters: mindgm=1; mindgv=20; mindgc=4; mindgr=1; noblas=0; minvec=7
 default implementation of scratch files=df  


 Variables initialized (934), CPU time= 0.01 sec
                                                                                 !leave this line blank
 
 gprint, orbitals=30
 memory, 125., m
 symmetry, nosym
 nelect=16
 basis=6-31g*
 
 geometry={
 C 0.000 0.000 0.685
 C 0.000 -0.000 -0.685
 H 0.000 0.912 1.235
 H 0.000 -0.912 1.235
 H 0.000 0.912 -1.235
 H 0.000 -0.912 -1.235
 }
 
 hf
 {multi,
 closed 7
 occ 9
 wf,spin=0;STATE,3
 }
 
 Commands  initialized (763), CPU time= 0.01 sec, 617 directives.
 Default parameters read. Elapsed time= 0.04 sec

 Checking input...
 Passed
1


                                         ***  PROGRAM SYSTEM MOLPRO  ***
                                       Copyright, TTI GmbH Stuttgart, 2015
                                    Version 2019.2 linked Oct 25 2019 22:50:27


 **********************************************************************************************************************************
 LABEL *                                                                                 
  64 bit serial version                                                                  DATE: 15-Mar-23          TIME: 16:40:19  
 **********************************************************************************************************************************

 SHA1:             8dbd9ae1082e4ce945b0f27595c9eb2d4aa09004
 **********************************************************************************************************************************


 Variable memory set to  125000000 words,  buffer space 

 SETTING NELECT         =        16.00000000                                  
 SETTING BASIS          =    6-31G*
 ZSYMEL=NOSYM


Geometry recognized as XYZ



 Recomputing integrals since basis changed


 Using spherical harmonics

 Library entry C      S 6-31G                selected for orbital group  1
 Library entry C      P 6-31G                selected for orbital group  1
 Library entry C      D 6-31G*               selected for orbital group  1
 Library entry H      S 6-31G                selected for orbital group  2


 PROGRAM * SEWARD (Integral evaluation for generally contracted gaussian basis sets)     Author: Roland Lindh, 1990

 Geometry written to block  1 of record 700


 Point group  C1  



 ATOMIC COORDINATES

 NR  ATOM    CHARGE       X              Y              Z

   1  C       6.00    0.000000000    0.000000000    1.294462395
   2  C       6.00    0.000000000   -0.000000000   -1.294462395
   3  H       1.00    0.000000000    1.723430226    2.333811764
   4  H       1.00    0.000000000   -1.723430226    2.333811764
   5  H       1.00    0.000000000    1.723430226   -2.333811764
   6  H       1.00    0.000000000   -1.723430226   -2.333811764

 Bond lengths in Bohr (Angstrom)

 1-2  2.588924791  1-3  2.012575179  1-4  2.012575179  2-5  2.012575179  2-6  2.012575179
     ( 1.370000000)     ( 1.065008920)     ( 1.065008920)     ( 1.065008920)     ( 1.065008920)

 Bond angles

  1-2-5  121.09292554   1-2-6  121.09292554   2-1-3  121.09292554   2-1-4  121.09292554

  3-1-4  117.81414892   5-2-6  117.81414892

 NUCLEAR CHARGE:                   16
 NUMBER OF PRIMITIVE AOS:          72
 NUMBER OF SYMMETRY AOS:           70
 NUMBER OF CONTRACTIONS:           36   (   36A   )
 NUMBER OF CORE ORBITALS:           2   (    2A   )
 NUMBER OF VALENCE ORBITALS:       12   (   12A   )


 NUCLEAR REPULSION ENERGY   33.15873849

 EXTRA SYMMETRY OF AOS IN SYMMETRY 1:   1 1 1 2 1 1 2 1 1 1   3 2 1 1 1 1 1 2 1 1   2 1 1 1 3 2 1 1 1 1   1 1 1 1 1 1

 Eigenvalues of metric

         1 0.915E-02 0.171E-01 0.372E-01 0.459E-01 0.685E-01 0.210E+00 0.213E+00 0.231E+00


 Contracted 2-electron integrals neglected if value below      1.0D-11
 AO integral compression algorithm  1   Integral accuracy      1.0D-11

     0.786 MB (compressed) written to integral file ( 37.7%)


 NUMBER OF SORTED TWO-ELECTRON INTEGRALS:     222111.     BUFFER LENGTH:  32768
 NUMBER OF SEGMENTS:   1  SEGMENT LENGTH:     222111      RECORD LENGTH: 524288

 Memory used in sort:       0.78 MW

 SORT1 READ      284735. AND WROTE       98267. INTEGRALS IN      1 RECORDS. CPU TIME:     0.00 SEC, REAL TIME:     0.00 SEC
 SORT2 READ       98267. AND WROTE      222111. INTEGRALS IN      3 RECORDS. CPU TIME:     0.01 SEC, REAL TIME:     0.02 SEC

 FILE SIZES:   FILE 1:    30.9 MBYTE,  FILE 4:     4.2 MBYTE,   TOTAL:     35.1 MBYTE

 OPERATOR DM      FOR CENTER  0  COORDINATES:    0.000000    0.000000    0.000000


 **********************************************************************************************************************************
 DATASETS  * FILE   NREC   LENGTH (MB)   RECORD NAMES
              1      19       30.63       500      610      700      900      950      970     1000      129      960     1100   
                                          VAR    BASINP    GEOM    SYMINP    ZMAT    AOBASIS   BASIS     P2S    ABASIS      S 
                                         1400     1410     1200     1210     1080     1600     1650     1300     1700   
                                           T        V       H0       H01     AOSYM     SMH    MOLCAS    ERIS     OPER   

 PROGRAMS   *        TOTAL       INT
 CPU TIMES  *         0.31      0.22
 REAL TIME  *         0.47 SEC
 DISK USED  *        35.45 MB
 **********************************************************************************************************************************


 PROGRAM * RHF-SCF (CLOSED SHELL)       Authors: W. Meyer, H.-J. Werner


 NUMBER OF ELECTRONS:       8+    8-    SPACE SYMMETRY=1    SPIN SYMMETRY: Singlet 
 CONVERGENCE THRESHOLDS:    1.00E-05 (Density)    1.00E-07 (Energy)
 MAX. NUMBER OF ITERATIONS:       60
 INTERPOLATION TYPE:            DIIS
 INTERPOLATION STEPS:              2 (START)      1 (STEP)
 LEVEL SHIFTS:                  0.00 (CLOSED)  0.00 (OPEN) 



 Orbital guess generated from atomic densities. Full valence occupancy:    8

 Molecular orbital dump at record        2100.2

 Initial occupancy:   8

 ITERATION    DDIFF          GRAD             ENERGY        2-EL.EN.            DIPOLE MOMENTS         DIIS   ORB.
    1      0.000D+00      0.000D+00       -78.00460538    118.098312   -0.00000   -0.00000   -0.00000    0    start
    2      0.000D+00      0.830D-02       -78.02563415    116.434086   -0.00000   -0.00000   -0.00000    1    diag
    3      0.800D-02      0.273D-02       -78.02754908    117.010759   -0.00000    0.00000    0.00000    2    diag
    4      0.248D-02      0.695D-03       -78.02774532    116.911451    0.00000   -0.00000   -0.00000    3    diag
    5      0.102D-02      0.643D-04       -78.02774719    116.914153    0.00000   -0.00000    0.00000    4    diag
    6      0.137D-03      0.690D-05       -78.02774721    116.913776   -0.00000   -0.00000    0.00000    5    diag
    7      0.122D-04      0.104D-05       -78.02774721    116.913784   -0.00000   -0.00000    0.00000    6    diag
    8      0.145D-05      0.111D-06       -78.02774721    116.913779   -0.00000   -0.00000    0.00000    0    orth

 Final occupancy:   8

 !RHF STATE  1.1 Energy               -78.027747210593
 Nuclear energy                        33.15873849
 One-electron energy                 -169.64337505
 Two-electron energy                   58.45688935
 Virial quotient                       -1.00043846
 !RHF STATE  1.1 Dipole moment         -0.00000000    -0.00000000     0.00000000
 Dipole moment /Debye                  -0.00000000    -0.00000000     0.00000000

 ELECTRON ORBITALS
 =================

  Orbital  Occupation    Energy     Coefficients
    1.1     2.00000   -11.22712     1 1s    0.70423     2 1s    0.70423
    2.1     2.00000   -11.22576     1 1s    0.70452     2 1s   -0.70452
    3.1     2.00000    -1.01965     1 1s    0.30069     2 1s    0.30069
    4.1     2.00000    -0.79850     1 1s    0.24232
    5.1     2.00000    -0.64097     1 2py   0.32212     2 2py   0.32212
    6.1     2.00000    -0.57584     1 2pz   0.40776     2 2pz  -0.40776
    7.1     2.00000    -0.51564     1 2py   0.30966     2 2py  -0.30966
    8.1     2.00000    -0.36132     1 2px   0.37006     1 2px   0.31430     2 2px   0.37006     2 2px   0.31430
    9.1     0.00000     0.17131     1 2px   0.34488     1 2px   0.71434     2 2px  -0.34488     2 2px  -0.71434
   10.1     0.00000     0.26723     1 1s   -1.51490     1 2pz  -0.63621     2 1s   -1.51490     2 2pz   0.63621     3 1s    1.05068
                                    4 1s    1.05068     5 1s    1.05068     6 1s    1.05068
   11.1     0.00000     0.30047     1 2py  -0.83898     2 2py  -0.83898     3 1s    1.13296     4 1s   -1.13296     5 1s    1.13296
                                    6 1s   -1.13296
   12.1     0.00000     0.31154     1 1s    1.97698     2 1s   -1.97698     3 1s   -1.08364     4 1s   -1.08364     5 1s    1.08364
                                    6 1s    1.08364
   13.1     0.00000     0.38939     1 2py  -1.86587     2 2py   1.86587     3 1s    1.65272     4 1s   -1.65272     5 1s   -1.65272
                                    6 1s    1.65272
   14.1     0.00000     0.48157     1 1s   -2.61787     1 2pz   2.78814     2 1s    2.61787     2 2pz   2.78814     3 1s   -0.59517
                                    4 1s   -0.59517     5 1s    0.59517     6 1s    0.59517
   15.1     0.00000     0.67798     1 1s    0.30744     1 2pz  -0.56284     1 2pz   1.03037     2 1s    0.30744     2 2pz   0.56284
                                    2 2pz  -1.03037
   16.1     0.00000     0.75542     1 2py  -0.39727     1 2py   0.79461     2 2py  -0.39727     2 2py   0.79461     3 1s   -0.38053
                                    4 1s    0.38053     5 1s   -0.38053     6 1s    0.38053
   17.1     0.00000     0.78417     1 2px  -0.74775     1 2px   0.63964     2 2px  -0.74775     2 2px   0.63964
   18.1     0.00000     0.86110     1 1s   -0.89922     1 1s    1.46844     1 2pz   0.28203     2 1s   -0.89922     2 1s    1.46844
                                    2 2pz  -0.28203     3 1s   -0.38719     4 1s   -0.38719     5 1s   -0.38719     6 1s   -0.38719
   19.1     0.00000     0.88676     1 2px  -0.81538     1 2px   1.06236     2 2px   0.81538     2 2px  -1.06236
   20.1     0.00000     0.93239     1 1s   -0.68530     1 2pz   0.62686     1 2pz  -0.60949     2 1s    0.68530     2 2pz   0.62686
                                    2 2pz  -0.60949     3 1s    0.36427     4 1s    0.36427     5 1s   -0.36427     6 1s   -0.36427
   21.1     0.00000     1.13545     1 2py   0.69897     1 2py  -1.10725     2 2py   0.69897     2 2py  -1.10725     3 1s   -0.38682
                                    3 1s    1.06859     4 1s    0.38682     4 1s   -1.06859     5 1s   -0.38682     5 1s    1.06859
                                    6 1s    0.38682     6 1s   -1.06859
   22.1     0.00000     1.16300     1 2py   0.92515     1 2py  -2.99288     2 2py  -0.92515     2 2py   2.99288     3 1s    1.55541
                                    4 1s   -1.55541     5 1s   -1.55541     6 1s    1.55541
   23.1     0.00000     1.22304     1 1s    1.04001     1 1s   -1.74339     1 2pz   0.36353     1 2pz  -0.49322     2 1s    1.04001
                                    2 1s   -1.74339     2 2pz  -0.36353     2 2pz   0.49322     3 1s   -0.44072     3 1s    0.87280
                                    4 1s   -0.44072     4 1s    0.87280     5 1s   -0.44072     5 1s    0.87280     6 1s   -0.44072
                                    6 1s    0.87280
   24.1     0.00000     1.22525     1 1s   -0.35175     1 2pz  -0.63037     1 2pz   1.40714     2 1s    0.35175     2 2pz  -0.63037
                                    2 2pz   1.40714     3 1s    0.49268     3 1s   -0.92845     4 1s    0.49268     4 1s   -0.92845
                                    5 1s   -0.49268     5 1s    0.92845     6 1s   -0.49268     6 1s    0.92845
   25.1     0.00000     1.32217     1 1s   -1.64061     1 1s    5.23432     1 2pz  -1.68146     2 1s    1.64061     2 1s   -5.23432
                                    2 2pz  -1.68146     3 1s   -0.45838     4 1s   -0.45838     5 1s    0.45838     6 1s    0.45838
   26.1     0.00000     1.47512     1 2py   2.46498     2 2py  -2.46498     3 1s   -0.69832     3 1s   -0.66370     4 1s    0.69832
                                    4 1s    0.66370     5 1s    0.69832     5 1s    0.66370     6 1s   -0.69832     6 1s   -0.66370
   27.1     0.00000     1.72925     1 3d1+  0.62336     2 3d1+ -0.62336
   28.1     0.00000     1.83026     1 3d2-  0.68407     2 3d2-  0.68407
   29.1     0.00000     2.11266     1 3d2-  0.73264     2 3d2- -0.73264
   30.1     0.00000     2.22638     1 1s    0.26234     1 1s   -0.62032     1 3d2+  0.69457     2 1s    0.26234     2 1s   -0.62032
                                    2 3d2+  0.69457     3 1s    0.35831     4 1s    0.35831     5 1s    0.35831     6 1s    0.35831
   31.1     0.00000     2.33853     1 2py   0.27604     1 3d1-  0.70052     2 2py   0.27604     2 3d1- -0.70052     3 1s   -0.52860
                                    4 1s    0.52860     5 1s   -0.52860     6 1s    0.52860
   32.1     0.00000     2.37984     1 1s   -0.47289     1 2pz   0.26386     1 2pz  -0.45039     1 3d0   0.65790     1 3d2+  0.25173
                                    2 1s   -0.47289     2 2pz  -0.26386     2 2pz   0.45039     2 3d0   0.65790     2 3d2+  0.25173
   33.1     0.00000     2.62993     1 1s    0.27918     1 1s   -1.32944     1 2pz   0.27672     1 3d2+  0.79997     2 1s   -0.27918
                                    2 1s    1.32944     2 2pz   0.27672     2 3d2+ -0.79997     3 1s    0.45671     4 1s    0.45671
                                    5 1s   -0.45671     6 1s   -0.45671
   34.1     0.00000     2.67455     1 2px  -0.25879     1 3d1+  0.88377     2 2px   0.25879     2 3d1+  0.88377
   35.1     0.00000     3.02775     1 1s    1.96592     1 2pz  -0.71381     1 2pz  -1.16116     1 3d0   1.09096     2 1s   -1.96592
                                    2 2pz  -0.71381     2 2pz  -1.16116     2 3d0  -1.09096
   36.1     0.00000     3.03744     1 2py   0.60504     1 3d1-  0.95335     2 2py  -0.60504     2 3d1-  0.95335     3 1s   -0.49171
                                    4 1s    0.49171     5 1s    0.49171     6 1s   -0.49171


 HOMO      8.1    -0.361316 =      -9.8319eV
 LUMO      9.1     0.171313 =       4.6617eV
 LUMO-HOMO         0.532629 =      14.4936eV


 **********************************************************************************************************************************
 DATASETS  * FILE   NREC   LENGTH (MB)   RECORD NAMES
              1      19       30.63       500      610      700      900      950      970     1000      129      960     1100   
                                          VAR    BASINP    GEOM    SYMINP    ZMAT    AOBASIS   BASIS     P2S    ABASIS      S 
                                         1400     1410     1200     1210     1080     1600     1650     1300     1700   
                                           T        V       H0       H01     AOSYM     SMH    MOLCAS    ERIS     OPER   

              2       4        2.86       700     1000      520     2100   
                                         GEOM     BASIS   MCVARS     RHF  

 PROGRAMS   *        TOTAL    HF-SCF       INT
 CPU TIMES  *         0.40      0.10      0.22
 REAL TIME  *         0.59 SEC
 DISK USED  *        35.45 MB
 **********************************************************************************************************************************


 PROGRAM * MULTI (Direct Multiconfiguration SCF)       Authors: P.J. Knowles, H.-J. Werner (1984)


 Number of closed-shell orbitals:   7 (   7 )
 Number of active  orbitals:        2 (   2 )
 Number of external orbitals:      27 (  27 )

 State symmetry 1

 Number of electrons:     2    Spin symmetry=Singlet   Space symmetry=1
 Number of states:        3
 Number of CSFs:          3   (4 determinants, 4 intermediate states)

 Molecular orbitals read from record     2100.2  Type=RHF/CANONICAL (state 1.1)

 EXTRA SYMMETRY OF MOS IN SYMMETRY 1:   1 1 1 1 1 1 1 2 2 1   1 1 1 1 1 1 2 1 2 1   1 1 1 1 1 1 2 3 3 1   1 1 1 2 1 1

 Wavefunction dump at record             2140.2

 Convergence thresholds  0.10E-01 (gradient)  0.10E-05 (energy)  0.10E-02 (step length)

 Weight factors for state symmetry  1:    0.33333   0.33333   0.33333

 Number of orbital rotations:      257   (    14 Core/Active    189 Core/Virtual   0 Active/Active     54 Active/Virtual)
 Total number of variables:        269

 Micro-Iterations solved by the two-step solver

 ITER. MIC  NCI  NEG     ENERGY(VAR)     ENERGY(PROJ)   ENERGY CHANGE     GRAD(0)  GRAD(ORB)   GRAD(CI)     STEP       TIME

   1    3    3    0     -77.73876052     -77.74444368   -0.00568316    0.12605863 0.00000120 0.00000000  0.60D-01      0.05
   2    2    3    0     -77.74436155     -77.74436449   -0.00000294    0.00269680 0.00000145 0.00000000  0.14D-02      0.08
   3    2    3    0     -77.74436449     -77.74436449   -0.00000000    0.00000167 0.00000000 0.00000000  0.10D-05      0.11

 ** WVFN ****  CONVERGENCE REACHED, FINAL GRADIENT:  0.74D-12



 Results for state 1.1
 =====================

 !MCSCF STATE  1.1 Energy             -78.047326984523
 Nuclear energy                        33.15873849
 Kinetic energy                        78.04897353
 One electron energy                 -169.74334399
 Two electron energy                   58.53727851
 Virial ratio                           1.99997890

 !MCSCF STATE  1.1 Dipole moment        0.00000000     0.00000000    -0.00000000
 Dipole moment /Debye                   0.00000000     0.00000000    -0.00000000

 Results for state 2.1
 =====================

 !MCSCF STATE  2.1 Energy             -77.679398406551
 Nuclear energy                        33.15873849
 Kinetic energy                        78.23991882
 One electron energy                 -169.23324206
 Two electron energy                   58.39510517
 Virial ratio                           1.99283588

 !MCSCF STATE  2.1 Dipole moment        0.00000000     0.00000000    -0.00000000
 Dipole moment /Debye                   0.00000000     0.00000000    -0.00000000

 Results for state 3.1
 =====================

 !MCSCF STATE  3.1 Energy             -77.506368089147
 Nuclear energy                        33.15873849
 Kinetic energy                        78.43086411
 One electron energy                 -168.72314014
 Two electron energy                   58.05803356
 Virial ratio                           1.98821260

 !MCSCF STATE  3.1 Dipole moment        0.00000000     0.00000000     0.00000000
 Dipole moment /Debye                   0.00000000     0.00000000     0.00000000

 State-averaged charge density matrix saved on record  2140.2 (density set 1)

 !MCSCF trans         <2.1|DMZ|1.1>    -1.512610530614 au =    -3.844420672399 Debye
 !MCSCF trans         <3.1|DMZ|2.1>    -2.334515970884 au =    -5.933359101279 Debye


 NATURAL ORBITALS (state averaged)
 =================================

  Orbital  Occupation    Energy     Coefficients
    1.1     2.00000   -11.24068     1 1s    0.70424     2 1s    0.70424
    2.1     2.00000   -11.23957     1 1s    0.70448     2 1s   -0.70448
    3.1     2.00000    -1.03237     1 1s    0.30845     2 1s    0.30845
    4.1     2.00000    -0.80568     1 1s    0.28177     2 1s   -0.28177
    5.1     2.00000    -0.65260     1 2py   0.32711     2 2py   0.32711
    6.1     2.00000    -0.59031     1 2pz   0.40974     2 2pz  -0.40974
    7.1     2.00000    -0.52175     1 2py   0.31547     2 2py  -0.31547
    8.1     1.00000     0.02787     1 2px   0.38057     1 2px   0.67049     2 2px  -0.38057     2 2px  -0.67049
    9.1     1.00000    -0.21899     1 2px   0.35405     1 2px   0.32622     2 2px   0.35405     2 2px   0.32622
   10.1    -0.00000     0.26467     1 1s   -1.51126     1 2pz  -0.64234     2 1s   -1.51126     2 2pz   0.64234     3 1s    1.05027
                                    4 1s    1.05027     5 1s    1.05027     6 1s    1.05027
   11.1    -0.00000     0.29275     1 2py  -0.83107     2 2py  -0.83107     3 1s    1.12535     4 1s   -1.12535     5 1s    1.12535
                                    6 1s   -1.12535
   12.1    -0.00000     0.30861     1 1s    2.00262     2 1s   -2.00262     3 1s   -1.07736     4 1s   -1.07736     5 1s    1.07736
                                    6 1s    1.07736
   13.1    -0.00000     0.38576     1 2py  -1.85334     2 2py   1.85334     3 1s    1.64660     4 1s   -1.64660     5 1s   -1.64660
                                    6 1s    1.64660
   14.1    -0.00000     0.47854     1 1s   -2.59018     1 2pz   2.76794     2 1s    2.59018     2 2pz   2.76794     3 1s   -0.60632
                                    4 1s   -0.60632     5 1s    0.60632     6 1s    0.60632
   15.1    -0.00000     0.66791     1 2pz  -0.55733     1 2pz   1.00815     2 2pz   0.55733     2 2pz  -1.00815
   16.1    -0.00000     0.74520     1 2py  -0.40773     1 2py   0.79944     2 2py  -0.40773     2 2py   0.79944     3 1s   -0.37655
                                    4 1s    0.37655     5 1s   -0.37655     6 1s    0.37655
   17.1    -0.00000     0.77848     1 2px  -0.75476     1 2px   0.63394     2 2px  -0.75476     2 2px   0.63394
   18.1    -0.00000     0.85799     1 1s   -0.89400     1 1s    1.49758     1 2pz   0.33275     2 1s   -0.89400     2 1s    1.49758
                                    2 2pz  -0.33275     3 1s   -0.39021     4 1s   -0.39021     5 1s   -0.39021     6 1s   -0.39021
   19.1    -0.00000     0.87024     1 2px  -0.80043     1 2px   1.09044     2 2px   0.80043     2 2px  -1.09044
   20.1    -0.00000     0.91475     1 1s   -0.54080     1 2pz   0.62881     1 2pz  -0.68656     2 1s    0.54080     2 2pz   0.62881
                                    2 2pz  -0.68656     3 1s    0.36556     4 1s    0.36556     5 1s   -0.36556     6 1s   -0.36556
   21.1    -0.00000     1.12095     1 2py   0.68852     1 2py  -1.10956     2 2py   0.68852     2 2py  -1.10956     3 1s   -0.38691
                                    3 1s    1.07696     4 1s    0.38691     4 1s   -1.07696     5 1s   -0.38691     5 1s    1.07696
                                    6 1s    0.38691     6 1s   -1.07696
   22.1    -0.00000     1.15154     1 2py   0.92250     1 2py  -2.99718     2 2py  -0.92250     2 2py   2.99718     3 1s    1.56260
                                    4 1s   -1.56260     5 1s   -1.56260     6 1s    1.56260
   23.1    -0.00000     1.22036     1 1s    1.03510     1 1s   -1.73912     1 2pz   0.36757     1 2pz  -0.49891     2 1s    1.03510
                                    2 1s   -1.73912     2 2pz  -0.36757     2 2pz   0.49891     3 1s   -0.44116     3 1s    0.87212
                                    4 1s   -0.44116     4 1s    0.87212     5 1s   -0.44116     5 1s    0.87212     6 1s   -0.44116
                                    6 1s    0.87212
   24.1    -0.00000     1.22205     1 1s   -0.40844     1 2pz  -0.64523     1 2pz   1.52027     2 1s    0.40844     2 2pz  -0.64523
                                    2 2pz   1.52027     3 1s    0.49439     3 1s   -0.89454     4 1s    0.49439     4 1s   -0.89454
                                    5 1s   -0.49439     5 1s    0.89454     6 1s   -0.49439     6 1s    0.89454
   25.1    -0.00000     1.30473     1 1s   -1.66216     1 1s    5.22740     1 2pz  -1.57728     2 1s    1.66216     2 1s   -5.22740
                                    2 2pz  -1.57728     3 1s   -0.52330     4 1s   -0.52330     5 1s    0.52330     6 1s    0.52330
   26.1    -0.00000     1.46673     1 2py   2.46795     2 2py  -2.46795     3 1s   -0.69717     3 1s   -0.66466     4 1s    0.69717
                                    4 1s    0.66466     5 1s    0.69717     5 1s    0.66466     6 1s   -0.69717     6 1s   -0.66466
   27.1    -0.00000     1.70552     1 3d1+  0.62315     2 3d1+ -0.62315
   28.1    -0.00000     1.81777     1 3d2-  0.68407     2 3d2-  0.68407
   29.1    -0.00000     2.09102     1 3d2-  0.73264     2 3d2- -0.73264
   30.1    -0.00000     2.21209     1 1s    0.26070     1 1s   -0.61596     1 3d2+  0.69282     2 1s    0.26070     2 1s   -0.61596
                                    2 3d2+  0.69282     3 1s    0.35896     4 1s    0.35896     5 1s    0.35896     6 1s    0.35896
   31.1    -0.00000     2.32361     1 2py   0.28285     1 3d1-  0.69879     2 2py   0.28285     2 3d1- -0.69879     3 1s   -0.53189
                                    4 1s    0.53189     5 1s   -0.53189     6 1s    0.53189
   32.1    -0.00000     2.36089     1 1s   -0.47004     1 2pz   0.26865     1 2pz  -0.45393     1 3d0   0.65653     1 3d2+  0.25543
                                    2 1s   -0.47004     2 2pz  -0.26865     2 2pz   0.45393     2 3d0   0.65653     2 3d2+  0.25543
   33.1    -0.00000     2.61161     1 1s    0.27988     1 1s   -1.33459     1 2pz   0.27549     1 3d2+  0.79925     2 1s   -0.27988
                                    2 1s    1.33459     2 2pz   0.27549     2 3d2+ -0.79925     3 1s    0.45967     4 1s    0.45967
                                    5 1s   -0.45967     6 1s   -0.45967
   34.1    -0.00000     2.65306     1 2px  -0.25932     1 3d1+  0.88412     2 2px   0.25932     2 3d1+  0.88412
   35.1    -0.00000     3.01128     1 1s    1.98926     1 2pz  -0.70662     1 2pz  -1.17331     1 3d0   1.09238     2 1s   -1.98926
                                    2 2pz  -0.70662     2 2pz  -1.17331     2 3d0  -1.09238
   36.1    -0.00000     3.02556     1 2py   0.60533     1 3d1-  0.95293     2 2py  -0.60533     2 3d1-  0.95293     3 1s   -0.49399
                                    4 1s    0.49399     5 1s    0.49399     6 1s   -0.49399


 Natural orbital dump (state averaged) at molpro section  2140.2    (Orbital set 2)



 **********************************************************************************************************************************
 DATASETS  * FILE   NREC   LENGTH (MB)   RECORD NAMES
              1      20       31.36       500      610      700      900      950      970     1000      129      960     1100   
                                          VAR    BASINP    GEOM    SYMINP    ZMAT    AOBASIS   BASIS     P2S    ABASIS      S 
                                         1400     1410     1200     1210     1080     1600     1650     1300     1700     1380   
                                           T        V       H0       H01     AOSYM     SMH    MOLCAS    ERIS     OPER     JKOP   

              2       5        5.42       700     1000      520     2100     2140   
                                         GEOM     BASIS   MCVARS     RHF     MCSCF   

 PROGRAMS   *        TOTAL     MULTI    HF-SCF       INT
 CPU TIMES  *         0.54      0.14      0.10      0.22
 REAL TIME  *         0.78 SEC
 DISK USED  *        38.54 MB
 **********************************************************************************************************************************
 Molecular orbitals read from record     2140.2  Type=MCSCF/NATURAL (state averaged)
 Occupation numbers read from record     2140.2  Type=MCSCF/NATURAL (state averaged)
 Orbital energies read from record       2140.2  Type=MCSCF/NATURAL (state averaged)
 Redundancy group numbers read from rec  2140.2  Type=MCSCF/NATURAL (state averaged)

 MULTI/6-31G* energy=    -77.506368089147

           MULTI          HF-SCF
    -77.50636809    -78.02774721
 **********************************************************************************************************************************
 Molpro calculation terminated
