
 Primary working directories    : /scratch.local/johan406.molpro_temp/molpro.ubChsMobfU
 Secondary working directories  : /scratch.local/johan406.molpro_temp/molpro.ubChsMobfU
 Wavefunction directory         : /home/goodpast/johan406/wfu/
 Main file repository           : /scratch.local/johan406.molpro_temp/molpro.ubChsMobfU/

 id        : roweumn

 Nodes     nprocs
 cn0416       1

 Using customized tuning parameters: mindgm=1; mindgv=20; mindgc=4; mindgr=1; noblas=0; minvec=7
 default implementation of scratch files=df  


 Variables initialized (934), CPU time= 0.01 sec
                                                                                 !leave this line blank
 
 gprint, orbitals=30
 memory, 125., m
 symmetry, nosym
 nelect=16
 basis=6-31g*
 
 geometry={
 C 0.000 0.000 0.687
 C 0.000 -0.000 -0.687
 H 0.000 0.912 1.235
 H 0.000 -0.912 1.235
 H 0.000 0.912 -1.235
 H 0.000 -0.912 -1.235
 }
 
 hf
 {multi,
 closed 7
 occ 9
 wf,spin=0;STATE,3
 }
 
 Commands  initialized (763), CPU time= 0.01 sec, 617 directives.
 Default parameters read. Elapsed time= 0.05 sec

 Checking input...
 Passed
1


                                         ***  PROGRAM SYSTEM MOLPRO  ***
                                       Copyright, TTI GmbH Stuttgart, 2015
                                    Version 2019.2 linked Oct 25 2019 22:50:27


 **********************************************************************************************************************************
 LABEL *                                                                                 
  64 bit serial version                                                                  DATE: 15-Mar-23          TIME: 16:40:36  
 **********************************************************************************************************************************

 SHA1:             8dbd9ae1082e4ce945b0f27595c9eb2d4aa09004
 **********************************************************************************************************************************


 Variable memory set to  125000000 words,  buffer space 

 SETTING NELECT         =        16.00000000                                  
 SETTING BASIS          =    6-31G*
 ZSYMEL=NOSYM


Geometry recognized as XYZ



 Recomputing integrals since basis changed


 Using spherical harmonics

 Library entry C      S 6-31G                selected for orbital group  1
 Library entry C      P 6-31G                selected for orbital group  1
 Library entry C      D 6-31G*               selected for orbital group  1
 Library entry H      S 6-31G                selected for orbital group  2


 PROGRAM * SEWARD (Integral evaluation for generally contracted gaussian basis sets)     Author: Roland Lindh, 1990

 Geometry written to block  1 of record 700


 Point group  C1  



 ATOMIC COORDINATES

 NR  ATOM    CHARGE       X              Y              Z

   1  C       6.00    0.000000000    0.000000000    1.298241848
   2  C       6.00    0.000000000   -0.000000000   -1.298241848
   3  H       1.00    0.000000000    1.723430226    2.333811764
   4  H       1.00    0.000000000   -1.723430226    2.333811764
   5  H       1.00    0.000000000    1.723430226   -2.333811764
   6  H       1.00    0.000000000   -1.723430226   -2.333811764

 Bond lengths in Bohr (Angstrom)

 1-2  2.596483695  1-3  2.010625971  1-4  2.010625971  2-5  2.010625971  2-6  2.010625971
     ( 1.374000000)     ( 1.063977443)     ( 1.063977443)     ( 1.063977443)     ( 1.063977443)

 Bond angles

  1-2-5  121.00069771   1-2-6  121.00069771   2-1-3  121.00069771   2-1-4  121.00069771

  3-1-4  117.99860457   5-2-6  117.99860457

 NUCLEAR CHARGE:                   16
 NUMBER OF PRIMITIVE AOS:          72
 NUMBER OF SYMMETRY AOS:           70
 NUMBER OF CONTRACTIONS:           36   (   36A   )
 NUMBER OF CORE ORBITALS:           2   (    2A   )
 NUMBER OF VALENCE ORBITALS:       12   (   12A   )


 NUCLEAR REPULSION ENERGY   33.12474347

 EXTRA SYMMETRY OF AOS IN SYMMETRY 1:   1 1 1 2 1 1 2 1 1 1   3 2 1 1 1 1 1 2 1 1   2 1 1 1 3 2 1 1 1 1   1 1 1 1 1 1

 Eigenvalues of metric

         1 0.926E-02 0.170E-01 0.372E-01 0.460E-01 0.682E-01 0.210E+00 0.216E+00 0.232E+00


 Contracted 2-electron integrals neglected if value below      1.0D-11
 AO integral compression algorithm  1   Integral accuracy      1.0D-11

     0.786 MB (compressed) written to integral file ( 37.7%)


 NUMBER OF SORTED TWO-ELECTRON INTEGRALS:     222111.     BUFFER LENGTH:  32768
 NUMBER OF SEGMENTS:   1  SEGMENT LENGTH:     222111      RECORD LENGTH: 524288

 Memory used in sort:       0.78 MW

 SORT1 READ      284735. AND WROTE       98263. INTEGRALS IN      1 RECORDS. CPU TIME:     0.01 SEC, REAL TIME:     0.01 SEC
 SORT2 READ       98263. AND WROTE      222111. INTEGRALS IN      3 RECORDS. CPU TIME:     0.01 SEC, REAL TIME:     0.02 SEC

 FILE SIZES:   FILE 1:    30.9 MBYTE,  FILE 4:     4.2 MBYTE,   TOTAL:     35.1 MBYTE

 OPERATOR DM      FOR CENTER  0  COORDINATES:    0.000000    0.000000    0.000000


 **********************************************************************************************************************************
 DATASETS  * FILE   NREC   LENGTH (MB)   RECORD NAMES
              1      19       30.63       500      610      700      900      950      970     1000      129      960     1100   
                                          VAR    BASINP    GEOM    SYMINP    ZMAT    AOBASIS   BASIS     P2S    ABASIS      S 
                                         1400     1410     1200     1210     1080     1600     1650     1300     1700   
                                           T        V       H0       H01     AOSYM     SMH    MOLCAS    ERIS     OPER   

 PROGRAMS   *        TOTAL       INT
 CPU TIMES  *         0.30      0.22
 REAL TIME  *         0.48 SEC
 DISK USED  *        35.45 MB
 **********************************************************************************************************************************


 PROGRAM * RHF-SCF (CLOSED SHELL)       Authors: W. Meyer, H.-J. Werner


 NUMBER OF ELECTRONS:       8+    8-    SPACE SYMMETRY=1    SPIN SYMMETRY: Singlet 
 CONVERGENCE THRESHOLDS:    1.00E-05 (Density)    1.00E-07 (Energy)
 MAX. NUMBER OF ITERATIONS:       60
 INTERPOLATION TYPE:            DIIS
 INTERPOLATION STEPS:              2 (START)      1 (STEP)
 LEVEL SHIFTS:                  0.00 (CLOSED)  0.00 (OPEN) 



 Orbital guess generated from atomic densities. Full valence occupancy:    8

 Molecular orbital dump at record        2100.2

 Initial occupancy:   8

 ITERATION    DDIFF          GRAD             ENERGY        2-EL.EN.            DIPOLE MOMENTS         DIIS   ORB.
    1      0.000D+00      0.000D+00       -78.00417970    118.015379   -0.00000   -0.00000    0.00000    0    start
    2      0.000D+00      0.826D-02       -78.02509790    116.371822   -0.00000   -0.00000   -0.00000    1    diag
    3      0.798D-02      0.271D-02       -78.02698981    116.942269   -0.00000    0.00000    0.00000    2    diag
    4      0.247D-02      0.692D-03       -78.02718444    116.842885   -0.00000    0.00000   -0.00000    3    diag
    5      0.102D-02      0.640D-04       -78.02718628    116.845568   -0.00000    0.00000   -0.00000    4    diag
    6      0.136D-03      0.677D-05       -78.02718631    116.845197    0.00000    0.00000   -0.00000    5    diag
    7      0.119D-04      0.102D-05       -78.02718631    116.845205    0.00000    0.00000    0.00000    6    diag
    8      0.141D-05      0.108D-06       -78.02718631    116.845200    0.00000   -0.00000   -0.00000    0    orth

 Final occupancy:   8

 !RHF STATE  1.1 Energy               -78.027186305706
 Nuclear energy                        33.12474347
 One-electron energy                 -169.57452997
 Two-electron energy                   58.42260019
 Virial quotient                       -1.00049220
 !RHF STATE  1.1 Dipole moment          0.00000000    -0.00000000    -0.00000000
 Dipole moment /Debye                   0.00000000    -0.00000000    -0.00000000

 ELECTRON ORBITALS
 =================

  Orbital  Occupation    Energy     Coefficients
    1.1     2.00000   -11.22745     1 1s    0.70423     2 1s    0.70423
    2.1     2.00000   -11.22611     1 1s    0.70451     2 1s   -0.70451
    3.1     2.00000    -1.01875     1 1s    0.30050     2 1s    0.30050
    4.1     2.00000    -0.79913     1 1s    0.24274
    5.1     2.00000    -0.64124     1 2py   0.32214     2 2py   0.32214
    6.1     2.00000    -0.57483     1 2pz   0.40777     2 2pz  -0.40777
    7.1     2.00000    -0.51680     1 2py   0.31013     2 2py  -0.31013
    8.1     2.00000    -0.36036     1 2px   0.36967     1 2px   0.31508     2 2px   0.36967     2 2px   0.31508
    9.1     0.00000     0.17041     1 2px   0.34523     1 2px   0.71197     2 2px  -0.34523     2 2px  -0.71197
   10.1     0.00000     0.26722     1 1s   -1.51605     1 2pz  -0.63437     2 1s   -1.51605     2 2pz   0.63437     3 1s    1.05115
                                    4 1s    1.05115     5 1s    1.05115     6 1s    1.05115
   11.1     0.00000     0.30109     1 2py  -0.84242     2 2py  -0.84242     3 1s    1.13631     4 1s   -1.13631     5 1s    1.13631
                                    6 1s   -1.13631
   12.1     0.00000     0.31170     1 1s    1.98052     2 1s   -1.98052     3 1s   -1.08396     4 1s   -1.08396     5 1s    1.08396
                                    6 1s    1.08396
   13.1     0.00000     0.38913     1 2py  -1.86385     2 2py   1.86385     3 1s    1.65448     4 1s   -1.65448     5 1s   -1.65448
                                    6 1s    1.65448
   14.1     0.00000     0.48032     1 1s   -2.57397     1 2pz   2.76669     2 1s    2.57397     2 2pz   2.76669     3 1s   -0.59475
                                    4 1s   -0.59475     5 1s    0.59475     6 1s    0.59475
   15.1     0.00000     0.67900     1 1s    0.31510     1 2pz  -0.56352     1 2pz   1.02905     2 1s    0.31510     2 2pz   0.56352
                                    2 2pz  -1.02905
   16.1     0.00000     0.75474     1 2py  -0.39717     1 2py   0.79747     2 2py  -0.39717     2 2py   0.79747     3 1s   -0.37987
                                    4 1s    0.37987     5 1s   -0.37987     6 1s    0.37987
   17.1     0.00000     0.78497     1 2px  -0.74860     1 2px   0.63965     2 2px  -0.74860     2 2px   0.63965
   18.1     0.00000     0.86098     1 1s   -0.90025     1 1s    1.46680     1 2pz   0.27382     2 1s   -0.90025     2 1s    1.46680
                                    2 2pz  -0.27382     3 1s   -0.38618     4 1s   -0.38618     5 1s   -0.38618     6 1s   -0.38618
   19.1     0.00000     0.88630     1 2px  -0.81500     1 2px   1.06095     2 2px   0.81500     2 2px  -1.06095
   20.1     0.00000     0.92969     1 1s   -0.66382     1 2pz   0.62945     1 2pz  -0.62463     2 1s    0.66382     2 2pz   0.62945
                                    2 2pz  -0.62463     3 1s    0.36204     4 1s    0.36204     5 1s   -0.36204     6 1s   -0.36204
   21.1     0.00000     1.13760     1 2py   0.70008     1 2py  -1.10785     2 2py   0.70008     2 2py  -1.10785     3 1s   -0.38747
                                    3 1s    1.06892     4 1s    0.38747     4 1s   -1.06892     5 1s   -0.38747     5 1s    1.06892
                                    6 1s    0.38747     6 1s   -1.06892
   22.1     0.00000     1.16315     1 2py   0.92505     1 2py  -2.99634     2 2py  -0.92505     2 2py   2.99634     3 1s    1.55974
                                    4 1s   -1.55974     5 1s   -1.55974     6 1s    1.55974
   23.1     0.00000     1.22345     1 1s    1.04058     1 1s   -1.74525     1 2pz   0.36302     1 2pz  -0.49261     2 1s    1.04058
                                    2 1s   -1.74525     2 2pz  -0.36302     2 2pz   0.49261     3 1s   -0.44061     3 1s    0.87336
                                    4 1s   -0.44061     4 1s    0.87336     5 1s   -0.44061     5 1s    0.87336     6 1s   -0.44061
                                    6 1s    0.87336
   24.1     0.00000     1.22507     1 1s   -0.32795     1 2pz  -0.63033     1 2pz   1.42769     2 1s    0.32795     2 2pz  -0.63033
                                    2 2pz   1.42769     3 1s    0.49496     3 1s   -0.92155     4 1s    0.49496     4 1s   -0.92155
                                    5 1s   -0.49496     5 1s    0.92155     6 1s   -0.49496     6 1s    0.92155
   25.1     0.00000     1.32045     1 1s   -1.64553     1 1s    5.21216     1 2pz  -1.65068     2 1s    1.64553     2 1s   -5.21216
                                    2 2pz  -1.65068     3 1s   -0.47429     4 1s   -0.47429     5 1s    0.47429     6 1s    0.47429
   26.1     0.00000     1.47542     1 2py   2.45761     2 2py  -2.45761     3 1s   -0.69841     3 1s   -0.66344     4 1s    0.69841
                                    4 1s    0.66344     5 1s    0.69841     5 1s    0.66344     6 1s   -0.69841     6 1s   -0.66344
   27.1     0.00000     1.72820     1 3d1+  0.62392     2 3d1+ -0.62392
   28.1     0.00000     1.83132     1 3d2-  0.68441     2 3d2-  0.68441
   29.1     0.00000     2.11082     1 3d2-  0.73222     2 3d2- -0.73222
   30.1     0.00000     2.22795     1 1s    0.27111     1 1s   -0.62112     1 3d2+  0.68989     2 1s    0.27111     2 1s   -0.62112
                                    2 3d2+  0.68989     3 1s    0.35417     4 1s    0.35417     5 1s    0.35417     6 1s    0.35417
   31.1     0.00000     2.33876     1 2py   0.27542     1 3d1-  0.70146     2 2py   0.27542     2 3d1- -0.70146     3 1s   -0.52942
                                    4 1s    0.52942     5 1s   -0.52942     6 1s    0.52942
   32.1     0.00000     2.37680     1 1s   -0.46661     1 2pz   0.26032     1 2pz  -0.45073     1 3d0   0.65215     1 3d2+  0.26681
                                    2 1s   -0.46661     2 2pz  -0.26032     2 2pz   0.45073     2 3d0   0.65215     2 3d2+  0.26681
   33.1     0.00000     2.63016     1 1s    0.27799     1 1s   -1.32827     1 2pz   0.27832     1 3d2+  0.80002     2 1s   -0.27799
                                    2 1s    1.32827     2 2pz   0.27832     2 3d2+ -0.80002     3 1s    0.45794     4 1s    0.45794
                                    5 1s   -0.45794     6 1s   -0.45794
   34.1     0.00000     2.67037     1 2px  -0.25807     1 3d1+  0.88151     2 2px   0.25807     2 3d1+  0.88151
   35.1     0.00000     3.02384     1 1s    1.95776     1 2pz  -0.70400     1 2pz  -1.15836     1 3d0   1.08834     2 1s   -1.95776
                                    2 2pz  -0.70400     2 2pz  -1.15836     2 3d0  -1.08834
   36.1     0.00000     3.03317     1 2py   0.60895     1 3d1-  0.95099     2 2py  -0.60895     2 3d1-  0.95099     3 1s   -0.49280
                                    4 1s    0.49280     5 1s    0.49280     6 1s   -0.49280


 HOMO      8.1    -0.360357 =      -9.8058eV
 LUMO      9.1     0.170413 =       4.6372eV
 LUMO-HOMO         0.530770 =      14.4430eV


 **********************************************************************************************************************************
 DATASETS  * FILE   NREC   LENGTH (MB)   RECORD NAMES
              1      19       30.63       500      610      700      900      950      970     1000      129      960     1100   
                                          VAR    BASINP    GEOM    SYMINP    ZMAT    AOBASIS   BASIS     P2S    ABASIS      S 
                                         1400     1410     1200     1210     1080     1600     1650     1300     1700   
                                           T        V       H0       H01     AOSYM     SMH    MOLCAS    ERIS     OPER   

              2       4        2.86       700     1000      520     2100   
                                         GEOM     BASIS   MCVARS     RHF  

 PROGRAMS   *        TOTAL    HF-SCF       INT
 CPU TIMES  *         0.38      0.08      0.22
 REAL TIME  *         0.64 SEC
 DISK USED  *        35.45 MB
 **********************************************************************************************************************************


 PROGRAM * MULTI (Direct Multiconfiguration SCF)       Authors: P.J. Knowles, H.-J. Werner (1984)


 Number of closed-shell orbitals:   7 (   7 )
 Number of active  orbitals:        2 (   2 )
 Number of external orbitals:      27 (  27 )

 State symmetry 1

 Number of electrons:     2    Spin symmetry=Singlet   Space symmetry=1
 Number of states:        3
 Number of CSFs:          3   (4 determinants, 4 intermediate states)

 Molecular orbitals read from record     2100.2  Type=RHF/CANONICAL (state 1.1)

 EXTRA SYMMETRY OF MOS IN SYMMETRY 1:   1 1 1 1 1 1 1 2 2 1   1 1 1 1 1 1 2 1 2 1   1 1 1 1 1 1 2 3 3 1   1 1 1 2 1 1

 Wavefunction dump at record             2140.2

 Convergence thresholds  0.10E-01 (gradient)  0.10E-05 (energy)  0.10E-02 (step length)

 Weight factors for state symmetry  1:    0.33333   0.33333   0.33333

 Number of orbital rotations:      257   (    14 Core/Active    189 Core/Virtual   0 Active/Active     54 Active/Virtual)
 Total number of variables:        269

 Micro-Iterations solved by the two-step solver

 ITER. MIC  NCI  NEG     ENERGY(VAR)     ENERGY(PROJ)   ENERGY CHANGE     GRAD(0)  GRAD(ORB)   GRAD(CI)     STEP       TIME

   1    3    3    0     -77.73967536     -77.74529311   -0.00561775    0.12526613 0.00000116 0.00000000  0.60D-01      0.06
   2    2    3    0     -77.74521281     -77.74521566   -0.00000285    0.00265688 0.00000140 0.00000000  0.14D-02      0.09
   3    2    3    0     -77.74521566     -77.74521566   -0.00000000    0.00000162 0.00000000 0.00000000  0.98D-06      0.12

 ** WVFN ****  CONVERGENCE REACHED, FINAL GRADIENT:  0.69D-12



 Results for state 1.1
 =====================

 !MCSCF STATE  1.1 Energy             -78.047007726376
 Nuclear energy                        33.12474347
 Kinetic energy                        78.04270979
 One electron energy                 -169.67068480
 Two electron energy                   58.49893361
 Virial ratio                           2.00005507

 !MCSCF STATE  1.1 Dipole moment        0.00000000     0.00000000    -0.00000000
 Dipole moment /Debye                   0.00000000     0.00000000    -0.00000000

 Results for state 2.1
 =====================

 !MCSCF STATE  2.1 Energy             -77.680041256929
 Nuclear energy                        33.12474347
 Kinetic energy                        78.23488157
 One electron energy                 -169.16819741
 Two electron energy                   58.36341269
 Virial ratio                           1.99290802

 !MCSCF STATE  2.1 Dipole moment        0.00000000     0.00000000    -0.00000000
 Dipole moment /Debye                   0.00000000     0.00000000    -0.00000000

 Results for state 3.1
 =====================

 !MCSCF STATE  3.1 Energy             -77.508598003693
 Nuclear energy                        33.12474347
 Kinetic energy                        78.42705334
 One electron energy                 -168.66571002
 Two electron energy                   58.03236855
 Virial ratio                           1.98828905

 !MCSCF STATE  3.1 Dipole moment        0.00000000     0.00000000     0.00000000
 Dipole moment /Debye                   0.00000000     0.00000000     0.00000000

 State-averaged charge density matrix saved on record  2140.2 (density set 1)

 !MCSCF trans         <2.1|DMZ|1.1>    -1.512735682376 au =    -3.844738755614 Debye
 !MCSCF trans         <3.1|DMZ|2.1>    -2.342205557486 au =    -5.952902800796 Debye


 NATURAL ORBITALS (state averaged)
 =================================

  Orbital  Occupation    Energy     Coefficients
    1.1     2.00000   -11.24074     1 1s    0.70425     2 1s    0.70425
    2.1     2.00000   -11.23965     1 1s    0.70447     2 1s   -0.70447
    3.1     2.00000    -1.03123     1 1s    0.30822     2 1s    0.30822
    4.1     2.00000    -0.80623     1 1s    0.28124     2 1s   -0.28124
    5.1     2.00000    -0.65271     1 2py   0.32704     2 2py   0.32704
    6.1     2.00000    -0.58922     1 2pz   0.40978     2 2pz  -0.40978
    7.1     2.00000    -0.52285     1 2py   0.31584     2 2py  -0.31584
    8.1     1.00000     0.02716     1 2px   0.38064     1 2px   0.66850     2 2px  -0.38064     2 2px  -0.66850
    9.1     1.00000    -0.21822     1 2px   0.35358     1 2px   0.32706     2 2px   0.35358     2 2px   0.32706
   10.1    -0.00000     0.26469     1 1s   -1.51245     1 2pz  -0.64053     2 1s   -1.51245     2 2pz   0.64053     3 1s    1.05075
                                    4 1s    1.05075     5 1s    1.05075     6 1s    1.05075
   11.1    -0.00000     0.29345     1 2py  -0.83471     2 2py  -0.83471     3 1s    1.12882     4 1s   -1.12882     5 1s    1.12882
                                    6 1s   -1.12882
   12.1    -0.00000     0.30878     1 1s    2.00640     2 1s   -2.00640     3 1s   -1.07757     4 1s   -1.07757     5 1s    1.07757
                                    6 1s    1.07757
   13.1    -0.00000     0.38555     1 2py  -1.85153     2 2py   1.85153     3 1s    1.64844     4 1s   -1.64844     5 1s   -1.64844
                                    6 1s    1.64844
   14.1    -0.00000     0.47727     1 1s   -2.54557     1 2pz   2.74629     2 1s    2.54557     2 2pz   2.74629     3 1s   -0.60619
                                    4 1s   -0.60619     5 1s    0.60619     6 1s    0.60619
   15.1    -0.00000     0.66912     1 2pz  -0.55835     1 2pz   1.00709     2 2pz   0.55835     2 2pz  -1.00709
   16.1    -0.00000     0.74457     1 2py  -0.40753     1 2py   0.80203     2 2py  -0.40753     2 2py   0.80203     3 1s   -0.37597
                                    4 1s    0.37597     5 1s   -0.37597     6 1s    0.37597
   17.1    -0.00000     0.77933     1 2px  -0.75566     1 2px   0.63390     2 2px  -0.75566     2 2px   0.63390
   18.1    -0.00000     0.85783     1 1s   -0.89527     1 1s    1.49658     1 2pz   0.32496     2 1s   -0.89527     2 1s    1.49658
                                    2 2pz  -0.32496     3 1s   -0.38938     4 1s   -0.38938     5 1s   -0.38938     6 1s   -0.38938
   19.1    -0.00000     0.86992     1 2px  -0.80012     1 2px   1.08875     2 2px   0.80012     2 2px  -1.08875
   20.1    -0.00000     0.91222     1 1s   -0.52108     1 2pz   0.63110     1 2pz  -0.70075     2 1s    0.52108     2 2pz   0.63110
                                    2 2pz  -0.70075     3 1s    0.36345     4 1s    0.36345     5 1s   -0.36345     6 1s   -0.36345
   21.1    -0.00000     1.12323     1 2py   0.68976     1 2py  -1.11022     2 2py   0.68976     2 2py  -1.11022     3 1s   -0.38750
                                    3 1s    1.07721     4 1s    0.38750     4 1s   -1.07721     5 1s   -0.38750     5 1s    1.07721
                                    6 1s    0.38750     6 1s   -1.07721
   22.1    -0.00000     1.15182     1 2py   0.92244     1 2py  -3.00061     2 2py  -0.92244     2 2py   3.00061     3 1s    1.56685
                                    4 1s   -1.56685     5 1s   -1.56685     6 1s    1.56685
   23.1    -0.00000     1.22084     1 1s    1.03567     1 1s   -1.74093     1 2pz   0.36712     1 2pz  -0.49831     2 1s    1.03567
                                    2 1s   -1.74093     2 2pz  -0.36712     2 2pz   0.49831     3 1s   -0.44104     3 1s    0.87265
                                    4 1s   -0.44104     4 1s    0.87265     5 1s   -0.44104     5 1s    0.87265     6 1s   -0.44104
                                    6 1s    0.87265
   24.1    -0.00000     1.22172     1 1s   -0.49526     1 2pz  -0.64488     1 2pz   1.54384     2 1s    0.49526     2 2pz  -0.64488
                                    2 2pz   1.54384     3 1s    0.49628     3 1s   -0.88470     4 1s    0.49628     4 1s   -0.88470
                                    5 1s   -0.49628     5 1s    0.88470     6 1s   -0.49628     6 1s    0.88470
   25.1    -0.00000     1.30334     1 1s   -1.66608     1 1s    5.19833     1 2pz  -1.53974     2 1s    1.66608     2 1s   -5.19833
                                    2 2pz  -1.53974     3 1s   -0.54168     4 1s   -0.54168     5 1s    0.54168     6 1s    0.54168
   26.1    -0.00000     1.46706     1 2py   2.46044     2 2py  -2.46044     3 1s   -0.69726     3 1s   -0.66433     4 1s    0.69726
                                    4 1s    0.66433     5 1s    0.69726     5 1s    0.66433     6 1s   -0.69726     6 1s   -0.66433
   27.1    -0.00000     1.70472     1 3d1+  0.62372     2 3d1+ -0.62372
   28.1    -0.00000     1.81900     1 3d2-  0.68441     2 3d2-  0.68441
   29.1    -0.00000     2.08937     1 3d2-  0.73222     2 3d2- -0.73222
   30.1    -0.00000     2.21377     1 1s    0.26985     1 1s   -0.61667     1 3d2+  0.68780     2 1s    0.26985     2 1s   -0.61667
                                    2 3d2+  0.68780     3 1s    0.35453     4 1s    0.35453     5 1s    0.35453     6 1s    0.35453
   31.1    -0.00000     2.32400     1 2py   0.28222     1 3d1-  0.69973     2 2py   0.28222     2 3d1- -0.69973     3 1s   -0.53269
                                    4 1s    0.53269     5 1s   -0.53269     6 1s    0.53269
   32.1    -0.00000     2.35802     1 1s   -0.46354     1 2pz   0.26487     1 2pz  -0.45435     1 3d0   0.65048     1 3d2+  0.27114
                                    2 1s   -0.46354     2 2pz  -0.26487     2 2pz   0.45435     2 3d0   0.65048     2 3d2+  0.27114
   33.1    -0.00000     2.61202     1 1s    0.27867     1 1s   -1.33334     1 2pz   0.27710     1 3d2+  0.79930     2 1s   -0.27867
                                    2 1s    1.33334     2 2pz   0.27710     2 3d2+ -0.79930     3 1s    0.46088     4 1s    0.46088
                                    5 1s   -0.46088     6 1s   -0.46088
   34.1    -0.00000     2.64901     1 2px  -0.25857     1 3d1+  0.88186     2 2px   0.25857     2 3d1+  0.88186
   35.1    -0.00000     3.00755     1 1s    1.98082     1 2pz  -0.69686     1 2pz  -1.17036     1 3d0   1.08973     2 1s   -1.98082
                                    2 2pz  -0.69686     2 2pz  -1.17036     2 3d0  -1.08973
   36.1    -0.00000     3.02142     1 2py   0.60926     1 3d1-  0.95056     2 2py  -0.60926     2 3d1-  0.95056     3 1s   -0.49508
                                    4 1s    0.49508     5 1s    0.49508     6 1s   -0.49508


 Natural orbital dump (state averaged) at molpro section  2140.2    (Orbital set 2)



 **********************************************************************************************************************************
 DATASETS  * FILE   NREC   LENGTH (MB)   RECORD NAMES
              1      20       31.36       500      610      700      900      950      970     1000      129      960     1100   
                                          VAR    BASINP    GEOM    SYMINP    ZMAT    AOBASIS   BASIS     P2S    ABASIS      S 
                                         1400     1410     1200     1210     1080     1600     1650     1300     1700     1380   
                                           T        V       H0       H01     AOSYM     SMH    MOLCAS    ERIS     OPER     JKOP   

              2       5        5.42       700     1000      520     2100     2140   
                                         GEOM     BASIS   MCVARS     RHF     MCSCF   

 PROGRAMS   *        TOTAL     MULTI    HF-SCF       INT
 CPU TIMES  *         0.54      0.16      0.08      0.22
 REAL TIME  *         0.82 SEC
 DISK USED  *        38.54 MB
 **********************************************************************************************************************************
 Molecular orbitals read from record     2140.2  Type=MCSCF/NATURAL (state averaged)
 Occupation numbers read from record     2140.2  Type=MCSCF/NATURAL (state averaged)
 Orbital energies read from record       2140.2  Type=MCSCF/NATURAL (state averaged)
 Redundancy group numbers read from rec  2140.2  Type=MCSCF/NATURAL (state averaged)

 MULTI/6-31G* energy=    -77.508598003693

           MULTI          HF-SCF
    -77.50859800    -78.02718631
 **********************************************************************************************************************************
 Molpro calculation terminated
