
 Primary working directories    : /scratch.local/johan406.molpro_temp/molpro.KkCZs6NeiW
 Secondary working directories  : /scratch.local/johan406.molpro_temp/molpro.KkCZs6NeiW
 Wavefunction directory         : /home/goodpast/johan406/wfu/
 Main file repository           : /scratch.local/johan406.molpro_temp/molpro.KkCZs6NeiW/

 id        : roweumn

 Nodes     nprocs
 cn0416       1

 Using customized tuning parameters: mindgm=1; mindgv=20; mindgc=4; mindgr=1; noblas=0; minvec=7
 default implementation of scratch files=df  


 Variables initialized (934), CPU time= 0.00 sec
                                                                                 !leave this line blank
 
 gprint, orbitals=30
 memory, 125., m
 symmetry, nosym
 nelect=16
 basis=6-31g*
 
 geometry={
 C 0.000 0.000 0.692
 C 0.000 -0.000 -0.692
 H 0.000 0.910 1.237
 H 0.000 -0.910 1.237
 H 0.000 0.910 -1.237
 H 0.000 -0.910 -1.237
 }
 
 hf
 {multi,
 closed 7
 occ 9
 wf,spin=0;STATE,3
 }
 
 Commands  initialized (763), CPU time= 0.01 sec, 617 directives.
 Default parameters read. Elapsed time= 0.04 sec

 Checking input...
 Passed
1


                                         ***  PROGRAM SYSTEM MOLPRO  ***
                                       Copyright, TTI GmbH Stuttgart, 2015
                                    Version 2019.2 linked Oct 25 2019 22:50:27


 **********************************************************************************************************************************
 LABEL *                                                                                 
  64 bit serial version                                                                  DATE: 15-Mar-23          TIME: 16:41:53  
 **********************************************************************************************************************************

 SHA1:             8dbd9ae1082e4ce945b0f27595c9eb2d4aa09004
 **********************************************************************************************************************************


 Variable memory set to  125000000 words,  buffer space 

 SETTING NELECT         =        16.00000000                                  
 SETTING BASIS          =    6-31G*
 ZSYMEL=NOSYM


Geometry recognized as XYZ



 Recomputing integrals since basis changed


 Using spherical harmonics

 Library entry C      S 6-31G                selected for orbital group  1
 Library entry C      P 6-31G                selected for orbital group  1
 Library entry C      D 6-31G*               selected for orbital group  1
 Library entry H      S 6-31G                selected for orbital group  2


 PROGRAM * SEWARD (Integral evaluation for generally contracted gaussian basis sets)     Author: Roland Lindh, 1990

 Geometry written to block  1 of record 700


 Point group  C1  



 ATOMIC COORDINATES

 NR  ATOM    CHARGE       X              Y              Z

   1  C       6.00    0.000000000    0.000000000    1.307690478
   2  C       6.00    0.000000000   -0.000000000   -1.307690478
   3  H       1.00    0.000000000    1.719650773    2.337591216
   4  H       1.00    0.000000000   -1.719650773    2.337591216
   5  H       1.00    0.000000000    1.719650773   -2.337591216
   6  H       1.00    0.000000000   -1.719650773   -2.337591216

 Bond lengths in Bohr (Angstrom)

 1-2  2.615380956  1-3  2.004468586  1-4  2.004468586  2-5  2.004468586  2-6  2.004468586
     ( 1.384000000)     ( 1.060719096)     ( 1.060719096)     ( 1.060719096)     ( 1.060719096)

 Bond angles

  1-2-5  120.91743821   1-2-6  120.91743821   2-1-3  120.91743821   2-1-4  120.91743821

  3-1-4  118.16512358   5-2-6  118.16512358

 NUCLEAR CHARGE:                   16
 NUMBER OF PRIMITIVE AOS:          72
 NUMBER OF SYMMETRY AOS:           70
 NUMBER OF CONTRACTIONS:           36   (   36A   )
 NUMBER OF CORE ORBITALS:           2   (    2A   )
 NUMBER OF VALENCE ORBITALS:       12   (   12A   )


 NUCLEAR REPULSION ENERGY   33.04640161

 EXTRA SYMMETRY OF AOS IN SYMMETRY 1:   1 1 1 2 1 1 2 1 1 1   3 2 1 1 1 1 1 2 1 1   2 1 1 1 3 2 1 1 1 1   1 1 1 1 1 1

 Eigenvalues of metric

         1 0.954E-02 0.171E-01 0.369E-01 0.458E-01 0.676E-01 0.210E+00 0.223E+00 0.233E+00


 Contracted 2-electron integrals neglected if value below      1.0D-11
 AO integral compression algorithm  1   Integral accuracy      1.0D-11

     0.786 MB (compressed) written to integral file ( 37.6%)


 NUMBER OF SORTED TWO-ELECTRON INTEGRALS:     222111.     BUFFER LENGTH:  32768
 NUMBER OF SEGMENTS:   1  SEGMENT LENGTH:     222111      RECORD LENGTH: 524288

 Memory used in sort:       0.78 MW

 SORT1 READ      284735. AND WROTE       98259. INTEGRALS IN      1 RECORDS. CPU TIME:     0.00 SEC, REAL TIME:     0.00 SEC
 SORT2 READ       98259. AND WROTE      222111. INTEGRALS IN      3 RECORDS. CPU TIME:     0.02 SEC, REAL TIME:     0.02 SEC

 FILE SIZES:   FILE 1:    30.9 MBYTE,  FILE 4:     4.2 MBYTE,   TOTAL:     35.1 MBYTE

 OPERATOR DM      FOR CENTER  0  COORDINATES:    0.000000    0.000000    0.000000


 **********************************************************************************************************************************
 DATASETS  * FILE   NREC   LENGTH (MB)   RECORD NAMES
              1      19       30.63       500      610      700      900      950      970     1000      129      960     1100   
                                          VAR    BASINP    GEOM    SYMINP    ZMAT    AOBASIS   BASIS     P2S    ABASIS      S 
                                         1400     1410     1200     1210     1080     1600     1650     1300     1700   
                                           T        V       H0       H01     AOSYM     SMH    MOLCAS    ERIS     OPER   

 PROGRAMS   *        TOTAL       INT
 CPU TIMES  *         0.31      0.21
 REAL TIME  *         0.48 SEC
 DISK USED  *        35.45 MB
 **********************************************************************************************************************************


 PROGRAM * RHF-SCF (CLOSED SHELL)       Authors: W. Meyer, H.-J. Werner


 NUMBER OF ELECTRONS:       8+    8-    SPACE SYMMETRY=1    SPIN SYMMETRY: Singlet 
 CONVERGENCE THRESHOLDS:    1.00E-05 (Density)    1.00E-07 (Energy)
 MAX. NUMBER OF ITERATIONS:       60
 INTERPOLATION TYPE:            DIIS
 INTERPOLATION STEPS:              2 (START)      1 (STEP)
 LEVEL SHIFTS:                  0.00 (CLOSED)  0.00 (OPEN) 



 Orbital guess generated from atomic densities. Full valence occupancy:    8

 Molecular orbital dump at record        2100.2

 Initial occupancy:   8

 ITERATION    DDIFF          GRAD             ENERGY        2-EL.EN.            DIPOLE MOMENTS         DIIS   ORB.
    1      0.000D+00      0.000D+00       -78.00287658    117.817665    0.00000   -0.00000    0.00000    0    start
    2      0.000D+00      0.818D-02       -78.02355196    116.224818   -0.00000    0.00000    0.00000    1    diag
    3      0.792D-02      0.266D-02       -78.02539127    116.779926    0.00000   -0.00000    0.00000    2    diag
    4      0.243D-02      0.687D-03       -78.02558216    116.680402    0.00000   -0.00000    0.00000    3    diag
    5      0.101D-02      0.631D-04       -78.02558396    116.683044    0.00000   -0.00000    0.00000    4    diag
    6      0.134D-03      0.649D-05       -78.02558398    116.682688   -0.00000   -0.00000    0.00000    5    diag
    7      0.111D-04      0.992D-06       -78.02558398    116.682696   -0.00000    0.00000    0.00000    6    diag
    8      0.135D-05      0.102D-06       -78.02558398    116.682692   -0.00000    0.00000    0.00000    0    orth

 Final occupancy:   8

 !RHF STATE  1.1 Energy               -78.025583979187
 Nuclear energy                        33.04640161
 One-electron energy                 -169.41333134
 Two-electron energy                   58.34134575
 Virial quotient                       -1.00056692
 !RHF STATE  1.1 Dipole moment         -0.00000000     0.00000000     0.00000000
 Dipole moment /Debye                  -0.00000000     0.00000000     0.00000000

 ELECTRON ORBITALS
 =================

  Orbital  Occupation    Energy     Coefficients
    1.1     2.00000   -11.22820     1 1s    0.70425     2 1s    0.70425
    2.1     2.00000   -11.22692     1 1s    0.70451     2 1s   -0.70451
    3.1     2.00000    -1.01654     1 1s    0.30008     2 1s    0.30008
    4.1     2.00000    -0.80138     1 1s    0.24374
    5.1     2.00000    -0.64157     1 2py   0.32236     2 2py   0.32236
    6.1     2.00000    -0.57313     1 2pz   0.40779     2 2pz  -0.40779
    7.1     2.00000    -0.51958     1 2py   0.31134     2 2py  -0.31134
    8.1     2.00000    -0.35800     1 2px   0.36876     1 2px   0.31698     2 2px   0.36876     2 2px   0.31698
    9.1     0.00000     0.16811     1 2px   0.34607     1 2px   0.70611     2 2px  -0.34607     2 2px  -0.70611
   10.1     0.00000     0.26769     1 1s   -1.52356     1 2pz  -0.63285     2 1s   -1.52356     2 2pz   0.63285     3 1s    1.05557
                                    4 1s    1.05557     5 1s    1.05557     6 1s    1.05557
   11.1     0.00000     0.30275     1 2py  -0.84961     2 2py  -0.84961     3 1s    1.14442     4 1s   -1.14442     5 1s    1.14442
                                    6 1s   -1.14442
   12.1     0.00000     0.31201     1 1s    1.99001     2 1s   -1.99001     3 1s   -1.08543     4 1s   -1.08543     5 1s    1.08543
                                    6 1s    1.08543
   13.1     0.00000     0.38864     1 2py  -1.85659     2 2py   1.85659     3 1s    1.65874     4 1s   -1.65874     5 1s   -1.65874
                                    6 1s    1.65874
   14.1     0.00000     0.47771     1 1s   -2.46612     1 2pz   2.72181     2 1s    2.46612     2 2pz   2.72181     3 1s   -0.60002
                                    4 1s   -0.60002     5 1s    0.60002     6 1s    0.60002
   15.1     0.00000     0.68188     1 1s    0.33559     1 2pz  -0.56542     1 2pz   1.02790     2 1s    0.33559     2 2pz   0.56542
                                    2 2pz  -1.02790
   16.1     0.00000     0.75162     1 2py  -0.39690     1 2py   0.80155     2 2py  -0.39690     2 2py   0.80155     3 1s   -0.37781
                                    4 1s    0.37781     5 1s   -0.37781     6 1s    0.37781
   17.1     0.00000     0.78693     1 2px  -0.75068     1 2px   0.63969     2 2px  -0.75068     2 2px   0.63969
   18.1     0.00000     0.86112     1 1s   -0.90353     1 1s    1.47252     1 2pz   0.26256     2 1s   -0.90353     2 1s    1.47252
                                    2 2pz  -0.26256     3 1s   -0.38361     4 1s   -0.38361     5 1s   -0.38361     6 1s   -0.38361
   19.1     0.00000     0.88516     1 2px  -0.81405     1 2px   1.05745     2 2px   0.81405     2 2px  -1.05745
   20.1     0.00000     0.92247     1 1s   -0.60586     1 2pz   0.63464     1 2pz  -0.67317     2 1s    0.60586     2 2pz   0.63464
                                    2 2pz  -0.67317     3 1s    0.35685     4 1s    0.35685     5 1s   -0.35685     6 1s   -0.35685
   21.1     0.00000     1.14324     1 2py   0.70223     1 2py  -1.10771     2 2py   0.70223     2 2py  -1.10771     3 1s   -0.38918
                                    3 1s    1.07000     4 1s    0.38918     4 1s   -1.07000     5 1s   -0.38918     5 1s    1.07000
                                    6 1s    0.38918     6 1s   -1.07000
   22.1     0.00000     1.16365     1 2py   0.92456     1 2py  -3.00782     2 2py  -0.92456     2 2py   3.00782     3 1s    1.57164
                                    4 1s   -1.57164     5 1s   -1.57164     6 1s    1.57164
   23.1     0.00000     1.22599     1 1s    1.04126     1 1s   -1.74960     1 2pz   0.36246     1 2pz  -0.49235     2 1s    1.04126
                                    2 1s   -1.74960     2 2pz  -0.36246     2 2pz   0.49235     3 1s   -0.44126     3 1s    0.87534
                                    4 1s   -0.44126     4 1s    0.87534     5 1s   -0.44126     5 1s    0.87534     6 1s   -0.44126
                                    6 1s    0.87534
   24.1     0.00000     1.22603     1 1s   -0.26746     1 1s   -0.30121     1 2pz  -0.63089     1 2pz   1.47601     2 1s    0.26746
                                    2 1s    0.30121     2 2pz  -0.63089     2 2pz   1.47601     3 1s    0.50036     3 1s   -0.90213
                                    4 1s    0.50036     4 1s   -0.90213     5 1s   -0.50036     5 1s    0.90213     6 1s   -0.50036
                                    6 1s    0.90213
   25.1     0.00000     1.31623     1 1s   -1.65601     1 1s    5.14787     1 2pz  -1.56656     2 1s    1.65601     2 1s   -5.14787
                                    2 2pz  -1.56656     3 1s   -0.51478     4 1s   -0.51478     5 1s    0.51478     6 1s    0.51478
   26.1     0.00000     1.47265     1 2py   2.42251     2 2py  -2.42251     3 1s   -0.69760     3 1s   -0.65509     4 1s    0.69760
                                    4 1s    0.65509     5 1s    0.69760     5 1s    0.65509     6 1s   -0.69760     6 1s   -0.65509
   27.1     0.00000     1.72553     1 3d1+  0.62535     2 3d1+ -0.62535
   28.1     0.00000     1.83398     1 3d2-  0.68525     2 3d2-  0.68525
   29.1     0.00000     2.10633     1 3d2-  0.73120     2 3d2- -0.73120
   30.1     0.00000     2.23144     1 1s    0.29262     1 1s   -0.62422     1 3d0  -0.26365     1 3d2+  0.67590     2 1s    0.29262
                                    2 1s   -0.62422     2 3d0  -0.26365     2 3d2+  0.67590     3 1s    0.34307     4 1s    0.34307
                                    5 1s    0.34307     6 1s    0.34307
   31.1     0.00000     2.34142     1 2py   0.27541     1 3d1-  0.70429     2 2py   0.27541     2 3d1- -0.70429     3 1s   -0.53235
                                    4 1s    0.53235     5 1s   -0.53235     6 1s    0.53235
   32.1     0.00000     2.36839     1 1s   -0.44910     1 2pz   0.25057     1 2pz  -0.45270     1 3d0   0.63582     1 3d2+  0.30567
                                    2 1s   -0.44910     2 2pz  -0.25057     2 2pz   0.45270     2 3d0   0.63582     2 3d2+  0.30567
   33.1     0.00000     2.62929     1 1s    0.27389     1 1s   -1.31176     1 2pz   0.27139     1 3d2+  0.79996     2 1s   -0.27389
                                    2 1s    1.31176     2 2pz   0.27139     2 3d2+ -0.79996     3 1s    0.46069     4 1s    0.46069
                                    5 1s   -0.46069     6 1s   -0.46069
   34.1     0.00000     2.65969     1 2px  -0.25630     1 3d1+  0.87596     2 2px   0.25630     2 3d1+  0.87596
   35.1     0.00000     3.01416     1 1s    1.94114     1 2pz  -0.67945     1 2pz  -1.15425     1 3d0   1.08186     2 1s   -1.94114
                                    2 2pz  -0.67945     2 2pz  -1.15425     2 3d0  -1.08186
   36.1     0.00000     3.02756     1 2py   0.61853     1 3d1-  0.94641     2 2py  -0.61853     2 3d1-  0.94641     3 1s   -0.49733
                                    4 1s    0.49733     5 1s    0.49733     6 1s   -0.49733


 HOMO      8.1    -0.358000 =      -9.7417eV
 LUMO      9.1     0.168111 =       4.5745eV
 LUMO-HOMO         0.526111 =      14.3162eV


 **********************************************************************************************************************************
 DATASETS  * FILE   NREC   LENGTH (MB)   RECORD NAMES
              1      19       30.63       500      610      700      900      950      970     1000      129      960     1100   
                                          VAR    BASINP    GEOM    SYMINP    ZMAT    AOBASIS   BASIS     P2S    ABASIS      S 
                                         1400     1410     1200     1210     1080     1600     1650     1300     1700   
                                           T        V       H0       H01     AOSYM     SMH    MOLCAS    ERIS     OPER   

              2       4        2.86       700     1000      520     2100   
                                         GEOM     BASIS   MCVARS     RHF  

 PROGRAMS   *        TOTAL    HF-SCF       INT
 CPU TIMES  *         0.40      0.10      0.21
 REAL TIME  *         0.65 SEC
 DISK USED  *        35.45 MB
 **********************************************************************************************************************************


 PROGRAM * MULTI (Direct Multiconfiguration SCF)       Authors: P.J. Knowles, H.-J. Werner (1984)


 Number of closed-shell orbitals:   7 (   7 )
 Number of active  orbitals:        2 (   2 )
 Number of external orbitals:      27 (  27 )

 State symmetry 1

 Number of electrons:     2    Spin symmetry=Singlet   Space symmetry=1
 Number of states:        3
 Number of CSFs:          3   (4 determinants, 4 intermediate states)

 Molecular orbitals read from record     2100.2  Type=RHF/CANONICAL (state 1.1)

 EXTRA SYMMETRY OF MOS IN SYMMETRY 1:   1 1 1 1 1 1 1 2 2 1   1 1 1 1 1 1 2 1 2 1   1 1 1 1 1 1 2 3 3 1   1 1 1 2 1 1

 Wavefunction dump at record             2140.2

 Convergence thresholds  0.10E-01 (gradient)  0.10E-05 (energy)  0.10E-02 (step length)

 Weight factors for state symmetry  1:    0.33333   0.33333   0.33333

 Number of orbital rotations:      257   (    14 Core/Active    189 Core/Virtual   0 Active/Active     54 Active/Virtual)
 Total number of variables:        269

 Micro-Iterations solved by the two-step solver

 ITER. MIC  NCI  NEG     ENERGY(VAR)     ENERGY(PROJ)   ENERGY CHANGE     GRAD(0)  GRAD(ORB)   GRAD(CI)     STEP       TIME

   1    3    3    0     -77.74176196     -77.74722233   -0.00546037    0.12334351 0.00000107 0.00000000  0.59D-01      0.05
   2    2    3    0     -77.74714641     -77.74714905   -0.00000264    0.00256043 0.00000130 0.00000000  0.13D-02      0.08
   3    2    3    0     -77.74714905     -77.74714905   -0.00000000    0.00000149 0.00000000 0.00000000  0.91D-06      0.11

 ** WVFN ****  CONVERGENCE REACHED, FINAL GRADIENT:  0.59D-12



 Results for state 1.1
 =====================

 !MCSCF STATE  1.1 Energy             -78.046016171878
 Nuclear energy                        33.04640161
 Kinetic energy                        78.03152720
 One electron energy                 -169.50021809
 Two electron energy                   58.40780031
 Virial ratio                           2.00018568

 !MCSCF STATE  1.1 Dipole moment        0.00000000    -0.00000000    -0.00000000
 Dipole moment /Debye                   0.00000000    -0.00000000    -0.00000000

 Results for state 2.1
 =====================

 !MCSCF STATE  2.1 Energy             -77.681458334674
 Nuclear energy                        33.04640161
 Kinetic energy                        78.22652383
 One electron energy                 -169.01661171
 Two electron energy                   58.28875177
 Virial ratio                           1.99303222

 !MCSCF STATE  2.1 Dipole moment        0.00000000    -0.00000000    -0.00000000
 Dipole moment /Debye                   0.00000000    -0.00000000    -0.00000000

 Results for state 3.1
 =====================

 !MCSCF STATE  3.1 Energy             -77.513972655845
 Nuclear energy                        33.04640161
 Kinetic energy                        78.42152047
 One electron energy                 -168.53300533
 Two electron energy                   57.97263107
 Virial ratio                           1.98842731

 !MCSCF STATE  3.1 Dipole moment        0.00000000    -0.00000000    -0.00000000
 Dipole moment /Debye                   0.00000000    -0.00000000    -0.00000000

 State-averaged charge density matrix saved on record  2140.2 (density set 1)

 !MCSCF trans         <2.1|DMZ|1.1>    -1.512842198563 au =    -3.845009475024 Debye
 !MCSCF trans         <3.1|DMZ|2.1>    -2.361627821574 au =    -6.002266038756 Debye


 NATURAL ORBITALS (state averaged)
 =================================

  Orbital  Occupation    Energy     Coefficients
    1.1     2.00000   -11.24083     1 1s    0.70426     2 1s    0.70426
    2.1     2.00000   -11.23980     1 1s    0.70447     2 1s   -0.70447
    3.1     2.00000    -1.02841     1 1s    0.30770     2 1s    0.30770
    4.1     2.00000    -0.80827     1 1s    0.27944     2 1s   -0.27944
    5.1     2.00000    -0.65267     1 2py   0.32707     2 2py   0.32707
    6.1     2.00000    -0.58729     1 2pz   0.40988     2 2pz  -0.40988
    7.1     2.00000    -0.52544     1 2py   0.31686     2 2py  -0.31686
    8.1     1.00000     0.02533     1 2px   0.38079     1 2px   0.66359     2 2px  -0.38079     2 2px  -0.66359
    9.1     1.00000    -0.21633     1 2px   0.35247     1 2px   0.32912     2 2px   0.35247     2 2px   0.32912
   10.1    -0.00000     0.26523     1 1s   -1.52010     1 2pz  -0.63909     2 1s   -1.52010     2 2pz   0.63909     3 1s    1.05521
                                    4 1s    1.05521     5 1s    1.05521     6 1s    1.05521
   11.1    -0.00000     0.29532     1 2py  -0.84244     2 2py  -0.84244     3 1s    1.13722     4 1s   -1.13722     5 1s    1.13722
                                    6 1s   -1.13722
   12.1    -0.00000     0.30914     1 1s    2.01634     2 1s   -2.01634     3 1s   -1.07869     4 1s   -1.07869     5 1s    1.07869
                                    6 1s    1.07869
   13.1    -0.00000     0.38522     1 2py  -1.84482     2 2py   1.84482     3 1s    1.65292     4 1s   -1.65292     5 1s   -1.65292
                                    6 1s    1.65292
   14.1    -0.00000     0.47454     1 1s   -2.43581     1 2pz   2.70065     2 1s    2.43581     2 2pz   2.70065     3 1s   -0.61211
                                    4 1s   -0.61211     5 1s    0.61211     6 1s    0.61211
   15.1    -0.00000     0.67235     1 2pz  -0.56099     1 2pz   1.00619     2 2pz   0.56099     2 2pz  -1.00619
   16.1    -0.00000     0.74157     1 2py  -0.40704     1 2py   0.80546     2 2py  -0.40704     2 2py   0.80546     3 1s   -0.37408
                                    4 1s    0.37408     5 1s   -0.37408     6 1s    0.37408
   17.1    -0.00000     0.78140     1 2px  -0.75785     1 2px   0.63379     2 2px  -0.75785     2 2px   0.63379
   18.1    -0.00000     0.85793     1 1s   -0.89904     1 1s    1.50381     1 2pz   0.31466     2 1s   -0.89904     2 1s    1.50381
                                    2 2pz  -0.31466     3 1s   -0.38715     3 1s   -0.25330     4 1s   -0.38715     4 1s   -0.25330
                                    5 1s   -0.38715     5 1s   -0.25330     6 1s   -0.38715     6 1s   -0.25330
   19.1    -0.00000     0.86913     1 2px  -0.79938     1 2px   1.08453     2 2px   0.79938     2 2px  -1.08453
   20.1    -0.00000     0.90550     1 1s   -0.46729     1 2pz   0.63560     1 2pz  -0.74746     2 1s    0.46729     2 2pz   0.63560
                                    2 2pz  -0.74746     3 1s    0.35850     4 1s    0.35850     5 1s   -0.35850     6 1s   -0.35850
   21.1    -0.00000     1.12922     1 2py   0.69222     1 2py  -1.11021     2 2py   0.69222     2 2py  -1.11021     3 1s   -0.38905
                                    3 1s    1.07809     4 1s    0.38905     4 1s   -1.07809     5 1s   -0.38905     5 1s    1.07809
                                    6 1s    0.38905     6 1s   -1.07809
   22.1    -0.00000     1.15267     1 2py   0.92205     1 2py  -3.01198     2 2py  -0.92205     2 2py   3.01198     3 1s    1.57854
                                    4 1s   -1.57854     5 1s   -1.57854     6 1s    1.57854
   23.1    -0.00000     1.22228     1 1s   -0.71657     1 2pz  -0.64434     1 2pz   1.60036     2 1s    0.71657     2 2pz  -0.64434
                                    2 2pz   1.60036     3 1s    0.50047     3 1s   -0.85642     4 1s    0.50047     4 1s   -0.85642
                                    5 1s   -0.50047     5 1s    0.85642     6 1s   -0.50047     6 1s    0.85642
   24.1    -0.00000     1.22356     1 1s    1.03634     1 1s   -1.74518     1 2pz   0.36665     1 2pz  -0.49804     2 1s    1.03634
                                    2 1s   -1.74518     2 2pz  -0.36665     2 2pz   0.49804     3 1s   -0.44167     3 1s    0.87455
                                    4 1s   -0.44167     4 1s    0.87455     5 1s   -0.44167     5 1s    0.87455     6 1s   -0.44167
                                    6 1s    0.87455
   25.1    -0.00000     1.29997     1 1s   -1.67340     1 1s    5.11359     1 2pz  -1.43568     2 1s    1.67340     2 1s   -5.11359
                                    2 2pz  -1.43568     3 1s   -0.58936     4 1s   -0.58936     5 1s    0.58936     6 1s    0.58936
   26.1    -0.00000     1.46437     1 2py   2.42509     2 2py  -2.42509     3 1s   -0.69646     3 1s   -0.65584     4 1s    0.69646
                                    4 1s    0.65584     5 1s    0.69646     5 1s    0.65584     6 1s   -0.69646     6 1s   -0.65584
   27.1    -0.00000     1.70267     1 3d1+  0.62516     2 3d1+ -0.62516
   28.1    -0.00000     1.82208     1 3d2-  0.68525     2 3d2-  0.68525
   29.1    -0.00000     2.08533     1 3d2-  0.73120     2 3d2- -0.73120
   30.1    -0.00000     2.21752     1 1s    0.29238     1 1s   -0.61945     1 3d0  -0.26972     1 3d2+  0.67271     2 1s    0.29238
                                    2 1s   -0.61945     2 3d0  -0.26972     2 3d2+  0.67271     3 1s    0.34255     4 1s    0.34255
                                    5 1s    0.34255     6 1s    0.34255
   31.1    -0.00000     2.32705     1 2py   0.28217     1 3d1-  0.70258     2 2py   0.28217     2 3d1- -0.70258     3 1s   -0.53558
                                    4 1s    0.53558     5 1s   -0.53558     6 1s    0.53558
   32.1    -0.00000     2.35008     1 1s   -0.44528     1 2pz   0.25437     1 2pz  -0.45650     1 3d0   0.63317     1 3d2+  0.31178
                                    2 1s   -0.44528     2 2pz  -0.25437     2 2pz   0.45650     2 3d0   0.63317     2 3d2+  0.31178
                                    3 1s    0.25188     4 1s    0.25188     5 1s    0.25188     6 1s    0.25188
   33.1    -0.00000     2.61158     1 1s    0.27451     1 1s   -1.31654     1 2pz   0.27010     1 3d2+  0.79925     2 1s   -0.27451
                                    2 1s    1.31654     2 2pz   0.27010     2 3d2+ -0.79925     3 1s    0.46359     4 1s    0.46359
                                    5 1s   -0.46359     6 1s   -0.46359
   34.1    -0.00000     2.63867     1 2px  -0.25673     1 3d1+  0.87630     2 2px   0.25673     2 3d1+  0.87630
   35.1    -0.00000     2.99834     1 1s    1.96345     1 2pz  -0.67241     1 2pz  -1.16586     1 3d0   1.08319     2 1s   -1.96345
                                    2 2pz  -0.67241     2 2pz  -1.16586     2 3d0  -1.08319
   36.1    -0.00000     3.01608     1 2py   0.61882     1 3d1-  0.94597     2 2py  -0.61882     2 3d1-  0.94597     3 1s   -0.49959
                                    4 1s    0.49959     5 1s    0.49959     6 1s   -0.49959


 Natural orbital dump (state averaged) at molpro section  2140.2    (Orbital set 2)



 **********************************************************************************************************************************
 DATASETS  * FILE   NREC   LENGTH (MB)   RECORD NAMES
              1      20       31.36       500      610      700      900      950      970     1000      129      960     1100   
                                          VAR    BASINP    GEOM    SYMINP    ZMAT    AOBASIS   BASIS     P2S    ABASIS      S 
                                         1400     1410     1200     1210     1080     1600     1650     1300     1700     1380   
                                           T        V       H0       H01     AOSYM     SMH    MOLCAS    ERIS     OPER     JKOP   

              2       5        5.42       700     1000      520     2100     2140   
                                         GEOM     BASIS   MCVARS     RHF     MCSCF   

 PROGRAMS   *        TOTAL     MULTI    HF-SCF       INT
 CPU TIMES  *         0.56      0.16      0.10      0.21
 REAL TIME  *         0.87 SEC
 DISK USED  *        38.54 MB
 **********************************************************************************************************************************
 Molecular orbitals read from record     2140.2  Type=MCSCF/NATURAL (state averaged)
 Occupation numbers read from record     2140.2  Type=MCSCF/NATURAL (state averaged)
 Orbital energies read from record       2140.2  Type=MCSCF/NATURAL (state averaged)
 Redundancy group numbers read from rec  2140.2  Type=MCSCF/NATURAL (state averaged)

 MULTI/6-31G* energy=    -77.513972655845

           MULTI          HF-SCF
    -77.51397266    -78.02558398
 **********************************************************************************************************************************
 Molpro calculation terminated
