
 Primary working directories    : /scratch.local/johan406.molpro_temp/molpro.PzLuMxxfSC
 Secondary working directories  : /scratch.local/johan406.molpro_temp/molpro.PzLuMxxfSC
 Wavefunction directory         : /home/goodpast/johan406/wfu/
 Main file repository           : /scratch.local/johan406.molpro_temp/molpro.PzLuMxxfSC/

 id        : roweumn

 Nodes     nprocs
 cn0416       1

 Using customized tuning parameters: mindgm=1; mindgv=20; mindgc=4; mindgr=1; noblas=0; minvec=7
 default implementation of scratch files=df  


 Variables initialized (934), CPU time= 0.00 sec
                                                                                 !leave this line blank
 
 gprint, orbitals=30
 memory, 125., m
 symmetry, nosym
 nelect=16
 basis=6-31g*
 
 geometry={
 C 0.000 0.000 0.695
 C 0.000 -0.000 -0.695
 H 0.000 0.908 1.242
 H 0.000 -0.908 1.242
 H 0.000 0.908 -1.242
 H 0.000 -0.908 -1.242
 }
 
 hf
 {multi,
 closed 7
 occ 9
 wf,spin=0;STATE,3
 }
 
 Commands  initialized (763), CPU time= 0.01 sec, 617 directives.
 Default parameters read. Elapsed time= 0.04 sec

 Checking input...
 Passed
1


                                         ***  PROGRAM SYSTEM MOLPRO  ***
                                       Copyright, TTI GmbH Stuttgart, 2015
                                    Version 2019.2 linked Oct 25 2019 22:50:27


 **********************************************************************************************************************************
 LABEL *                                                                                 
  64 bit serial version                                                                  DATE: 15-Mar-23          TIME: 16:42:30  
 **********************************************************************************************************************************

 SHA1:             8dbd9ae1082e4ce945b0f27595c9eb2d4aa09004
 **********************************************************************************************************************************


 Variable memory set to  125000000 words,  buffer space 

 SETTING NELECT         =        16.00000000                                  
 SETTING BASIS          =    6-31G*
 ZSYMEL=NOSYM


Geometry recognized as XYZ



 Recomputing integrals since basis changed


 Using spherical harmonics

 Library entry C      S 6-31G                selected for orbital group  1
 Library entry C      P 6-31G                selected for orbital group  1
 Library entry C      D 6-31G*               selected for orbital group  1
 Library entry H      S 6-31G                selected for orbital group  2


 PROGRAM * SEWARD (Integral evaluation for generally contracted gaussian basis sets)     Author: Roland Lindh, 1990

 Geometry written to block  1 of record 700


 Point group  C1  



 ATOMIC COORDINATES

 NR  ATOM    CHARGE       X              Y              Z

   1  C       6.00    0.000000000    0.000000000    1.313359657
   2  C       6.00    0.000000000   -0.000000000   -1.313359657
   3  H       1.00    0.000000000    1.715871321    2.347039847
   4  H       1.00    0.000000000   -1.715871321    2.347039847
   5  H       1.00    0.000000000    1.715871321   -2.347039847
   6  H       1.00    0.000000000   -1.715871321   -2.347039847

 Bond lengths in Bohr (Angstrom)

 1-2  2.626719313  1-3  2.003174762  1-4  2.003174762  2-5  2.003174762  2-6  2.003174762
     ( 1.390000000)     ( 1.060034433)     ( 1.060034433)     ( 1.060034433)     ( 1.060034433)

 Bond angles

  1-2-5  121.06572270   1-2-6  121.06572270   2-1-3  121.06572270   2-1-4  121.06572270

  3-1-4  117.86855459   5-2-6  117.86855459

 NUCLEAR CHARGE:                   16
 NUMBER OF PRIMITIVE AOS:          72
 NUMBER OF SYMMETRY AOS:           70
 NUMBER OF CONTRACTIONS:           36   (   36A   )
 NUMBER OF CORE ORBITALS:           2   (    2A   )
 NUMBER OF VALENCE ORBITALS:       12   (   12A   )


 NUCLEAR REPULSION ENERGY   32.97585765

 EXTRA SYMMETRY OF AOS IN SYMMETRY 1:   1 1 1 2 1 1 2 1 1 1   3 2 1 1 1 1 1 2 1 1   2 1 1 1 3 2 1 1 1 1   1 1 1 1 1 1

 Eigenvalues of metric

         1 0.975E-02 0.173E-01 0.367E-01 0.456E-01 0.678E-01 0.210E+00 0.227E+00 0.234E+00


 Contracted 2-electron integrals neglected if value below      1.0D-11
 AO integral compression algorithm  1   Integral accuracy      1.0D-11

     0.786 MB (compressed) written to integral file ( 37.6%)


 NUMBER OF SORTED TWO-ELECTRON INTEGRALS:     222111.     BUFFER LENGTH:  32768
 NUMBER OF SEGMENTS:   1  SEGMENT LENGTH:     222111      RECORD LENGTH: 524288

 Memory used in sort:       0.78 MW

 SORT1 READ      284735. AND WROTE       98251. INTEGRALS IN      1 RECORDS. CPU TIME:     0.00 SEC, REAL TIME:     0.00 SEC
 SORT2 READ       98251. AND WROTE      222111. INTEGRALS IN      3 RECORDS. CPU TIME:     0.02 SEC, REAL TIME:     0.02 SEC

 FILE SIZES:   FILE 1:    30.9 MBYTE,  FILE 4:     4.2 MBYTE,   TOTAL:     35.1 MBYTE

 OPERATOR DM      FOR CENTER  0  COORDINATES:    0.000000    0.000000    0.000000


 **********************************************************************************************************************************
 DATASETS  * FILE   NREC   LENGTH (MB)   RECORD NAMES
              1      19       30.63       500      610      700      900      950      970     1000      129      960     1100   
                                          VAR    BASINP    GEOM    SYMINP    ZMAT    AOBASIS   BASIS     P2S    ABASIS      S 
                                         1400     1410     1200     1210     1080     1600     1650     1300     1700   
                                           T        V       H0       H01     AOSYM     SMH    MOLCAS    ERIS     OPER   

 PROGRAMS   *        TOTAL       INT
 CPU TIMES  *         0.30      0.21
 REAL TIME  *         0.48 SEC
 DISK USED  *        35.45 MB
 **********************************************************************************************************************************


 PROGRAM * RHF-SCF (CLOSED SHELL)       Authors: W. Meyer, H.-J. Werner


 NUMBER OF ELECTRONS:       8+    8-    SPACE SYMMETRY=1    SPIN SYMMETRY: Singlet 
 CONVERGENCE THRESHOLDS:    1.00E-05 (Density)    1.00E-07 (Energy)
 MAX. NUMBER OF ITERATIONS:       60
 INTERPOLATION TYPE:            DIIS
 INTERPOLATION STEPS:              2 (START)      1 (STEP)
 LEVEL SHIFTS:                  0.00 (CLOSED)  0.00 (OPEN) 



 Orbital guess generated from atomic densities. Full valence occupancy:    8

 Molecular orbital dump at record        2100.2

 Initial occupancy:   8

 ITERATION    DDIFF          GRAD             ENERGY        2-EL.EN.            DIPOLE MOMENTS         DIIS   ORB.
    1      0.000D+00      0.000D+00       -78.00211435    117.652653   -0.00000   -0.00000    0.00000    0    start
    2      0.000D+00      0.812D-02       -78.02262841    116.090773   -0.00000    0.00000    0.00000    1    diag
    3      0.788D-02      0.263D-02       -78.02443916    116.637285   -0.00000    0.00000    0.00000    2    diag
    4      0.241D-02      0.684D-03       -78.02462821    116.537442    0.00000    0.00000   -0.00000    3    diag
    5      0.100D-02      0.628D-04       -78.02462998    116.540088   -0.00000   -0.00000   -0.00000    4    diag
    6      0.132D-03      0.642D-05       -78.02463000    116.539737   -0.00000    0.00000   -0.00000    5    diag
    7      0.109D-04      0.990D-06       -78.02463000    116.539746   -0.00000    0.00000    0.00000    6    diag
    8      0.135D-05      0.101D-06       -78.02463000    116.539741   -0.00000   -0.00000   -0.00000    0    orth

 Final occupancy:   8

 !RHF STATE  1.1 Energy               -78.024629998822
 Nuclear energy                        32.97585765
 One-electron energy                 -169.27035820
 Two-electron energy                   58.26987055
 Virial quotient                       -1.00071741
 !RHF STATE  1.1 Dipole moment         -0.00000000    -0.00000000    -0.00000000
 Dipole moment /Debye                  -0.00000000    -0.00000000    -0.00000000

 ELECTRON ORBITALS
 =================

  Orbital  Occupation    Energy     Coefficients
    1.1     2.00000   -11.22912     1 1s    0.70425     2 1s    0.70425
    2.1     2.00000   -11.22788     1 1s    0.70450     2 1s   -0.70450
    3.1     2.00000    -1.01491     1 1s    0.29992     2 1s    0.29992
    4.1     2.00000    -0.80277     1 1s    0.24410
    5.1     2.00000    -0.64063     1 2py   0.32245     2 2py   0.32245
    6.1     2.00000    -0.57296     1 2pz   0.40754     2 2pz  -0.40754
    7.1     2.00000    -0.52034     1 2py   0.31173     2 2py  -0.31173
    8.1     2.00000    -0.35670     1 2px   0.36831     1 2px   0.31803     2 2px   0.36831     2 2px   0.31803
    9.1     0.00000     0.16664     1 2px   0.34660     1 2px   0.70260     2 2px  -0.34660     2 2px  -0.70260
   10.1     0.00000     0.26814     1 1s   -1.52813     1 2pz  -0.63485     2 1s   -1.52813     2 2pz   0.63485     3 1s    1.05918
                                    4 1s    1.05918     5 1s    1.05918     6 1s    1.05918
   11.1     0.00000     0.30322     1 2py  -0.84950     2 2py  -0.84950     3 1s    1.14440     4 1s   -1.14440     5 1s    1.14440
                                    6 1s   -1.14440
   12.1     0.00000     0.31141     1 1s    1.98683     2 1s   -1.98683     3 1s   -1.08405     4 1s   -1.08405     5 1s    1.08405
                                    6 1s    1.08405
   13.1     0.00000     0.38838     1 2py  -1.84421     2 2py   1.84421     3 1s    1.65454     4 1s   -1.65454     5 1s   -1.65454
                                    6 1s    1.65454
   14.1     0.00000     0.47676     1 1s   -2.41029     1 2pz   2.70462     2 1s    2.41029     2 2pz   2.70462     3 1s   -0.60716
                                    4 1s   -0.60716     5 1s    0.60716     6 1s    0.60716
   15.1     0.00000     0.68424     1 1s    0.34416     1 2pz  -0.56769     1 2pz   1.02931     2 1s    0.34416     2 2pz   0.56769
                                    2 2pz  -1.02931
   16.1     0.00000     0.74854     1 2py  -0.39725     1 2py   0.79674     2 2py  -0.39725     2 2py   0.79674     3 1s   -0.37659
                                    4 1s    0.37659     5 1s   -0.37659     6 1s    0.37659
   17.1     0.00000     0.78795     1 2px  -0.75184     1 2px   0.63975     2 2px  -0.75184     2 2px   0.63975
   18.1     0.00000     0.86175     1 1s   -0.90507     1 1s    1.48242     1 2pz   0.26915     2 1s   -0.90507     2 1s    1.48242
                                    2 2pz  -0.26915     3 1s   -0.38328     4 1s   -0.38328     5 1s   -0.38328     6 1s   -0.38328
   19.1     0.00000     0.88431     1 2px  -0.81348     1 2px   1.05539     2 2px   0.81348     2 2px  -1.05539
   20.1     0.00000     0.91757     1 1s   -0.55367     1 2pz   0.63605     1 2pz  -0.71536     2 1s    0.55367     2 2pz   0.63605
                                    2 2pz  -0.71536     3 1s    0.35488     4 1s    0.35488     5 1s   -0.35488     6 1s   -0.35488
   21.1     0.00000     1.14521     1 2py   0.70240     1 2py  -1.10423     2 2py   0.70240     2 2py  -1.10423     3 1s   -0.39015
                                    3 1s    1.06884     4 1s    0.39015     4 1s   -1.06884     5 1s   -0.39015     5 1s    1.06884
                                    6 1s    0.39015     6 1s   -1.06884
   22.1     0.00000     1.16304     1 2py   0.92358     1 2py  -2.99749     2 2py  -0.92358     2 2py   2.99749     3 1s    1.56974
                                    4 1s   -1.56974     5 1s   -1.56974     6 1s    1.56974
   23.1     0.00000     1.22661     1 1s   -0.35991     1 2pz  -0.63181     1 2pz   1.48858     2 1s    0.35991     2 2pz  -0.63181
                                    2 2pz   1.48858     3 1s    0.50258     3 1s   -0.89237     4 1s    0.50258     4 1s   -0.89237
                                    5 1s   -0.50258     5 1s    0.89237     6 1s   -0.50258     6 1s    0.89237
   24.1     0.00000     1.22723     1 1s    1.04075     1 1s   -1.74997     1 2pz   0.36212     1 2pz  -0.49319     2 1s    1.04075
                                    2 1s   -1.74997     2 2pz  -0.36212     2 2pz   0.49319     3 1s   -0.44227     3 1s    0.87627
                                    4 1s   -0.44227     4 1s    0.87627     5 1s   -0.44227     5 1s    0.87627     6 1s   -0.44227
                                    6 1s    0.87627
   25.1     0.00000     1.31341     1 1s   -1.65853     1 1s    5.09922     1 2pz  -1.52088     2 1s    1.65853     2 1s   -5.09922
                                    2 2pz  -1.52088     3 1s   -0.52997     4 1s   -0.52997     5 1s    0.52997     6 1s    0.52997
   26.1     0.00000     1.46531     1 2py   2.38910     2 2py  -2.38910     3 1s   -0.69500     3 1s   -0.64184     4 1s    0.69500
                                    4 1s    0.64184     5 1s    0.69500     5 1s    0.64184     6 1s   -0.69500     6 1s   -0.64184
   27.1     0.00000     1.72378     1 3d1+  0.62621     2 3d1+ -0.62621
   28.1     0.00000     1.83582     1 3d2-  0.68574     2 3d2-  0.68574
   29.1     0.00000     2.10398     1 3d2-  0.73061     2 3d2- -0.73061
   30.1     0.00000     2.23194     1 1s    0.30200     1 1s   -0.62606     1 3d0  -0.27954     1 3d2+  0.66827     2 1s    0.30200
                                    2 1s   -0.62606     2 3d0  -0.27954     2 3d2+  0.66827     3 1s    0.33723     4 1s    0.33723
                                    5 1s    0.33723     6 1s    0.33723
   31.1     0.00000     2.34246     1 2py   0.27484     1 3d1-  0.70588     2 2py   0.27484     2 3d1- -0.70588     3 1s   -0.53317
                                    4 1s    0.53317     5 1s   -0.53317     6 1s    0.53317
   32.1     0.00000     2.36125     1 1s   -0.43842     1 2pz  -0.45521     1 3d0   0.62697     1 3d2+  0.32323     2 1s   -0.43842
                                    2 2pz   0.45521     2 3d0   0.62697     2 3d2+  0.32323     3 1s    0.25676     4 1s    0.25676
                                    5 1s    0.25676     6 1s    0.25676
   33.1     0.00000     2.62411     1 1s    0.27144     1 1s   -1.28007     1 2pz   0.25175     1 3d2+  0.79892     2 1s   -0.27144
                                    2 1s    1.28007     2 2pz   0.25175     2 3d2+ -0.79892     3 1s    0.45988     4 1s    0.45988
                                    5 1s   -0.45988     6 1s   -0.45988
   34.1     0.00000     2.65301     1 2px  -0.25528     1 3d1+  0.87270     2 2px   0.25528     2 3d1+  0.87270
   35.1     0.00000     3.00832     1 1s    1.93749     1 2pz  -0.66406     1 2pz  -1.15596     1 3d0   1.07807     2 1s   -1.93749
                                    2 2pz  -0.66406     2 2pz  -1.15596     2 3d0  -1.07807
   36.1     0.00000     3.02763     1 2py   0.61722     1 3d1-  0.94431     2 2py  -0.61722     2 3d1-  0.94431     3 1s   -0.49956
                                    4 1s    0.49956     5 1s    0.49956     6 1s   -0.49956


 HOMO      8.1    -0.356702 =      -9.7063eV
 LUMO      9.1     0.166639 =       4.5345eV
 LUMO-HOMO         0.523340 =      14.2408eV


 **********************************************************************************************************************************
 DATASETS  * FILE   NREC   LENGTH (MB)   RECORD NAMES
              1      19       30.63       500      610      700      900      950      970     1000      129      960     1100   
                                          VAR    BASINP    GEOM    SYMINP    ZMAT    AOBASIS   BASIS     P2S    ABASIS      S 
                                         1400     1410     1200     1210     1080     1600     1650     1300     1700   
                                           T        V       H0       H01     AOSYM     SMH    MOLCAS    ERIS     OPER   

              2       4        2.86       700     1000      520     2100   
                                         GEOM     BASIS   MCVARS     RHF  

 PROGRAMS   *        TOTAL    HF-SCF       INT
 CPU TIMES  *         0.39      0.10      0.21
 REAL TIME  *         0.60 SEC
 DISK USED  *        35.45 MB
 **********************************************************************************************************************************


 PROGRAM * MULTI (Direct Multiconfiguration SCF)       Authors: P.J. Knowles, H.-J. Werner (1984)


 Number of closed-shell orbitals:   7 (   7 )
 Number of active  orbitals:        2 (   2 )
 Number of external orbitals:      27 (  27 )

 State symmetry 1

 Number of electrons:     2    Spin symmetry=Singlet   Space symmetry=1
 Number of states:        3
 Number of CSFs:          3   (4 determinants, 4 intermediate states)

 Molecular orbitals read from record     2100.2  Type=RHF/CANONICAL (state 1.1)

 EXTRA SYMMETRY OF MOS IN SYMMETRY 1:   1 1 1 1 1 1 1 2 2 1   1 1 1 1 1 1 2 1 2 1   1 1 1 1 1 1 2 3 3 1   1 1 1 2 1 1

 Wavefunction dump at record             2140.2

 Convergence thresholds  0.10E-01 (gradient)  0.10E-05 (energy)  0.10E-02 (step length)

 Weight factors for state symmetry  1:    0.33333   0.33333   0.33333

 Number of orbital rotations:      257   (    14 Core/Active    189 Core/Virtual   0 Active/Active     54 Active/Virtual)
 Total number of variables:        269

 Micro-Iterations solved by the two-step solver

 ITER. MIC  NCI  NEG     ENERGY(VAR)     ENERGY(PROJ)   ENERGY CHANGE     GRAD(0)  GRAD(ORB)   GRAD(CI)     STEP       TIME

   1    3    3    0     -77.74299922     -77.74837333   -0.00537411    0.12224531 0.00000103 0.00000000  0.58D-01      0.05
   2    2    3    0     -77.74829973     -77.74830227   -0.00000254    0.00250888 0.00000125 0.00000000  0.13D-02      0.08
   3    2    3    0     -77.74830227     -77.74830227   -0.00000000    0.00000143 0.00000000 0.00000000  0.87D-06      0.11

 ** WVFN ****  CONVERGENCE REACHED, FINAL GRADIENT:  0.54D-12



 Results for state 1.1
 =====================

 !MCSCF STATE  1.1 Energy             -78.045432093117
 Nuclear energy                        32.97585765
 Kinetic energy                        78.01658939
 One electron energy                 -169.35226485
 Two electron energy                   58.33097511
 Virial ratio                           2.00036970

 !MCSCF STATE  1.1 Dipole moment        0.00000000     0.00000000    -0.00000000
 Dipole moment /Debye                   0.00000000     0.00000000    -0.00000000

 Results for state 2.1
 =====================

 !MCSCF STATE  2.1 Energy             -77.682301351333
 Nuclear energy                        32.97585765
 Kinetic energy                        78.21302182
 One electron energy                 -168.87991991
 Two electron energy                   58.22176091
 Virial ratio                           1.99321442

 !MCSCF STATE  2.1 Dipole moment        0.00000000     0.00000000     0.00000000
 Dipole moment /Debye                   0.00000000     0.00000000     0.00000000

 Results for state 3.1
 =====================

 !MCSCF STATE  3.1 Energy             -77.517173370755
 Nuclear energy                        32.97585765
 Kinetic energy                        78.40945425
 One electron energy                 -168.40757497
 Two electron energy                   57.91454395
 Virial ratio                           1.98862024

 !MCSCF STATE  3.1 Dipole moment        0.00000000     0.00000000    -0.00000000
 Dipole moment /Debye                   0.00000000     0.00000000    -0.00000000

 State-averaged charge density matrix saved on record  2140.2 (density set 1)

 !MCSCF trans         <2.1|DMZ|1.1>    -1.512690644426 au =    -3.844624288059 Debye
 !MCSCF trans         <3.1|DMZ|2.1>    -2.373321970347 au =    -6.031987653394 Debye


 NATURAL ORBITALS (state averaged)
 =================================

  Orbital  Occupation    Energy     Coefficients
    1.1     2.00000   -11.24134     1 1s    0.70427     2 1s    0.70427
    2.1     2.00000   -11.24035     1 1s    0.70446     2 1s   -0.70446
    3.1     2.00000    -1.02639     1 1s    0.30748     2 1s    0.30748
    4.1     2.00000    -0.80949     1 1s    0.27847     2 1s   -0.27847
    5.1     2.00000    -0.65146     1 2py   0.32706     2 2py   0.32706
    6.1     2.00000    -0.58694     1 2pz   0.40967     2 2pz  -0.40967
    7.1     2.00000    -0.52604     1 2py   0.31713     2 2py  -0.31713
    8.1     1.00000     0.02415     1 2px   0.38088     1 2px   0.66067     2 2px  -0.38088     2 2px  -0.66067
    9.1     1.00000    -0.21528     1 2px   0.35190     1 2px   0.33027     2 2px   0.35190     2 2px   0.33027
   10.1    -0.00000     0.26577     1 1s   -1.52485     1 2pz  -0.64113     2 1s   -1.52485     2 2pz   0.64113     3 1s    1.05888
                                    4 1s    1.05888     5 1s    1.05888     6 1s    1.05888
   11.1    -0.00000     0.29590     1 2py  -0.84263     2 2py  -0.84263     3 1s    1.13737     4 1s   -1.13737     5 1s    1.13737
                                    6 1s   -1.13737
   12.1    -0.00000     0.30857     1 1s    2.01350     2 1s   -2.01350     3 1s   -1.07702     4 1s   -1.07702     5 1s    1.07702
                                    6 1s    1.07702
   13.1    -0.00000     0.38505     1 2py  -1.83276     2 2py   1.83276     3 1s    1.64884     4 1s   -1.64884     5 1s   -1.64884
                                    6 1s    1.64884
   14.1    -0.00000     0.47346     1 1s   -2.37850     1 2pz   2.68267     2 1s    2.37850     2 2pz   2.68267     3 1s   -0.61965
                                    4 1s   -0.61965     5 1s    0.61965     6 1s    0.61965
   15.1    -0.00000     0.67476     1 2pz  -0.56341     1 2pz   1.00716     2 2pz   0.56341     2 2pz  -1.00716
   16.1    -0.00000     0.73865     1 2py  -0.40732     1 2py   0.80042     2 2py  -0.40732     2 2py   0.80042     3 1s   -0.37292
                                    4 1s    0.37292     5 1s   -0.37292     6 1s    0.37292
   17.1    -0.00000     0.78250     1 2px  -0.75908     1 2px   0.63376     2 2px  -0.75908     2 2px   0.63376
   18.1    -0.00000     0.85870     1 1s   -0.90057     1 1s    1.51407     1 2pz   0.32156     2 1s   -0.90057     2 1s    1.51407
                                    2 2pz  -0.32156     3 1s   -0.38687     3 1s   -0.25863     4 1s   -0.38687     4 1s   -0.25863
                                    5 1s   -0.38687     5 1s   -0.25863     6 1s   -0.38687     6 1s   -0.25863
   19.1    -0.00000     0.86850     1 2px  -0.79894     1 2px   1.08203     2 2px   0.79894     2 2px  -1.08203
   20.1    -0.00000     0.90100     1 1s   -0.41734     1 2pz   0.63671     1 2pz  -0.78929     2 1s    0.41734     2 2pz   0.63671
                                    2 2pz  -0.78929     3 1s    0.35652     4 1s    0.35652     5 1s   -0.35652     6 1s   -0.35652
   21.1    -0.00000     1.13144     1 2py   0.69252     1 2py  -1.10669     2 2py   0.69252     2 2py  -1.10669     3 1s   -0.38998
                                    3 1s    1.07679     4 1s    0.38998     4 1s   -1.07679     5 1s   -0.38998     5 1s    1.07679
                                    6 1s    0.38998     6 1s   -1.07679
   22.1    -0.00000     1.15228     1 2py   0.92111     1 2py  -3.00171     2 2py  -0.92111     2 2py   3.00171     3 1s    1.57656
                                    4 1s   -1.57656     5 1s   -1.57656     6 1s    1.57656
   23.1    -0.00000     1.22273     1 1s   -0.80006     1 2pz  -0.64455     1 2pz   1.61684     2 1s    0.80006     2 2pz  -0.64455
                                    2 2pz   1.61684     3 1s    0.50222     3 1s   -0.84191     4 1s    0.50222     4 1s   -0.84191
                                    5 1s   -0.50222     5 1s    0.84191     6 1s   -0.50222     6 1s    0.84191
   24.1    -0.00000     1.22495     1 1s    1.03587     1 1s   -1.74553     1 2pz   0.36632     1 2pz  -0.49883     2 1s    1.03587
                                    2 1s   -1.74553     2 2pz  -0.36632     2 2pz   0.49883     3 1s   -0.44267     3 1s    0.87546
                                    4 1s   -0.44267     4 1s    0.87546     5 1s   -0.44267     5 1s    0.87546     6 1s   -0.44267
                                    6 1s    0.87546
   25.1    -0.00000     1.29760     1 1s   -1.67440     1 1s    5.05492     1 2pz  -1.37943     2 1s    1.67440     2 1s   -5.05492
                                    2 2pz  -1.37943     3 1s   -0.60852     4 1s   -0.60852     5 1s    0.60852     6 1s    0.60852
   26.1    -0.00000     1.45714     1 2py   2.39138     2 2py  -2.39138     3 1s   -0.69389     3 1s   -0.64243     4 1s    0.69389
                                    4 1s    0.64243     5 1s    0.69389     5 1s    0.64243     6 1s   -0.69389     6 1s   -0.64243
   27.1    -0.00000     1.70130     1 3d1+  0.62603     2 3d1+ -0.62603
   28.1    -0.00000     1.82420     1 3d2-  0.68574     2 3d2-  0.68574
   29.1    -0.00000     2.08327     1 3d2-  0.73061     2 3d2- -0.73061
   30.1    -0.00000     2.21823     1 1s    0.30239     1 1s   -0.62105     1 3d0  -0.28660     1 3d2+  0.66435     2 1s    0.30239
                                    2 1s   -0.62105     2 3d0  -0.28660     2 3d2+  0.66435     3 1s    0.33617     4 1s    0.33617
                                    5 1s    0.33617     6 1s    0.33617
   31.1    -0.00000     2.32829     1 2py   0.28157     1 3d1-  0.70417     2 2py   0.28157     2 3d1- -0.70417     3 1s   -0.53638
                                    4 1s    0.53638     5 1s   -0.53638     6 1s    0.53638
   32.1    -0.00000     2.34326     1 1s   -0.43406     1 2pz   0.25013     1 2pz  -0.45911     1 3d0   0.62367     1 3d2+  0.33041
                                    2 1s   -0.43406     2 2pz  -0.25013     2 2pz   0.45911     2 3d0   0.62367     2 3d2+  0.33041
                                    3 1s    0.26058     4 1s    0.26058     5 1s    0.26058     6 1s    0.26058
   33.1    -0.00000     2.60667     1 1s    0.27201     1 1s   -1.28466     1 2pz   0.25035     1 3d2+  0.79821     2 1s   -0.27201
                                    2 1s    1.28466     2 2pz   0.25035     2 3d2+ -0.79821     3 1s    0.46275     4 1s    0.46275
                                    5 1s   -0.46275     6 1s   -0.46275
   34.1    -0.00000     2.63220     1 2px  -0.25568     1 3d1+  0.87304     2 2px   0.25568     2 3d1+  0.87304
   35.1    -0.00000     2.99281     1 1s    1.95925     1 2pz  -0.65709     1 2pz  -1.16729     1 3d0   1.07935     2 1s   -1.95925
                                    2 2pz  -0.65709     2 2pz  -1.16729     2 3d0  -1.07935
   36.1    -0.00000     3.01630     1 2py   0.61740     1 3d1-  0.94388     2 2py  -0.61740     2 3d1-  0.94388     3 1s   -0.50179
                                    4 1s    0.50179     5 1s    0.50179     6 1s   -0.50179


 Natural orbital dump (state averaged) at molpro section  2140.2    (Orbital set 2)



 **********************************************************************************************************************************
 DATASETS  * FILE   NREC   LENGTH (MB)   RECORD NAMES
              1      20       31.36       500      610      700      900      950      970     1000      129      960     1100   
                                          VAR    BASINP    GEOM    SYMINP    ZMAT    AOBASIS   BASIS     P2S    ABASIS      S 
                                         1400     1410     1200     1210     1080     1600     1650     1300     1700     1380   
                                           T        V       H0       H01     AOSYM     SMH    MOLCAS    ERIS     OPER     JKOP   

              2       5        5.42       700     1000      520     2100     2140   
                                         GEOM     BASIS   MCVARS     RHF     MCSCF   

 PROGRAMS   *        TOTAL     MULTI    HF-SCF       INT
 CPU TIMES  *         0.54      0.15      0.10      0.21
 REAL TIME  *         0.78 SEC
 DISK USED  *        38.54 MB
 **********************************************************************************************************************************
 Molecular orbitals read from record     2140.2  Type=MCSCF/NATURAL (state averaged)
 Occupation numbers read from record     2140.2  Type=MCSCF/NATURAL (state averaged)
 Orbital energies read from record       2140.2  Type=MCSCF/NATURAL (state averaged)
 Redundancy group numbers read from rec  2140.2  Type=MCSCF/NATURAL (state averaged)

 MULTI/6-31G* energy=    -77.517173370755

           MULTI          HF-SCF
    -77.51717337    -78.02463000
 **********************************************************************************************************************************
 Molpro calculation terminated
