
 Primary working directories    : /scratch.local/johan406.molpro_temp/molpro.JFqah7WAHR
 Secondary working directories  : /scratch.local/johan406.molpro_temp/molpro.JFqah7WAHR
 Wavefunction directory         : /home/goodpast/johan406/wfu/
 Main file repository           : /scratch.local/johan406.molpro_temp/molpro.JFqah7WAHR/

 id        : roweumn

 Nodes     nprocs
 cn0416       1

 Using customized tuning parameters: mindgm=1; mindgv=20; mindgc=4; mindgr=1; noblas=0; minvec=7
 default implementation of scratch files=df  


 Variables initialized (934), CPU time= 0.00 sec
                                                                                 !leave this line blank
 
 gprint, orbitals=30
 memory, 125., m
 symmetry, nosym
 nelect=16
 basis=6-31g*
 
 geometry={
 C 0.000 0.000 0.696
 C 0.000 -0.000 -0.696
 H 0.000 0.906 1.247
 H 0.000 -0.906 1.247
 H 0.000 0.906 -1.247
 H 0.000 -0.906 -1.247
 }
 
 hf
 {multi,
 closed 7
 occ 9
 wf,spin=0;STATE,3
 }
 
 Commands  initialized (763), CPU time= 0.01 sec, 617 directives.
 Default parameters read. Elapsed time= 0.05 sec

 Checking input...
 Passed
1


                                         ***  PROGRAM SYSTEM MOLPRO  ***
                                       Copyright, TTI GmbH Stuttgart, 2015
                                    Version 2019.2 linked Oct 25 2019 22:50:27


 **********************************************************************************************************************************
 LABEL *                                                                                 
  64 bit serial version                                                                  DATE: 15-Mar-23          TIME: 16:42:59  
 **********************************************************************************************************************************

 SHA1:             8dbd9ae1082e4ce945b0f27595c9eb2d4aa09004
 **********************************************************************************************************************************


 Variable memory set to  125000000 words,  buffer space 

 SETTING NELECT         =        16.00000000                                  
 SETTING BASIS          =    6-31G*
 ZSYMEL=NOSYM


Geometry recognized as XYZ



 Recomputing integrals since basis changed


 Using spherical harmonics

 Library entry C      S 6-31G                selected for orbital group  1
 Library entry C      P 6-31G                selected for orbital group  1
 Library entry C      D 6-31G*               selected for orbital group  1
 Library entry H      S 6-31G                selected for orbital group  2


 PROGRAM * SEWARD (Integral evaluation for generally contracted gaussian basis sets)     Author: Roland Lindh, 1990

 Geometry written to block  1 of record 700


 Point group  C1  



 ATOMIC COORDINATES

 NR  ATOM    CHARGE       X              Y              Z

   1  C       6.00    0.000000000    0.000000000    1.315249383
   2  C       6.00    0.000000000   -0.000000000   -1.315249383
   3  H       1.00    0.000000000    1.712091869    2.356488477
   4  H       1.00    0.000000000   -1.712091869    2.356488477
   5  H       1.00    0.000000000    1.712091869   -2.356488477
   6  H       1.00    0.000000000   -1.712091869   -2.356488477

 Bond lengths in Bohr (Angstrom)

 1-2  2.630498765  1-3  2.003855638  1-4  2.003855638  2-5  2.003855638  2-6  2.003855638
     ( 1.392000000)     ( 1.060394738)     ( 1.060394738)     ( 1.060394738)     ( 1.060394738)

 Bond angles

  1-2-5  121.30661898   1-2-6  121.30661898   2-1-3  121.30661898   2-1-4  121.30661898

  3-1-4  117.38676203   5-2-6  117.38676203

 NUCLEAR CHARGE:                   16
 NUMBER OF PRIMITIVE AOS:          72
 NUMBER OF SYMMETRY AOS:           70
 NUMBER OF CONTRACTIONS:           36   (   36A   )
 NUMBER OF CORE ORBITALS:           2   (    2A   )
 NUMBER OF VALENCE ORBITALS:       12   (   12A   )


 NUCLEAR REPULSION ENERGY   32.93832869

 EXTRA SYMMETRY OF AOS IN SYMMETRY 1:   1 1 1 2 1 1 2 1 1 1   3 2 1 1 1 1 1 2 1 1   2 1 1 1 3 2 1 1 1 1   1 1 1 1 1 1

 Eigenvalues of metric

         1 0.984E-02 0.175E-01 0.365E-01 0.453E-01 0.683E-01 0.210E+00 0.228E+00 0.234E+00


 Contracted 2-electron integrals neglected if value below      1.0D-11
 AO integral compression algorithm  1   Integral accuracy      1.0D-11

     0.786 MB (compressed) written to integral file ( 37.5%)


 NUMBER OF SORTED TWO-ELECTRON INTEGRALS:     222111.     BUFFER LENGTH:  32768
 NUMBER OF SEGMENTS:   1  SEGMENT LENGTH:     222111      RECORD LENGTH: 524288

 Memory used in sort:       0.78 MW

 SORT1 READ      284735. AND WROTE       98251. INTEGRALS IN      1 RECORDS. CPU TIME:     0.00 SEC, REAL TIME:     0.00 SEC
 SORT2 READ       98251. AND WROTE      222111. INTEGRALS IN      3 RECORDS. CPU TIME:     0.02 SEC, REAL TIME:     0.02 SEC

 FILE SIZES:   FILE 1:    30.9 MBYTE,  FILE 4:     4.2 MBYTE,   TOTAL:     35.1 MBYTE

 OPERATOR DM      FOR CENTER  0  COORDINATES:    0.000000    0.000000    0.000000


 **********************************************************************************************************************************
 DATASETS  * FILE   NREC   LENGTH (MB)   RECORD NAMES
              1      19       30.63       500      610      700      900      950      970     1000      129      960     1100   
                                          VAR    BASINP    GEOM    SYMINP    ZMAT    AOBASIS   BASIS     P2S    ABASIS      S 
                                         1400     1410     1200     1210     1080     1600     1650     1300     1700   
                                           T        V       H0       H01     AOSYM     SMH    MOLCAS    ERIS     OPER   

 PROGRAMS   *        TOTAL       INT
 CPU TIMES  *         0.31      0.22
 REAL TIME  *         0.50 SEC
 DISK USED  *        35.45 MB
 **********************************************************************************************************************************


 PROGRAM * RHF-SCF (CLOSED SHELL)       Authors: W. Meyer, H.-J. Werner


 NUMBER OF ELECTRONS:       8+    8-    SPACE SYMMETRY=1    SPIN SYMMETRY: Singlet 
 CONVERGENCE THRESHOLDS:    1.00E-05 (Density)    1.00E-07 (Energy)
 MAX. NUMBER OF ITERATIONS:       60
 INTERPOLATION TYPE:            DIIS
 INTERPOLATION STEPS:              2 (START)      1 (STEP)
 LEVEL SHIFTS:                  0.00 (CLOSED)  0.00 (OPEN) 



 Orbital guess generated from atomic densities. Full valence occupancy:    8

 Molecular orbital dump at record        2100.2

 Initial occupancy:   8

 ITERATION    DDIFF          GRAD             ENERGY        2-EL.EN.            DIPOLE MOMENTS         DIIS   ORB.
    1      0.000D+00      0.000D+00       -78.00188173    117.568374    0.00000   -0.00000   -0.00000    0    start
    2      0.000D+00      0.809D-02       -78.02233567    116.017730    0.00000    0.00000   -0.00000    1    diag
    3      0.786D-02      0.262D-02       -78.02413846    116.561577    0.00000    0.00000   -0.00000    2    diag
    4      0.241D-02      0.683D-03       -78.02432726    116.461460    0.00000    0.00000   -0.00000    3    diag
    5      0.998D-03      0.627D-04       -78.02432903    116.464128    0.00000   -0.00000    0.00000    4    diag
    6      0.132D-03      0.648D-05       -78.02432905    116.463776   -0.00000    0.00000   -0.00000    5    diag
    7      0.110D-04      0.100D-05       -78.02432905    116.463784    0.00000   -0.00000    0.00000    6    diag
    8      0.139D-05      0.104D-06       -78.02432905    116.463779   -0.00000    0.00000   -0.00000    0    orth

 Final occupancy:   8

 !RHF STATE  1.1 Energy               -78.024329049685
 Nuclear energy                        32.93832869
 One-electron energy                 -169.19454746
 Two-electron energy                   58.23188972
 Virial quotient                       -1.00082318
 !RHF STATE  1.1 Dipole moment         -0.00000000     0.00000000    -0.00000000
 Dipole moment /Debye                  -0.00000000     0.00000000    -0.00000000

 ELECTRON ORBITALS
 =================

  Orbital  Occupation    Energy     Coefficients
    1.1     2.00000   -11.22973     1 1s    0.70426     2 1s    0.70426
    2.1     2.00000   -11.22850     1 1s    0.70450     2 1s   -0.70450
    3.1     2.00000    -1.01415     1 1s    0.29994     2 1s    0.29994
    4.1     2.00000    -0.80353     1 1s    0.24404
    5.1     2.00000    -0.63940     1 2py   0.32250     2 2py   0.32250
    6.1     2.00000    -0.57381     1 2pz   0.40729     2 2pz  -0.40729
    7.1     2.00000    -0.51993     1 2py   0.31166     2 2py  -0.31166
    8.1     2.00000    -0.35634     1 2px   0.36825     1 2px   0.31831     2 2px   0.36825     2 2px   0.31831
    9.1     0.00000     0.16606     1 2px   0.34679     1 2px   0.70140     2 2px  -0.34679     2 2px  -0.70140
   10.1     0.00000     0.26858     1 1s   -1.53147     1 2pz  -0.63868     2 1s   -1.53147     2 2pz   0.63868     3 1s    1.06226
                                    4 1s    1.06226     5 1s    1.06226     6 1s    1.06226
   11.1     0.00000     0.30308     1 2py  -0.84596     2 2py  -0.84596     3 1s    1.14098     4 1s   -1.14098     5 1s    1.14098
                                    6 1s   -1.14098
   12.1     0.00000     0.31064     1 1s    1.98001     2 1s   -1.98001     3 1s   -1.08241     4 1s   -1.08241     5 1s    1.08241
                                    6 1s    1.08241
   13.1     0.00000     0.38838     1 2py  -1.83366     2 2py   1.83366     3 1s    1.64852     4 1s   -1.64852     5 1s   -1.64852
                                    6 1s    1.64852
   14.1     0.00000     0.47707     1 1s   -2.39706     1 2pz   2.70846     2 1s    2.39706     2 2pz   2.70846     3 1s   -0.61453
                                    4 1s   -0.61453     5 1s    0.61453     6 1s    0.61453
   15.1     0.00000     0.68563     1 1s    0.34412     1 2pz  -0.56945     1 2pz   1.03193     2 1s    0.34412     2 2pz   0.56945
                                    2 2pz  -1.03193
   16.1     0.00000     0.74619     1 2py  -0.39773     1 2py   0.78907     2 2py  -0.39773     2 2py   0.78907     3 1s   -0.37605
                                    4 1s    0.37605     5 1s   -0.37605     6 1s    0.37605
   17.1     0.00000     0.78820     1 2px  -0.75218     1 2px   0.63980     2 2px  -0.75218     2 2px   0.63980
   18.1     0.00000     0.86247     1 1s   -0.90569     1 1s    1.49453     1 2pz   0.28457     2 1s   -0.90569     2 1s    1.49453
                                    2 2pz  -0.28457     3 1s   -0.38405     3 1s   -0.25142     4 1s   -0.38405     4 1s   -0.25142
                                    5 1s   -0.38405     5 1s   -0.25142     6 1s   -0.38405     6 1s   -0.25142
   19.1     0.00000     0.88389     1 2px  -0.81328     1 2px   1.05472     2 2px   0.81328     2 2px  -1.05472
   20.1     0.00000     0.91539     1 1s   -0.52119     1 2pz   0.63522     1 2pz  -0.74380     2 1s    0.52119     2 2pz   0.63522
                                    2 2pz  -0.74380     3 1s    0.35499     4 1s    0.35499     5 1s   -0.35499     6 1s   -0.35499
   21.1     0.00000     1.14499     1 2py   0.70147     1 2py  -1.10017     2 2py   0.70147     2 2py  -1.10017     3 1s   -0.39046
                                    3 1s    1.06733     4 1s    0.39046     4 1s   -1.06733     5 1s   -0.39046     5 1s    1.06733
                                    6 1s    0.39046     6 1s   -1.06733
   22.1     0.00000     1.16226     1 2py   0.92270     1 2py  -2.98355     2 2py  -0.92270     2 2py   2.98355     3 1s    1.56346
                                    4 1s   -1.56346     5 1s   -1.56346     6 1s    1.56346
   23.1     0.00000     1.22745     1 1s   -0.34465     1 2pz  -0.63313     1 2pz   1.48109     2 1s    0.34465     2 2pz  -0.63313
                                    2 2pz   1.48109     3 1s    0.50297     3 1s   -0.89104     4 1s    0.50297     4 1s   -0.89104
                                    5 1s   -0.50297     5 1s    0.89104     6 1s   -0.50297     6 1s    0.89104
   24.1     0.00000     1.22805     1 1s    1.03960     1 1s   -1.74829     1 2pz   0.36228     1 2pz  -0.49459     2 1s    1.03960
                                    2 1s   -1.74829     2 2pz  -0.36228     2 2pz   0.49459     3 1s   -0.44342     3 1s    0.87656
                                    4 1s   -0.44342     4 1s    0.87656     5 1s   -0.44342     5 1s    0.87656     6 1s   -0.44342
                                    6 1s    0.87656
   25.1     0.00000     1.31207     1 1s   -1.65712     1 1s    5.07569     1 2pz  -1.50820     2 1s    1.65712     2 1s   -5.07569
                                    2 2pz  -1.50820     3 1s   -0.52863     4 1s   -0.52863     5 1s    0.52863     6 1s    0.52863
   26.1     0.00000     1.45765     1 2py   2.36315     2 2py  -2.36315     3 1s   -0.69236     3 1s   -0.62893     4 1s    0.69236
                                    4 1s    0.62893     5 1s    0.69236     5 1s    0.62893     6 1s   -0.69236     6 1s   -0.62893
   27.1     0.00000     1.72293     1 3d1+  0.62650     2 3d1+ -0.62650
   28.1     0.00000     1.83663     1 3d2-  0.68590     2 3d2-  0.68590
   29.1     0.00000     2.10343     1 3d2-  0.73041     2 3d2- -0.73041
   30.1     0.00000     2.23146     1 1s    0.30090     1 1s   -0.62805     1 3d0  -0.27949     1 3d2+  0.66816     2 1s    0.30090
                                    2 1s   -0.62805     2 3d0  -0.27949     2 3d2+  0.66816     3 1s    0.33767     4 1s    0.33767
                                    5 1s    0.33767     6 1s    0.33767
   31.1     0.00000     2.34307     1 2py   0.27481     1 3d1-  0.70649     2 2py   0.27481     2 3d1- -0.70649     3 1s   -0.53315
                                    4 1s    0.53315     5 1s   -0.53315     6 1s    0.53315
   32.1     0.00000     2.35666     1 1s   -0.43608     1 2pz  -0.45771     1 3d0   0.62621     1 3d2+  0.32256     2 1s   -0.43608
                                    2 2pz   0.45771     2 3d0   0.62621     2 3d2+  0.32256     3 1s    0.25438     4 1s    0.25438
                                    5 1s    0.25438     6 1s    0.25438
   33.1     0.00000     2.61865     1 1s    0.27010     1 1s   -1.24946     1 3d2+  0.79779     2 1s   -0.27010     2 1s    1.24946
                                    2 3d2+ -0.79779     3 1s    0.45780     4 1s    0.45780     5 1s   -0.45780     6 1s   -0.45780
   34.1     0.00000     2.65050     1 2px  -0.25500     1 3d1+  0.87163     2 2px   0.25500     2 3d1+  0.87163
   35.1     0.00000     3.00619     1 1s    1.94192     1 2pz  -0.65806     1 2pz  -1.16051     1 3d0   1.07686     2 1s   -1.94192
                                    2 2pz  -0.65806     2 2pz  -1.16051     2 3d0  -1.07686
   36.1     0.00000     3.03178     1 2py   0.61138     1 3d1-  0.94446     2 2py  -0.61138     2 3d1-  0.94446     3 1s   -0.50054
                                    4 1s    0.50054     5 1s    0.50054     6 1s   -0.50054


 HOMO      8.1    -0.356343 =      -9.6966eV
 LUMO      9.1     0.166056 =       4.5186eV
 LUMO-HOMO         0.522399 =      14.2152eV


 **********************************************************************************************************************************
 DATASETS  * FILE   NREC   LENGTH (MB)   RECORD NAMES
              1      19       30.63       500      610      700      900      950      970     1000      129      960     1100   
                                          VAR    BASINP    GEOM    SYMINP    ZMAT    AOBASIS   BASIS     P2S    ABASIS      S 
                                         1400     1410     1200     1210     1080     1600     1650     1300     1700   
                                           T        V       H0       H01     AOSYM     SMH    MOLCAS    ERIS     OPER   

              2       4        2.86       700     1000      520     2100   
                                         GEOM     BASIS   MCVARS     RHF  

 PROGRAMS   *        TOTAL    HF-SCF       INT
 CPU TIMES  *         0.40      0.10      0.22
 REAL TIME  *         0.64 SEC
 DISK USED  *        35.45 MB
 **********************************************************************************************************************************


 PROGRAM * MULTI (Direct Multiconfiguration SCF)       Authors: P.J. Knowles, H.-J. Werner (1984)


 Number of closed-shell orbitals:   7 (   7 )
 Number of active  orbitals:        2 (   2 )
 Number of external orbitals:      27 (  27 )

 State symmetry 1

 Number of electrons:     2    Spin symmetry=Singlet   Space symmetry=1
 Number of states:        3
 Number of CSFs:          3   (4 determinants, 4 intermediate states)

 Molecular orbitals read from record     2100.2  Type=RHF/CANONICAL (state 1.1)

 EXTRA SYMMETRY OF MOS IN SYMMETRY 1:   1 1 1 1 1 1 1 2 2 1   1 1 1 1 1 1 2 1 2 1   1 1 1 1 1 1 2 3 3 1   1 1 1 2 1 1

 Wavefunction dump at record             2140.2

 Convergence thresholds  0.10E-01 (gradient)  0.10E-05 (energy)  0.10E-02 (step length)

 Weight factors for state symmetry  1:    0.33333   0.33333   0.33333

 Number of orbital rotations:      257   (    14 Core/Active    189 Core/Virtual   0 Active/Active     54 Active/Virtual)
 Total number of variables:        269

 Micro-Iterations solved by the two-step solver

 ITER. MIC  NCI  NEG     ENERGY(VAR)     ENERGY(PROJ)   ENERGY CHANGE     GRAD(0)  GRAD(ORB)   GRAD(CI)     STEP       TIME

   1    3    3    0     -77.74344597     -77.74879577   -0.00534979    0.12191328 0.00000102 0.00000000  0.58D-01      0.05
   2    2    3    0     -77.74872279     -77.74872529   -0.00000251    0.00249497 0.00000123 0.00000000  0.13D-02      0.08
   3    2    3    0     -77.74872530     -77.74872530   -0.00000000    0.00000142 0.00000000 0.00000000  0.86D-06      0.11

 ** WVFN ****  CONVERGENCE REACHED, FINAL GRADIENT:  0.53D-12



 Results for state 1.1
 =====================

 !MCSCF STATE  1.1 Energy             -78.045257566564
 Nuclear energy                        32.93832869
 Kinetic energy                        78.00723381
 One electron energy                 -169.27514714
 Two electron energy                   58.29156088
 Virial ratio                           2.00048744

 !MCSCF STATE  1.1 Dipole moment        0.00000000    -0.00000000    -0.00000000
 Dipole moment /Debye                   0.00000000    -0.00000000    -0.00000000

 Results for state 2.1
 =====================

 !MCSCF STATE  2.1 Energy             -77.682617325662
 Nuclear energy                        32.93832869
 Kinetic energy                        78.20397290
 One electron energy                 -168.80669337
 Two electron energy                   58.18574735
 Virial ratio                           1.99333339

 !MCSCF STATE  2.1 Dipole moment        0.00000000    -0.00000000    -0.00000000
 Dipole moment /Debye                   0.00000000    -0.00000000    -0.00000000

 Results for state 3.1
 =====================

 !MCSCF STATE  3.1 Energy             -77.518300993032
 Nuclear energy                        32.93832869
 Kinetic energy                        78.40071199
 One electron energy                 -168.33823959
 Two electron energy                   57.88160991
 Virial ratio                           1.98874486

 !MCSCF STATE  3.1 Dipole moment        0.00000000    -0.00000000    -0.00000000
 Dipole moment /Debye                   0.00000000    -0.00000000    -0.00000000

 State-averaged charge density matrix saved on record  2140.2 (density set 1)

 !MCSCF trans         <2.1|DMZ|1.1>    -1.512520814200 au =    -3.844192650955 Debye
 !MCSCF trans         <3.1|DMZ|2.1>    -2.377286533307 au =    -6.042063907322 Debye


 NATURAL ORBITALS (state averaged)
 =================================

  Orbital  Occupation    Energy     Coefficients
    1.1     2.00000   -11.24179     1 1s    0.70427     2 1s    0.70427
    2.1     2.00000   -11.24080     1 1s    0.70446     2 1s   -0.70446
    3.1     2.00000    -1.02548     1 1s    0.30750     2 1s    0.30750
    4.1     2.00000    -0.81015     1 1s    0.27802     2 1s   -0.27802
    5.1     2.00000    -0.65011     1 2py   0.32710     2 2py   0.32710
    6.1     2.00000    -0.58771     1 2pz   0.40943     2 2pz  -0.40943
    7.1     2.00000    -0.52553     1 2py   0.31704     2 2py  -0.31704
    8.1     1.00000    -0.21497     1 2px   0.35178     1 2px   0.33060     2 2px   0.35178     2 2px   0.33060
    9.1     1.00000     0.02369     1 2px   0.38091     1 2px   0.65969     2 2px  -0.38091     2 2px  -0.65969
   10.1    -0.00000     0.26627     1 1s   -1.52833     1 2pz  -0.64498     2 1s   -1.52833     2 2pz   0.64498     3 1s    1.06201
                                    4 1s    1.06201     5 1s    1.06201     6 1s    1.06201
   11.1    -0.00000     0.29578     1 2py  -0.83918     2 2py  -0.83918     3 1s    1.13400     4 1s   -1.13400     5 1s    1.13400
                                    6 1s   -1.13400
   12.1    -0.00000     0.30782     1 1s    2.00682     2 1s   -2.00682     3 1s   -1.07522     4 1s   -1.07522     5 1s    1.07522
                                    6 1s    1.07522
   13.1    -0.00000     0.38508     1 2py  -1.82232     2 2py   1.82232     3 1s    1.64286     4 1s   -1.64286     5 1s   -1.64286
                                    6 1s    1.64286
   14.1    -0.00000     0.47365     1 1s   -2.36453     1 2pz   2.68590     2 1s    2.36453     2 2pz   2.68590     3 1s   -0.62709
                                    4 1s   -0.62709     5 1s    0.62709     6 1s    0.62709
   15.1    -0.00000     0.67602     1 2pz  -0.56494     1 2pz   1.00903     2 2pz   0.56494     2 2pz  -1.00903
   16.1    -0.00000     0.73642     1 2py  -0.40783     1 2py   0.79279     2 2py  -0.40783     2 2py   0.79279     3 1s   -0.37235
                                    4 1s    0.37235     5 1s   -0.37235     6 1s    0.37235
   17.1    -0.00000     0.78280     1 2px  -0.75945     1 2px   0.63378     2 2px  -0.75945     2 2px   0.63378
   18.1    -0.00000     0.85961     1 1s   -0.90088     1 1s    1.52580     1 2pz   0.33684     2 1s   -0.90088     2 1s    1.52580
                                    2 2pz  -0.33684     3 1s   -0.38749     3 1s   -0.26436     4 1s   -0.38749     4 1s   -0.26436
                                    5 1s   -0.38749     5 1s   -0.26436     6 1s   -0.38749     6 1s   -0.26436
   19.1    -0.00000     0.86818     1 2px  -0.79879     1 2px   1.08120     2 2px   0.79879     2 2px  -1.08120
   20.1    -0.00000     0.89905     1 1s   -0.38535     1 2pz   0.63585     1 2pz  -0.81827     2 1s    0.38535     2 2pz   0.63585
                                    2 2pz  -0.81827     3 1s    0.35650     4 1s    0.35650     5 1s   -0.35650     6 1s   -0.35650
   21.1    -0.00000     1.13134     1 2py   0.69160     1 2py  -1.10253     2 2py   0.69160     2 2py  -1.10253     3 1s   -0.39031
                                    3 1s    1.07522     4 1s    0.39031     4 1s   -1.07522     5 1s   -0.39031     5 1s    1.07522
                                    6 1s    0.39031     6 1s   -1.07522
   22.1    -0.00000     1.15158     1 2py   0.92023     1 2py  -2.98786     2 2py  -0.92023     2 2py   2.98786     3 1s    1.57028
                                    4 1s   -1.57028     5 1s   -1.57028     6 1s    1.57028
   23.1    -0.00000     1.22362     1 1s   -0.79597     1 2pz  -0.64586     1 2pz   1.61166     2 1s    0.79597     2 2pz  -0.64586
                                    2 2pz   1.61166     3 1s    0.50278     3 1s   -0.83909     4 1s    0.50278     4 1s   -0.83909
                                    5 1s   -0.50278     5 1s    0.83909     6 1s   -0.50278     6 1s    0.83909
   24.1    -0.00000     1.22583     1 1s    1.03476     1 1s   -1.74389     1 2pz   0.36643     1 2pz  -0.50017     2 1s    1.03476
                                    2 1s   -1.74389     2 2pz  -0.36643     2 2pz   0.50017     3 1s   -0.44383     3 1s    0.87578
                                    4 1s   -0.44383     4 1s    0.87578     5 1s   -0.44383     5 1s    0.87578     6 1s   -0.44383
                                    6 1s    0.87578
   25.1    -0.00000     1.29634     1 1s   -1.67334     1 1s    5.03025     1 2pz  -1.36300     2 1s    1.67334     2 1s   -5.03025
                                    2 2pz  -1.36300     3 1s   -0.60927     4 1s   -0.60927     5 1s    0.60927     6 1s    0.60927
   26.1    -0.00000     1.44955     1 2py   2.36527     2 2py  -2.36527     3 1s   -0.69127     3 1s   -0.62944     4 1s    0.69127
                                    4 1s    0.62944     5 1s    0.69127     5 1s    0.62944     6 1s   -0.69127     6 1s   -0.62944
   27.1    -0.00000     1.70060     1 3d1+  0.62633     2 3d1+ -0.62633
   28.1    -0.00000     1.82512     1 3d2-  0.68590     2 3d2-  0.68590
   29.1    -0.00000     2.08284     1 3d2-  0.73041     2 3d2- -0.73041
   30.1    -0.00000     2.21788     1 1s    0.30148     1 1s   -0.62300     1 3d0  -0.28686     1 3d2+  0.66408     2 1s    0.30148
                                    2 1s   -0.62300     2 3d0  -0.28686     2 3d2+  0.66408     3 1s    0.33651     4 1s    0.33651
                                    5 1s    0.33651     6 1s    0.33651
   31.1    -0.00000     2.32896     1 2py   0.28152     1 3d1-  0.70479     2 2py   0.28152     2 3d1- -0.70479     3 1s   -0.53635
                                    4 1s    0.53635     5 1s   -0.53635     6 1s    0.53635
   32.1    -0.00000     2.33878     1 1s   -0.43156     1 2pz   0.25133     1 2pz  -0.46172     1 3d0   0.62277     1 3d2+  0.33008
                                    2 1s   -0.43156     2 2pz  -0.25133     2 2pz   0.46172     2 3d0   0.62277     2 3d2+  0.33008
                                    3 1s    0.25835     4 1s    0.25835     5 1s    0.25835     6 1s    0.25835
   33.1    -0.00000     2.60130     1 1s    0.27062     1 1s   -1.25393     1 3d2+  0.79708     2 1s   -0.27062     2 1s    1.25393
                                    2 3d2+ -0.79708     3 1s    0.46066     4 1s    0.46066     5 1s   -0.46066     6 1s   -0.46066
   34.1    -0.00000     2.62977     1 2px  -0.25538     1 3d1+  0.87196     2 2px   0.25538     2 3d1+  0.87196
   35.1    -0.00000     2.99080     1 1s    1.96339     1 2pz  -0.65111     1 2pz  -1.17171     1 3d0   1.07812     2 1s   -1.96339
                                    2 2pz  -0.65111     2 2pz  -1.17171     2 3d0  -1.07812
   36.1    -0.00000     3.02048     1 2py   0.61144     1 3d1-  0.94404     2 2py  -0.61144     2 3d1-  0.94404     3 1s   -0.50274
                                    4 1s    0.50274     5 1s    0.50274     6 1s   -0.50274


 Natural orbital dump (state averaged) at molpro section  2140.2    (Orbital set 2)



 **********************************************************************************************************************************
 DATASETS  * FILE   NREC   LENGTH (MB)   RECORD NAMES
              1      20       31.36       500      610      700      900      950      970     1000      129      960     1100   
                                          VAR    BASINP    GEOM    SYMINP    ZMAT    AOBASIS   BASIS     P2S    ABASIS      S 
                                         1400     1410     1200     1210     1080     1600     1650     1300     1700     1380   
                                           T        V       H0       H01     AOSYM     SMH    MOLCAS    ERIS     OPER     JKOP   

              2       5        5.42       700     1000      520     2100     2140   
                                         GEOM     BASIS   MCVARS     RHF     MCSCF   

 PROGRAMS   *        TOTAL     MULTI    HF-SCF       INT
 CPU TIMES  *         0.55      0.14      0.10      0.22
 REAL TIME  *         0.83 SEC
 DISK USED  *        38.54 MB
 **********************************************************************************************************************************
 Molecular orbitals read from record     2140.2  Type=MCSCF/NATURAL (state averaged)
 Occupation numbers read from record     2140.2  Type=MCSCF/NATURAL (state averaged)
 Orbital energies read from record       2140.2  Type=MCSCF/NATURAL (state averaged)
 Redundancy group numbers read from rec  2140.2  Type=MCSCF/NATURAL (state averaged)

 MULTI/6-31G* energy=    -77.518300993032

           MULTI          HF-SCF
    -77.51830099    -78.02432905
 **********************************************************************************************************************************
 Molpro calculation terminated
