
 Primary working directories    : /scratch.local/johan406.molpro_temp/molpro.0fg1oRTlab
 Secondary working directories  : /scratch.local/johan406.molpro_temp/molpro.0fg1oRTlab
 Wavefunction directory         : /home/goodpast/johan406/wfu/
 Main file repository           : /scratch.local/johan406.molpro_temp/molpro.0fg1oRTlab/

 id        : roweumn

 Nodes     nprocs
 cn0416       1

 Using customized tuning parameters: mindgm=1; mindgv=20; mindgc=4; mindgr=1; noblas=0; minvec=7
 default implementation of scratch files=df  


 Variables initialized (934), CPU time= 0.00 sec
                                                                                 !leave this line blank
 
 gprint, orbitals=30
 memory, 125., m
 symmetry, nosym
 nelect=16
 basis=6-31g*
 
 geometry={
 C 0.000 0.000 0.697
 C 0.000 -0.000 -0.697
 H 0.000 0.904 1.250
 H 0.000 -0.904 1.250
 H 0.000 0.904 -1.250
 H 0.000 -0.904 -1.250
 }
 
 hf
 {multi,
 closed 7
 occ 9
 wf,spin=0;STATE,3
 }
 
 Commands  initialized (763), CPU time= 0.01 sec, 617 directives.
 Default parameters read. Elapsed time= 0.04 sec

 Checking input...
 Passed
1


                                         ***  PROGRAM SYSTEM MOLPRO  ***
                                       Copyright, TTI GmbH Stuttgart, 2015
                                    Version 2019.2 linked Oct 25 2019 22:50:27


 **********************************************************************************************************************************
 LABEL *                                                                                 
  64 bit serial version                                                                  DATE: 15-Mar-23          TIME: 16:43:21  
 **********************************************************************************************************************************

 SHA1:             8dbd9ae1082e4ce945b0f27595c9eb2d4aa09004
 **********************************************************************************************************************************


 Variable memory set to  125000000 words,  buffer space 

 SETTING NELECT         =        16.00000000                                  
 SETTING BASIS          =    6-31G*
 ZSYMEL=NOSYM


Geometry recognized as XYZ



 Recomputing integrals since basis changed


 Using spherical harmonics

 Library entry C      S 6-31G                selected for orbital group  1
 Library entry C      P 6-31G                selected for orbital group  1
 Library entry C      D 6-31G*               selected for orbital group  1
 Library entry H      S 6-31G                selected for orbital group  2


 PROGRAM * SEWARD (Integral evaluation for generally contracted gaussian basis sets)     Author: Roland Lindh, 1990

 Geometry written to block  1 of record 700


 Point group  C1  



 ATOMIC COORDINATES

 NR  ATOM    CHARGE       X              Y              Z

   1  C       6.00    0.000000000    0.000000000    1.317139109
   2  C       6.00    0.000000000   -0.000000000   -1.317139109
   3  H       1.00    0.000000000    1.708312417    2.362157656
   4  H       1.00    0.000000000   -1.708312417    2.362157656
   5  H       1.00    0.000000000    1.708312417   -2.362157656
   6  H       1.00    0.000000000   -1.708312417   -2.362157656

 Bond lengths in Bohr (Angstrom)

 1-2  2.634278218  1-3  2.002597083  1-4  2.002597083  2-5  2.002597083  2-6  2.002597083
     ( 1.394000000)     ( 1.059728739)     ( 1.059728739)     ( 1.059728739)     ( 1.059728739)

 Bond angles

  1-2-5  121.45519557   1-2-6  121.45519557   2-1-3  121.45519557   2-1-4  121.45519557

  3-1-4  117.08960885   5-2-6  117.08960885

 NUCLEAR CHARGE:                   16
 NUMBER OF PRIMITIVE AOS:          72
 NUMBER OF SYMMETRY AOS:           70
 NUMBER OF CONTRACTIONS:           36   (   36A   )
 NUMBER OF CORE ORBITALS:           2   (    2A   )
 NUMBER OF VALENCE ORBITALS:       12   (   12A   )


 NUCLEAR REPULSION ENERGY   32.91853513

 EXTRA SYMMETRY OF AOS IN SYMMETRY 1:   1 1 1 2 1 1 2 1 1 1   3 2 1 1 1 1 1 2 1 1   2 1 1 1 3 2 1 1 1 1   1 1 1 1 1 1

 Eigenvalues of metric

         1 0.992E-02 0.176E-01 0.362E-01 0.450E-01 0.684E-01 0.210E+00 0.230E+00 0.233E+00


 Contracted 2-electron integrals neglected if value below      1.0D-11
 AO integral compression algorithm  1   Integral accuracy      1.0D-11

     0.786 MB (compressed) written to integral file ( 37.5%)


 NUMBER OF SORTED TWO-ELECTRON INTEGRALS:     222111.     BUFFER LENGTH:  32768
 NUMBER OF SEGMENTS:   1  SEGMENT LENGTH:     222111      RECORD LENGTH: 524288

 Memory used in sort:       0.78 MW

 SORT1 READ      284735. AND WROTE       98251. INTEGRALS IN      1 RECORDS. CPU TIME:     0.00 SEC, REAL TIME:     0.01 SEC
 SORT2 READ       98251. AND WROTE      222111. INTEGRALS IN      3 RECORDS. CPU TIME:     0.02 SEC, REAL TIME:     0.02 SEC

 FILE SIZES:   FILE 1:    30.9 MBYTE,  FILE 4:     4.2 MBYTE,   TOTAL:     35.1 MBYTE

 OPERATOR DM      FOR CENTER  0  COORDINATES:    0.000000    0.000000    0.000000


 **********************************************************************************************************************************
 DATASETS  * FILE   NREC   LENGTH (MB)   RECORD NAMES
              1      19       30.63       500      610      700      900      950      970     1000      129      960     1100   
                                          VAR    BASINP    GEOM    SYMINP    ZMAT    AOBASIS   BASIS     P2S    ABASIS      S 
                                         1400     1410     1200     1210     1080     1600     1650     1300     1700   
                                           T        V       H0       H01     AOSYM     SMH    MOLCAS    ERIS     OPER   

 PROGRAMS   *        TOTAL       INT
 CPU TIMES  *         0.30      0.22
 REAL TIME  *         0.53 SEC
 DISK USED  *        35.45 MB
 **********************************************************************************************************************************


 PROGRAM * RHF-SCF (CLOSED SHELL)       Authors: W. Meyer, H.-J. Werner


 NUMBER OF ELECTRONS:       8+    8-    SPACE SYMMETRY=1    SPIN SYMMETRY: Singlet 
 CONVERGENCE THRESHOLDS:    1.00E-05 (Density)    1.00E-07 (Energy)
 MAX. NUMBER OF ITERATIONS:       60
 INTERPOLATION TYPE:            DIIS
 INTERPOLATION STEPS:              2 (START)      1 (STEP)
 LEVEL SHIFTS:                  0.00 (CLOSED)  0.00 (OPEN) 



 Orbital guess generated from atomic densities. Full valence occupancy:    8

 Molecular orbital dump at record        2100.2

 Initial occupancy:   8

 ITERATION    DDIFF          GRAD             ENERGY        2-EL.EN.            DIPOLE MOMENTS         DIIS   ORB.
    1      0.000D+00      0.000D+00       -78.00151926    117.518189    0.00000    0.00000    0.00000    0    start
    2      0.000D+00      0.807D-02       -78.02193541    115.977833    0.00000    0.00000    0.00000    1    diag
    3      0.785D-02      0.262D-02       -78.02373026    116.518774   -0.00000    0.00000    0.00000    2    diag
    4      0.240D-02      0.682D-03       -78.02391860    116.418559    0.00000    0.00000    0.00000    3    diag
    5      0.997D-03      0.627D-04       -78.02392036    116.421231    0.00000    0.00000   -0.00000    4    diag
    6      0.131D-03      0.648D-05       -78.02392038    116.420881    0.00000   -0.00000    0.00000    5    diag
    7      0.109D-04      0.101D-05       -78.02392038    116.420889    0.00000    0.00000    0.00000    6    diag
    8      0.140D-05      0.104D-06       -78.02392038    116.420885   -0.00000    0.00000   -0.00000    0    orth

 Final occupancy:   8

 !RHF STATE  1.1 Energy               -78.023920380844
 Nuclear energy                        32.91853513
 One-electron energy                 -169.15289782
 Two-electron energy                   58.21044231
 Virial quotient                       -1.00083985
 !RHF STATE  1.1 Dipole moment         -0.00000000     0.00000000    -0.00000000
 Dipole moment /Debye                  -0.00000000     0.00000000    -0.00000000

 ELECTRON ORBITALS
 =================

  Orbital  Occupation    Energy     Coefficients
    1.1     2.00000   -11.23000     1 1s    0.70426     2 1s    0.70426
    2.1     2.00000   -11.22879     1 1s    0.70450     2 1s   -0.70450
    3.1     2.00000    -1.01362     1 1s    0.29993     2 1s    0.29993
    4.1     2.00000    -0.80444     1 1s    0.24411
    5.1     2.00000    -0.63886     1 2py   0.32263     2 2py   0.32263
    6.1     2.00000    -0.57431     1 2pz   0.40720     2 2pz  -0.40720
    7.1     2.00000    -0.52007     1 2py   0.31183     2 2py  -0.31183
    8.1     2.00000    -0.35593     1 2px   0.36812     1 2px   0.31864     2 2px   0.36812     2 2px   0.31864
    9.1     0.00000     0.16552     1 2px   0.34696     1 2px   0.70023     2 2px  -0.34696     2 2px  -0.70023
   10.1     0.00000     0.26903     1 1s   -1.53603     1 2pz  -0.64140     2 1s   -1.53603     2 2pz   0.64140     3 1s    1.06557
                                    4 1s    1.06557     5 1s    1.06557     6 1s    1.06557
   11.1     0.00000     0.30331     1 2py  -0.84499     2 2py  -0.84499     3 1s    1.14073     4 1s   -1.14073     5 1s    1.14073
                                    6 1s   -1.14073
   12.1     0.00000     0.31037     1 1s    1.97919     2 1s   -1.97919     3 1s   -1.08241     4 1s   -1.08241     5 1s    1.08241
                                    6 1s    1.08241
   13.1     0.00000     0.38841     1 2py  -1.82786     2 2py   1.82786     3 1s    1.64695     4 1s   -1.64695     5 1s   -1.64695
                                    6 1s    1.64695
   14.1     0.00000     0.47709     1 1s   -2.37861     1 2pz   2.70811     2 1s    2.37861     2 2pz   2.70811     3 1s   -0.62093
                                    4 1s   -0.62093     5 1s    0.62093     6 1s    0.62093
   15.1     0.00000     0.68669     1 1s    0.34701     1 2pz  -0.57052     1 2pz   1.03380     2 1s    0.34701     2 2pz   0.57052
                                    2 2pz  -1.03380
   16.1     0.00000     0.74429     1 2py  -0.39786     1 2py   0.78536     2 2py  -0.39786     2 2py   0.78536     3 1s   -0.37540
                                    4 1s    0.37540     5 1s   -0.37540     6 1s    0.37540
   17.1     0.00000     0.78853     1 2px  -0.75256     1 2px   0.63983     2 2px  -0.75256     2 2px   0.63983
   18.1     0.00000     0.86296     1 1s   -0.90680     1 1s    1.50505     1 2pz   0.29362     2 1s   -0.90680     2 1s    1.50505
                                    2 2pz  -0.29362     3 1s   -0.38398     3 1s   -0.25675     4 1s   -0.38398     4 1s   -0.25675
                                    5 1s   -0.38398     5 1s   -0.25675     6 1s   -0.38398     6 1s   -0.25675
   19.1     0.00000     0.88360     1 2px  -0.81309     1 2px   1.05404     2 2px   0.81309     2 2px  -1.05404
   20.1     0.00000     0.91350     1 1s   -0.50020     1 2pz   0.63508     1 2pz  -0.76607     2 1s    0.50020     2 2pz   0.63508
                                    2 2pz  -0.76607     3 1s    0.35449     4 1s    0.35449     5 1s   -0.35449     6 1s   -0.35449
   21.1     0.00000     1.14577     1 2py   0.70113     1 2py  -1.09793     2 2py   0.70113     2 2py  -1.09793     3 1s   -0.39081
                                    3 1s    1.06709     4 1s    0.39081     4 1s   -1.06709     5 1s   -0.39081     5 1s    1.06709
                                    6 1s    0.39081     6 1s   -1.06709
   22.1     0.00000     1.16212     1 2py   0.92218     1 2py  -2.98202     2 2py  -0.92218     2 2py   2.98202     3 1s    1.56348
                                    4 1s   -1.56348     5 1s   -1.56348     6 1s    1.56348
   23.1     0.00000     1.22866     1 1s   -0.36415     1 2pz  -0.63426     1 2pz   1.48452     2 1s    0.36415     2 2pz  -0.63426
                                    2 2pz   1.48452     3 1s    0.50389     3 1s   -0.88701     4 1s    0.50389     4 1s   -0.88701
                                    5 1s   -0.50389     5 1s    0.88701     6 1s   -0.50389     6 1s    0.88701
   24.1     0.00000     1.22946     1 1s    1.03885     1 1s   -1.74800     1 2pz   0.36264     1 2pz  -0.49566     2 1s    1.03885
                                    2 1s   -1.74800     2 2pz  -0.36264     2 2pz   0.49566     3 1s   -0.44442     3 1s    0.87718
                                    4 1s   -0.44442     4 1s    0.87718     5 1s   -0.44442     5 1s    0.87718     6 1s   -0.44442
                                    6 1s    0.87718
   25.1     0.00000     1.31097     1 1s   -1.65769     1 1s    5.05583     1 2pz  -1.48872     2 1s    1.65769     2 1s   -5.05583
                                    2 2pz  -1.48872     3 1s   -0.53445     4 1s   -0.53445     5 1s    0.53445     6 1s    0.53445
   26.1     0.00000     1.45281     1 2py   2.34043     2 2py  -2.34043     3 1s   -0.69088     3 1s   -0.61909     4 1s    0.69088
                                    4 1s    0.61909     5 1s    0.69088     5 1s    0.61909     6 1s   -0.69088     6 1s   -0.61909
   27.1     0.00000     1.72222     1 3d1+  0.62679     2 3d1+ -0.62679
   28.1     0.00000     1.83727     1 3d2-  0.68606     2 3d2-  0.68606
   29.1     0.00000     2.10268     1 3d2-  0.73022     2 3d2- -0.73022
   30.1     0.00000     2.23182     1 1s    0.30266     1 1s   -0.62991     1 3d0  -0.28395     1 3d2+  0.66596     2 1s    0.30266
                                    2 1s   -0.62991     2 3d0  -0.28395     2 3d2+  0.66596     3 1s    0.33674     4 1s    0.33674
                                    5 1s    0.33674     6 1s    0.33674
   31.1     0.00000     2.34465     1 2py   0.27557     1 3d1-  0.70733     2 2py   0.27557     2 3d1- -0.70733     3 1s   -0.53400
                                    4 1s    0.53400     5 1s   -0.53400     6 1s    0.53400
   32.1     0.00000     2.35332     1 1s   -0.43266     1 2pz  -0.45978     1 3d0   0.62348     1 3d2+  0.32722     2 1s   -0.43266
                                    2 2pz   0.45978     2 3d0   0.62348     2 3d2+  0.32722     3 1s    0.25591     4 1s    0.25591
                                    5 1s    0.25591     6 1s    0.25591
   33.1     0.00000     2.61590     1 1s    0.26839     1 1s   -1.22993     1 3d2+  0.79728     2 1s   -0.26839     2 1s    1.22993
                                    2 3d2+ -0.79728     3 1s    0.45728     4 1s    0.45728     5 1s   -0.45728     6 1s   -0.45728
   34.1     0.00000     2.64811     1 2px  -0.25468     1 3d1+  0.87056     2 2px   0.25468     2 3d1+  0.87056
   35.1     0.00000     3.00417     1 1s    1.94298     1 2pz  -0.65259     1 2pz  -1.16294     1 3d0   1.07562     2 1s   -1.94298
                                    2 2pz  -0.65259     2 2pz  -1.16294     2 3d0  -1.07562
   36.1     0.00000     3.03498     1 2py   0.60987     1 3d1-  0.94458     2 2py  -0.60987     2 3d1-  0.94458     3 1s   -0.50228
                                    4 1s    0.50228     5 1s    0.50228     6 1s   -0.50228


 HOMO      8.1    -0.355925 =      -9.6852eV
 LUMO      9.1     0.165524 =       4.5041eV
 LUMO-HOMO         0.521449 =      14.1893eV


 **********************************************************************************************************************************
 DATASETS  * FILE   NREC   LENGTH (MB)   RECORD NAMES
              1      19       30.63       500      610      700      900      950      970     1000      129      960     1100   
                                          VAR    BASINP    GEOM    SYMINP    ZMAT    AOBASIS   BASIS     P2S    ABASIS      S 
                                         1400     1410     1200     1210     1080     1600     1650     1300     1700   
                                           T        V       H0       H01     AOSYM     SMH    MOLCAS    ERIS     OPER   

              2       4        2.86       700     1000      520     2100   
                                         GEOM     BASIS   MCVARS     RHF  

 PROGRAMS   *        TOTAL    HF-SCF       INT
 CPU TIMES  *         0.38      0.08      0.22
 REAL TIME  *         0.66 SEC
 DISK USED  *        35.45 MB
 **********************************************************************************************************************************


 PROGRAM * MULTI (Direct Multiconfiguration SCF)       Authors: P.J. Knowles, H.-J. Werner (1984)


 Number of closed-shell orbitals:   7 (   7 )
 Number of active  orbitals:        2 (   2 )
 Number of external orbitals:      27 (  27 )

 State symmetry 1

 Number of electrons:     2    Spin symmetry=Singlet   Space symmetry=1
 Number of states:        3
 Number of CSFs:          3   (4 determinants, 4 intermediate states)

 Molecular orbitals read from record     2100.2  Type=RHF/CANONICAL (state 1.1)

 EXTRA SYMMETRY OF MOS IN SYMMETRY 1:   1 1 1 1 1 1 1 2 2 1   1 1 1 1 1 1 2 1 2 1   1 1 1 1 1 1 2 3 3 1   1 1 1 2 1 1

 Wavefunction dump at record             2140.2

 Convergence thresholds  0.10E-01 (gradient)  0.10E-05 (energy)  0.10E-02 (step length)

 Weight factors for state symmetry  1:    0.33333   0.33333   0.33333

 Number of orbital rotations:      257   (    14 Core/Active    189 Core/Virtual   0 Active/Active     54 Active/Virtual)
 Total number of variables:        269

 Micro-Iterations solved by the two-step solver

 ITER. MIC  NCI  NEG     ENERGY(VAR)     ENERGY(PROJ)   ENERGY CHANGE     GRAD(0)  GRAD(ORB)   GRAD(CI)     STEP       TIME

   1    3    3    0     -77.74378816     -77.74911080   -0.00532263    0.12156708 0.00000100 0.00000000  0.58D-01      0.06
   2    2    3    0     -77.74903855     -77.74904103   -0.00000248    0.00247838 0.00000122 0.00000000  0.13D-02      0.09
   3    2    3    0     -77.74904103     -77.74904103   -0.00000000    0.00000140 0.00000000 0.00000000  0.84D-06      0.12

 ** WVFN ****  CONVERGENCE REACHED, FINAL GRADIENT:  0.51D-12



 Results for state 1.1
 =====================

 !MCSCF STATE  1.1 Energy             -78.044975883524
 Nuclear energy                        32.91853513
 Kinetic energy                        78.00474534
 One electron energy                 -169.23191536
 Two electron energy                   58.26840434
 Virial ratio                           2.00051574

 !MCSCF STATE  1.1 Dipole moment        0.00000000    -0.00000000     0.00000000
 Dipole moment /Debye                   0.00000000    -0.00000000     0.00000000

 Results for state 2.1
 =====================

 !MCSCF STATE  2.1 Energy             -77.682828797162
 Nuclear energy                        32.91853513
 Kinetic energy                        78.20187097
 One electron energy                 -168.76727807
 Two electron energy                   58.16591414
 Virial ratio                           1.99336279

 !MCSCF STATE  2.1 Dipole moment        0.00000000    -0.00000000     0.00000000
 Dipole moment /Debye                   0.00000000    -0.00000000     0.00000000

 Results for state 3.1
 =====================

 !MCSCF STATE  3.1 Energy             -77.519318399787
 Nuclear energy                        32.91853513
 Kinetic energy                        78.39899660
 One electron energy                 -168.30264078
 Two electron energy                   57.86478725
 Virial ratio                           1.98877947

 !MCSCF STATE  3.1 Dipole moment        0.00000000    -0.00000000    -0.00000000
 Dipole moment /Debye                   0.00000000    -0.00000000    -0.00000000

 State-averaged charge density matrix saved on record  2140.2 (density set 1)

 !MCSCF trans         <2.1|DMZ|1.1>    -1.512401019143 au =    -3.843888182234 Debye
 !MCSCF trans         <3.1|DMZ|2.1>    -2.381293869220 au =    -6.052248872132 Debye


 NATURAL ORBITALS (state averaged)
 =================================

  Orbital  Occupation    Energy     Coefficients
    1.1     2.00000   -11.24192     1 1s    0.70427     2 1s    0.70427
    2.1     2.00000   -11.24095     1 1s    0.70446     2 1s   -0.70446
    3.1     2.00000    -1.02481     1 1s    0.30747     2 1s    0.30747
    4.1     2.00000    -0.81099     1 1s    0.27739     2 1s   -0.27739
    5.1     2.00000    -0.64947     1 2py   0.32722     2 2py   0.32722
    6.1     2.00000    -0.58815     1 2pz   0.40937     2 2pz  -0.40937
    7.1     2.00000    -0.52560     1 2py   0.31719     2 2py  -0.31719
    8.1     1.00000     0.02326     1 2px   0.38093     1 2px   0.65873     2 2px  -0.38093     2 2px  -0.65873
    9.1     1.00000    -0.21464     1 2px   0.35162     1 2px   0.33096     2 2px   0.35162     2 2px   0.33096
   10.1    -0.00000     0.26677     1 1s   -1.53298     1 2pz  -0.64774     2 1s   -1.53298     2 2pz   0.64774     3 1s    1.06536
                                    4 1s    1.06536     5 1s    1.06536     6 1s    1.06536
   11.1    -0.00000     0.29605     1 2py  -0.83830     2 2py  -0.83830     3 1s    1.13380     4 1s   -1.13380     5 1s    1.13380
                                    6 1s   -1.13380
   12.1    -0.00000     0.30756     1 1s    2.00607     2 1s   -2.00607     3 1s   -1.07509     4 1s   -1.07509     5 1s    1.07509
                                    6 1s    1.07509
   13.1    -0.00000     0.38515     1 2py  -1.81662     2 2py   1.81662     3 1s    1.64133     4 1s   -1.64133     5 1s   -1.64133
                                    6 1s    1.64133
   14.1    -0.00000     0.47359     1 1s   -2.34549     1 2pz   2.68507     2 1s    2.34549     2 2pz   2.68507     3 1s   -0.63357
                                    4 1s   -0.63357     5 1s    0.63357     6 1s    0.63357
   15.1    -0.00000     0.67702     1 2pz  -0.56595     1 2pz   1.01043     2 2pz   0.56595     2 2pz  -1.01043
   16.1    -0.00000     0.73459     1 2py  -0.40796     1 2py   0.78902     2 2py  -0.40796     2 2py   0.78902     3 1s   -0.37171
                                    4 1s    0.37171     5 1s   -0.37171     6 1s    0.37171
   17.1    -0.00000     0.78316     1 2px  -0.75985     1 2px   0.63378     2 2px  -0.75985     2 2px   0.63378
   18.1    -0.00000     0.86020     1 1s   -0.90185     1 1s    1.53628     1 2pz   0.34591     2 1s   -0.90185     2 1s    1.53628
                                    2 2pz  -0.34591     3 1s   -0.38737     3 1s   -0.26978     4 1s   -0.38737     4 1s   -0.26978
                                    5 1s   -0.38737     5 1s   -0.26978     6 1s   -0.38737     6 1s   -0.26978
   19.1    -0.00000     0.86796     1 2px  -0.79865     1 2px   1.08037     2 2px   0.79865     2 2px  -1.08037
   20.1    -0.00000     0.89734     1 1s   -0.36495     1 2pz   0.63563     1 2pz  -0.84073     2 1s    0.36495     2 2pz   0.63563
                                    2 2pz  -0.84073     3 1s    0.35596     4 1s    0.35596     5 1s   -0.35596     6 1s   -0.35596
   21.1    -0.00000     1.13222     1 2py   0.69129     1 2py  -1.10026     2 2py   0.69129     2 2py  -1.10026     3 1s   -0.39065
                                    3 1s    1.07493     4 1s    0.39065     4 1s   -1.07493     5 1s   -0.39065     5 1s    1.07493
                                    6 1s    0.39065     6 1s   -1.07493
   22.1    -0.00000     1.15152     1 2py   0.91973     1 2py  -2.98630     2 2py  -0.91973     2 2py   2.98630     3 1s    1.57027
                                    4 1s   -1.57027     5 1s   -1.57027     6 1s    1.57027
   23.1    -0.00000     1.22477     1 1s   -0.83231     1 2pz  -0.64676     1 2pz   1.61818     2 1s    0.83231     2 2pz  -0.64676
                                    2 2pz   1.61818     3 1s    0.50350     3 1s   -0.83222     4 1s    0.50350     4 1s   -0.83222
                                    5 1s   -0.50350     5 1s    0.83222     6 1s   -0.50350     6 1s    0.83222
   24.1    -0.00000     1.22730     1 1s    1.03404     1 1s   -1.74361     1 2pz   0.36675     1 2pz  -0.50119     2 1s    1.03404
                                    2 1s   -1.74361     2 2pz  -0.36675     2 2pz   0.50119     3 1s   -0.44481     3 1s    0.87640
                                    4 1s   -0.44481     4 1s    0.87640     5 1s   -0.44481     5 1s    0.87640     6 1s   -0.44481
                                    6 1s    0.87640
   25.1    -0.00000     1.29542     1 1s   -1.67342     1 1s    5.00535     1 2pz  -1.33704     2 1s    1.67342     2 1s   -5.00535
                                    2 2pz  -1.33704     3 1s   -0.61783     4 1s   -0.61783     5 1s    0.61783     6 1s    0.61783
   26.1    -0.00000     1.44476     1 2py   2.34253     2 2py  -2.34253     3 1s   -0.68981     3 1s   -0.61956     4 1s    0.68981
                                    4 1s    0.61956     5 1s    0.68981     5 1s    0.61956     6 1s   -0.68981     6 1s   -0.61956
   27.1    -0.00000     1.70001     1 3d1+  0.62662     2 3d1+ -0.62662
   28.1    -0.00000     1.82585     1 3d2-  0.68606     2 3d2-  0.68606
   29.1    -0.00000     2.08220     1 3d2-  0.73022     2 3d2- -0.73022
   30.1    -0.00000     2.21832     1 1s    0.30351     1 1s   -0.62475     1 3d0  -0.29174     1 3d2+  0.66159     2 1s    0.30351
                                    2 1s   -0.62475     2 3d0  -0.29174     2 3d2+  0.66159     3 1s    0.33538     4 1s    0.33538
                                    5 1s    0.33538     6 1s    0.33538
   31.1    -0.00000     2.33060     1 2py   0.28227     1 3d1-  0.70563     2 2py   0.28227     2 3d1- -0.70563     3 1s   -0.53719
                                    4 1s    0.53719     5 1s   -0.53719     6 1s    0.53719
   32.1    -0.00000     2.33554     1 1s   -0.42791     1 2pz   0.25033     1 2pz  -0.46387     1 3d0   0.61978     1 3d2+  0.33519
                                    2 1s   -0.42791     2 2pz  -0.25033     2 2pz   0.46387     2 3d0   0.61978     2 3d2+  0.33519
                                    3 1s    0.26011     4 1s    0.26011     5 1s    0.26011     6 1s    0.26011
   33.1    -0.00000     2.59864     1 1s    0.26888     1 1s   -1.23430     1 3d2+  0.79657     2 1s   -0.26888     2 1s    1.23430
                                    2 3d2+ -0.79657     3 1s    0.46013     4 1s    0.46013     5 1s   -0.46013     6 1s   -0.46013
   34.1    -0.00000     2.62746     1 2px  -0.25505     1 3d1+  0.87089     2 2px   0.25505     2 3d1+  0.87089
   35.1    -0.00000     2.98888     1 1s    1.96423     1 2pz  -0.64565     1 2pz  -1.17404     1 3d0   1.07686     2 1s   -1.96423
                                    2 2pz  -0.64565     2 2pz  -1.17404     2 3d0  -1.07686
   36.1    -0.00000     3.02373     1 2py   0.60985     1 3d1-  0.94416     2 2py  -0.60985     2 3d1-  0.94416     3 1s   -0.50446
                                    4 1s    0.50446     5 1s    0.50446     6 1s   -0.50446


 Natural orbital dump (state averaged) at molpro section  2140.2    (Orbital set 2)



 **********************************************************************************************************************************
 DATASETS  * FILE   NREC   LENGTH (MB)   RECORD NAMES
              1      20       31.36       500      610      700      900      950      970     1000      129      960     1100   
                                          VAR    BASINP    GEOM    SYMINP    ZMAT    AOBASIS   BASIS     P2S    ABASIS      S 
                                         1400     1410     1200     1210     1080     1600     1650     1300     1700     1380   
                                           T        V       H0       H01     AOSYM     SMH    MOLCAS    ERIS     OPER     JKOP   

              2       5        5.42       700     1000      520     2100     2140   
                                         GEOM     BASIS   MCVARS     RHF     MCSCF   

 PROGRAMS   *        TOTAL     MULTI    HF-SCF       INT
 CPU TIMES  *         0.53      0.15      0.08      0.22
 REAL TIME  *         0.83 SEC
 DISK USED  *        38.54 MB
 **********************************************************************************************************************************
 Molecular orbitals read from record     2140.2  Type=MCSCF/NATURAL (state averaged)
 Occupation numbers read from record     2140.2  Type=MCSCF/NATURAL (state averaged)
 Orbital energies read from record       2140.2  Type=MCSCF/NATURAL (state averaged)
 Redundancy group numbers read from rec  2140.2  Type=MCSCF/NATURAL (state averaged)

 MULTI/6-31G* energy=    -77.519318399787

           MULTI          HF-SCF
    -77.51931840    -78.02392038
 **********************************************************************************************************************************
 Molpro calculation terminated
