
 Primary working directories    : /scratch.local/johan406.molpro_temp/molpro.aZUoAh5c0r
 Secondary working directories  : /scratch.local/johan406.molpro_temp/molpro.aZUoAh5c0r
 Wavefunction directory         : /home/goodpast/johan406/wfu/
 Main file repository           : /scratch.local/johan406.molpro_temp/molpro.aZUoAh5c0r/

 id        : roweumn

 Nodes     nprocs
 cn0416       1

 Using customized tuning parameters: mindgm=1; mindgv=20; mindgc=4; mindgr=1; noblas=0; minvec=7
 default implementation of scratch files=df  


 Variables initialized (934), CPU time= 0.00 sec
                                                                                 !leave this line blank
 
 gprint, orbitals=30
 memory, 125., m
 symmetry, nosym
 nelect=16
 basis=6-31g*
 
 geometry={
 C 0.000 0.000 0.697
 C 0.000 -0.000 -0.697
 H 0.000 0.904 1.251
 H 0.000 -0.904 1.251
 H 0.000 0.904 -1.251
 H 0.000 -0.904 -1.251
 }
 
 hf
 {multi,
 closed 7
 occ 9
 wf,spin=0;STATE,3
 }
 
 Commands  initialized (763), CPU time= 0.01 sec, 617 directives.
 Default parameters read. Elapsed time= 0.04 sec

 Checking input...
 Passed
1


                                         ***  PROGRAM SYSTEM MOLPRO  ***
                                       Copyright, TTI GmbH Stuttgart, 2015
                                    Version 2019.2 linked Oct 25 2019 22:50:27


 **********************************************************************************************************************************
 LABEL *                                                                                 
  64 bit serial version                                                                  DATE: 15-Mar-23          TIME: 16:43:27  
 **********************************************************************************************************************************

 SHA1:             8dbd9ae1082e4ce945b0f27595c9eb2d4aa09004
 **********************************************************************************************************************************


 Variable memory set to  125000000 words,  buffer space 

 SETTING NELECT         =        16.00000000                                  
 SETTING BASIS          =    6-31G*
 ZSYMEL=NOSYM


Geometry recognized as XYZ



 Recomputing integrals since basis changed


 Using spherical harmonics

 Library entry C      S 6-31G                selected for orbital group  1
 Library entry C      P 6-31G                selected for orbital group  1
 Library entry C      D 6-31G*               selected for orbital group  1
 Library entry H      S 6-31G                selected for orbital group  2


 PROGRAM * SEWARD (Integral evaluation for generally contracted gaussian basis sets)     Author: Roland Lindh, 1990

 Geometry written to block  1 of record 700


 Point group  C1  



 ATOMIC COORDINATES

 NR  ATOM    CHARGE       X              Y              Z

   1  C       6.00    0.000000000    0.000000000    1.317139109
   2  C       6.00    0.000000000   -0.000000000   -1.317139109
   3  H       1.00    0.000000000    1.708312417    2.364047382
   4  H       1.00    0.000000000   -1.708312417    2.364047382
   5  H       1.00    0.000000000    1.708312417   -2.364047382
   6  H       1.00    0.000000000   -1.708312417   -2.364047382

 Bond lengths in Bohr (Angstrom)

 1-2  2.634278218  1-3  2.003583850  1-4  2.003583850  2-5  2.003583850  2-6  2.003583850
     ( 1.394000000)     ( 1.060250914)     ( 1.060250914)     ( 1.060250914)     ( 1.060250914)

 Bond angles

  1-2-5  121.50129418   1-2-6  121.50129418   2-1-3  121.50129418   2-1-4  121.50129418

  3-1-4  116.99741165   5-2-6  116.99741165

 NUCLEAR CHARGE:                   16
 NUMBER OF PRIMITIVE AOS:          72
 NUMBER OF SYMMETRY AOS:           70
 NUMBER OF CONTRACTIONS:           36   (   36A   )
 NUMBER OF CORE ORBITALS:           2   (    2A   )
 NUMBER OF VALENCE ORBITALS:       12   (   12A   )


 NUCLEAR REPULSION ENERGY   32.90961540

 EXTRA SYMMETRY OF AOS IN SYMMETRY 1:   1 1 1 2 1 1 2 1 1 1   3 2 1 1 1 1 1 2 1 1   2 1 1 1 3 2 1 1 1 1   1 1 1 1 1 1

 Eigenvalues of metric

         1 0.993E-02 0.177E-01 0.362E-01 0.450E-01 0.686E-01 0.210E+00 0.230E+00 0.233E+00


 Contracted 2-electron integrals neglected if value below      1.0D-11
 AO integral compression algorithm  1   Integral accuracy      1.0D-11

     0.786 MB (compressed) written to integral file ( 37.5%)


 NUMBER OF SORTED TWO-ELECTRON INTEGRALS:     222111.     BUFFER LENGTH:  32768
 NUMBER OF SEGMENTS:   1  SEGMENT LENGTH:     222111      RECORD LENGTH: 524288

 Memory used in sort:       0.78 MW

 SORT1 READ      284735. AND WROTE       98247. INTEGRALS IN      1 RECORDS. CPU TIME:     0.00 SEC, REAL TIME:     0.01 SEC
 SORT2 READ       98247. AND WROTE      222111. INTEGRALS IN      3 RECORDS. CPU TIME:     0.02 SEC, REAL TIME:     0.02 SEC

 FILE SIZES:   FILE 1:    30.9 MBYTE,  FILE 4:     4.2 MBYTE,   TOTAL:     35.1 MBYTE

 OPERATOR DM      FOR CENTER  0  COORDINATES:    0.000000    0.000000    0.000000


 **********************************************************************************************************************************
 DATASETS  * FILE   NREC   LENGTH (MB)   RECORD NAMES
              1      19       30.63       500      610      700      900      950      970     1000      129      960     1100   
                                          VAR    BASINP    GEOM    SYMINP    ZMAT    AOBASIS   BASIS     P2S    ABASIS      S 
                                         1400     1410     1200     1210     1080     1600     1650     1300     1700   
                                           T        V       H0       H01     AOSYM     SMH    MOLCAS    ERIS     OPER   

 PROGRAMS   *        TOTAL       INT
 CPU TIMES  *         0.30      0.21
 REAL TIME  *         0.48 SEC
 DISK USED  *        35.45 MB
 **********************************************************************************************************************************


 PROGRAM * RHF-SCF (CLOSED SHELL)       Authors: W. Meyer, H.-J. Werner


 NUMBER OF ELECTRONS:       8+    8-    SPACE SYMMETRY=1    SPIN SYMMETRY: Singlet 
 CONVERGENCE THRESHOLDS:    1.00E-05 (Density)    1.00E-07 (Energy)
 MAX. NUMBER OF ITERATIONS:       60
 INTERPOLATION TYPE:            DIIS
 INTERPOLATION STEPS:              2 (START)      1 (STEP)
 LEVEL SHIFTS:                  0.00 (CLOSED)  0.00 (OPEN) 



 Orbital guess generated from atomic densities. Full valence occupancy:    8

 Molecular orbital dump at record        2100.2

 Initial occupancy:   8

 ITERATION    DDIFF          GRAD             ENERGY        2-EL.EN.            DIPOLE MOMENTS         DIIS   ORB.
    1      0.000D+00      0.000D+00       -78.00156626    117.501061   -0.00000   -0.00000   -0.00000    0    start
    2      0.000D+00      0.807D-02       -78.02197155    115.961136   -0.00000   -0.00000   -0.00000    1    diag
    3      0.785D-02      0.262D-02       -78.02376648    116.502215   -0.00000   -0.00000   -0.00000    2    diag
    4      0.240D-02      0.682D-03       -78.02395493    116.401910    0.00000   -0.00000   -0.00000    3    diag
    5      0.997D-03      0.627D-04       -78.02395669    116.404591    0.00000    0.00000   -0.00000    4    diag
    6      0.131D-03      0.651D-05       -78.02395671    116.404240    0.00000   -0.00000   -0.00000    5    diag
    7      0.110D-04      0.101D-05       -78.02395671    116.404248   -0.00000    0.00000    0.00000    6    diag
    8      0.141D-05      0.105D-06       -78.02395671    116.404243   -0.00000   -0.00000   -0.00000    0    orth

 Final occupancy:   8

 !RHF STATE  1.1 Energy               -78.023956706513
 Nuclear energy                        32.90961540
 One-electron energy                 -169.13569378
 Two-electron energy                   58.20212167
 Virial quotient                       -1.00088468
 !RHF STATE  1.1 Dipole moment         -0.00000000    -0.00000000    -0.00000000
 Dipole moment /Debye                  -0.00000000    -0.00000000    -0.00000000

 ELECTRON ORBITALS
 =================

  Orbital  Occupation    Energy     Coefficients
    1.1     2.00000   -11.23017     1 1s    0.70426     2 1s    0.70426
    2.1     2.00000   -11.22896     1 1s    0.70450     2 1s   -0.70450
    3.1     2.00000    -1.01350     1 1s    0.29995     2 1s    0.29995
    4.1     2.00000    -0.80436     1 1s    0.24404
    5.1     2.00000    -0.63851     1 2py   0.32258     2 2py   0.32258
    6.1     2.00000    -0.57449     1 2pz   0.40712     2 2pz  -0.40712
    7.1     2.00000    -0.51978     1 2py   0.31171     2 2py  -0.31171
    8.1     2.00000    -0.35596     1 2px   0.36815     1 2px   0.31861     2 2px   0.36815     2 2px   0.31861
    9.1     0.00000     0.16550     1 2px   0.34698     1 2px   0.70021     2 2px  -0.34698     2 2px  -0.70021
   10.1     0.00000     0.26902     1 1s   -1.53539     1 2pz  -0.64194     2 1s   -1.53539     2 2pz   0.64194     3 1s    1.06542
                                    4 1s    1.06542     5 1s    1.06542     6 1s    1.06542
   11.1     0.00000     0.30311     1 2py  -0.84371     2 2py  -0.84371     3 1s    1.13913     4 1s   -1.13913     5 1s    1.13913
                                    6 1s   -1.13913
   12.1     0.00000     0.31012     1 1s    1.97613     2 1s   -1.97613     3 1s   -1.08158     4 1s   -1.08158     5 1s    1.08158
                                    6 1s    1.08158
   13.1     0.00000     0.38840     1 2py  -1.82547     2 2py   1.82547     3 1s    1.64472     4 1s   -1.64472     5 1s   -1.64472
                                    6 1s    1.64472
   14.1     0.00000     0.47722     1 1s   -2.38128     1 2pz   2.71019     2 1s    2.38128     2 2pz   2.71019     3 1s   -0.62138
                                    4 1s   -0.62138     5 1s    0.62138     6 1s    0.62138
   15.1     0.00000     0.68686     1 1s    0.34536     1 2pz  -0.57086     1 2pz   1.03411     2 1s    0.34536     2 2pz   0.57086
                                    2 2pz  -1.03411
   16.1     0.00000     0.74410     1 2py  -0.39805     1 2py   0.78344     2 2py  -0.39805     2 2py   0.78344     3 1s   -0.37546
                                    4 1s    0.37546     5 1s   -0.37546     6 1s    0.37546
   17.1     0.00000     0.78848     1 2px  -0.75254     1 2px   0.63984     2 2px  -0.75254     2 2px   0.63984
   18.1     0.00000     0.86310     1 1s   -0.90654     1 1s    1.50594     1 2pz   0.29696     2 1s   -0.90654     2 1s    1.50594
                                    2 2pz  -0.29696     3 1s   -0.38440     3 1s   -0.25699     4 1s   -0.38440     4 1s   -0.25699
                                    5 1s   -0.38440     5 1s   -0.25699     6 1s   -0.38440     6 1s   -0.25699
   19.1     0.00000     0.88354     1 2px  -0.81309     1 2px   1.05405     2 2px   0.81309     2 2px  -1.05405
   20.1     0.00000     0.91338     1 1s   -0.49453     1 2pz   0.63474     1 2pz  -0.76929     2 1s    0.49453     2 2pz   0.63474
                                    2 2pz  -0.76929     3 1s    0.35479     4 1s    0.35479     5 1s   -0.35479     6 1s   -0.35479
   21.1     0.00000     1.14526     1 2py   0.70084     1 2py  -1.09701     2 2py   0.70084     2 2py  -1.09701     3 1s   -0.39079
                                    3 1s    1.06645     4 1s    0.39079     4 1s   -1.06645     5 1s   -0.39079     5 1s    1.06645
                                    6 1s    0.39079     6 1s   -1.06645
   22.1     0.00000     1.16180     1 2py   0.92199     1 2py  -2.97584     2 2py  -0.92199     2 2py   2.97584     3 1s    1.56034
                                    4 1s   -1.56034     5 1s   -1.56034     6 1s    1.56034
   23.1     0.00000     1.22847     1 1s   -0.34678     1 2pz  -0.63434     1 2pz   1.47902     2 1s    0.34678     2 2pz  -0.63434
                                    2 2pz   1.47902     3 1s    0.50363     3 1s   -0.88835     4 1s    0.50363     4 1s   -0.88835
                                    5 1s   -0.50363     5 1s    0.88835     6 1s   -0.50363     6 1s    0.88835
   24.1     0.00000     1.22915     1 1s    1.03863     1 1s   -1.74723     1 2pz   0.36253     1 2pz  -0.49578     2 1s    1.03863
                                    2 1s   -1.74723     2 2pz  -0.36253     2 2pz   0.49578     3 1s   -0.44450     3 1s    0.87699
                                    4 1s   -0.44450     4 1s    0.87699     5 1s   -0.44450     5 1s    0.87699     6 1s   -0.44450
                                    6 1s    0.87699
   25.1     0.00000     1.31084     1 1s   -1.65670     1 1s    5.05401     1 2pz  -1.49213     2 1s    1.65670     2 1s   -5.05401
                                    2 2pz  -1.49213     3 1s   -0.53087     4 1s   -0.53087     5 1s    0.53087     6 1s    0.53087
   26.1     0.00000     1.45140     1 2py   2.33881     2 2py  -2.33881     3 1s   -0.69032     3 1s   -0.61754     4 1s    0.69032
                                    4 1s    0.61754     5 1s    0.69032     5 1s    0.61754     6 1s   -0.69032     6 1s   -0.61754
   27.1     0.00000     1.72216     1 3d1+  0.62679     2 3d1+ -0.62679
   28.1     0.00000     1.83735     1 3d2-  0.68606     2 3d2-  0.68606
   29.1     0.00000     2.10278     1 3d2-  0.73022     2 3d2- -0.73022
   30.1     0.00000     2.23141     1 1s    0.30122     1 1s   -0.63000     1 3d0  -0.28169     1 3d2+  0.66702     2 1s    0.30122
                                    2 1s   -0.63000     2 3d0  -0.28169     2 3d2+  0.66702     3 1s    0.33745     4 1s    0.33745
                                    5 1s    0.33745     6 1s    0.33745
   31.1     0.00000     2.34413     1 2py   0.27515     1 3d1-  0.70721     2 2py   0.27515     2 3d1- -0.70721     3 1s   -0.53356
                                    4 1s    0.53356     5 1s   -0.53356     6 1s    0.53356
   32.1     0.00000     2.35269     1 1s   -0.43320     1 2pz  -0.46001     1 3d0   0.62448     1 3d2+  0.32454     2 1s   -0.43320
                                    2 2pz   0.46001     2 3d0   0.62448     2 3d2+  0.32454     3 1s    0.25393     4 1s    0.25393
                                    5 1s    0.25393     6 1s    0.25393
   33.1     0.00000     2.61456     1 1s    0.26854     1 1s   -1.22456     1 3d2+  0.79697     2 1s   -0.26854     2 1s    1.22456
                                    2 3d2+ -0.79697     3 1s    0.45649     4 1s    0.45649     5 1s   -0.45649     6 1s   -0.45649
   34.1     0.00000     2.64804     1 2px  -0.25470     1 3d1+  0.87056     2 2px   0.25470     2 3d1+  0.87056
   35.1     0.00000     3.00413     1 1s    1.94444     1 2pz  -0.65234     1 2pz  -1.16390     1 3d0   1.07563     2 1s   -1.94444
                                    2 2pz  -0.65234     2 2pz  -1.16390     2 3d0  -1.07563
   36.1     0.00000     3.03536     1 2py   0.60745     1 3d1-  0.94459     2 2py  -0.60745     2 3d1-  0.94459     3 1s   -0.50183
                                    4 1s    0.50183     5 1s    0.50183     6 1s   -0.50183


 HOMO      8.1    -0.355957 =      -9.6861eV
 LUMO      9.1     0.165498 =       4.5034eV
 LUMO-HOMO         0.521455 =      14.1895eV


 **********************************************************************************************************************************
 DATASETS  * FILE   NREC   LENGTH (MB)   RECORD NAMES
              1      19       30.63       500      610      700      900      950      970     1000      129      960     1100   
                                          VAR    BASINP    GEOM    SYMINP    ZMAT    AOBASIS   BASIS     P2S    ABASIS      S 
                                         1400     1410     1200     1210     1080     1600     1650     1300     1700   
                                           T        V       H0       H01     AOSYM     SMH    MOLCAS    ERIS     OPER   

              2       4        2.86       700     1000      520     2100   
                                         GEOM     BASIS   MCVARS     RHF  

 PROGRAMS   *        TOTAL    HF-SCF       INT
 CPU TIMES  *         0.39      0.10      0.21
 REAL TIME  *         0.59 SEC
 DISK USED  *        35.45 MB
 **********************************************************************************************************************************


 PROGRAM * MULTI (Direct Multiconfiguration SCF)       Authors: P.J. Knowles, H.-J. Werner (1984)


 Number of closed-shell orbitals:   7 (   7 )
 Number of active  orbitals:        2 (   2 )
 Number of external orbitals:      27 (  27 )

 State symmetry 1

 Number of electrons:     2    Spin symmetry=Singlet   Space symmetry=1
 Number of states:        3
 Number of CSFs:          3   (4 determinants, 4 intermediate states)

 Molecular orbitals read from record     2100.2  Type=RHF/CANONICAL (state 1.1)

 EXTRA SYMMETRY OF MOS IN SYMMETRY 1:   1 1 1 1 1 1 1 2 2 1   1 1 1 1 1 1 2 1 2 1   1 1 1 1 1 1 2 3 3 1   1 1 1 2 1 1

 Wavefunction dump at record             2140.2

 Convergence thresholds  0.10E-01 (gradient)  0.10E-05 (energy)  0.10E-02 (step length)

 Weight factors for state symmetry  1:    0.33333   0.33333   0.33333

 Number of orbital rotations:      257   (    14 Core/Active    189 Core/Virtual   0 Active/Active     54 Active/Virtual)
 Total number of variables:        269

 Micro-Iterations solved by the two-step solver

 ITER. MIC  NCI  NEG     ENERGY(VAR)     ENERGY(PROJ)   ENERGY CHANGE     GRAD(0)  GRAD(ORB)   GRAD(CI)     STEP       TIME

   1    3    3    0     -77.74382099     -77.74914515   -0.00532415    0.12157484 0.00000100 0.00000000  0.58D-01      0.06
   2    2    3    0     -77.74907284     -77.74907532   -0.00000248    0.00247978 0.00000122 0.00000000  0.13D-02      0.09
   3    2    3    0     -77.74907532     -77.74907532   -0.00000000    0.00000140 0.00000000 0.00000000  0.84D-06      0.12

 ** WVFN ****  CONVERGENCE REACHED, FINAL GRADIENT:  0.52D-12



 Results for state 1.1
 =====================

 !MCSCF STATE  1.1 Energy             -78.045012058155
 Nuclear energy                        32.90961540
 Kinetic energy                        78.00127661
 One electron energy                 -169.21485349
 Two electron energy                   58.26022603
 Virial ratio                           2.00056070

 !MCSCF STATE  1.1 Dipole moment        0.00000000     0.00000000    -0.00000000
 Dipole moment /Debye                   0.00000000     0.00000000    -0.00000000

 Results for state 2.1
 =====================

 !MCSCF STATE  2.1 Energy             -77.682861793473
 Nuclear energy                        32.90961540
 Kinetic energy                        78.19836023
 One electron energy                 -168.75024333
 Two electron energy                   58.15776614
 Virial ratio                           1.99340781

 !MCSCF STATE  2.1 Dipole moment        0.00000000     0.00000000    -0.00000000
 Dipole moment /Debye                   0.00000000     0.00000000    -0.00000000

 Results for state 3.1
 =====================

 !MCSCF STATE  3.1 Energy             -77.519352101455
 Nuclear energy                        32.90961540
 Kinetic energy                        78.39544386
 One electron energy                 -168.28563317
 Two electron energy                   57.85666567
 Virial ratio                           1.98882471

 !MCSCF STATE  3.1 Dipole moment        0.00000000     0.00000000     0.00000000
 Dipole moment /Debye                   0.00000000     0.00000000     0.00000000

 State-averaged charge density matrix saved on record  2140.2 (density set 1)

 !MCSCF trans         <2.1|DMZ|1.1>    -1.512371643096 au =    -3.843813520660 Debye
 !MCSCF trans         <3.1|DMZ|2.1>    -2.381273160950 au =    -6.052196240408 Debye


 NATURAL ORBITALS (state averaged)
 =================================

  Orbital  Occupation    Energy     Coefficients
    1.1     2.00000   -11.24208     1 1s    0.70427     2 1s    0.70427
    2.1     2.00000   -11.24111     1 1s    0.70446     2 1s   -0.70446
    3.1     2.00000    -1.02469     1 1s    0.30749     2 1s    0.30749
    4.1     2.00000    -0.81089     1 1s    0.27748     2 1s   -0.27748
    5.1     2.00000    -0.64911     1 2py   0.32718     2 2py   0.32718
    6.1     2.00000    -0.58831     1 2pz   0.40928     2 2pz  -0.40928
    7.1     2.00000    -0.52530     1 2py   0.31707     2 2py  -0.31707
    8.1     1.00000     0.02324     1 2px   0.38094     1 2px   0.65872     2 2px  -0.38094     2 2px  -0.65872
    9.1     1.00000    -0.21466     1 2px   0.35164     1 2px   0.33094     2 2px   0.35164     2 2px   0.33094
   10.1    -0.00000     0.26677     1 1s   -1.53236     1 2pz  -0.64828     2 1s   -1.53236     2 2pz   0.64828     3 1s    1.06523
                                    4 1s    1.06523     5 1s    1.06523     6 1s    1.06523
   11.1    -0.00000     0.29585     1 2py  -0.83702     2 2py  -0.83702     3 1s    1.13220     4 1s   -1.13220     5 1s    1.13220
                                    6 1s   -1.13220
   12.1    -0.00000     0.30731     1 1s    2.00305     2 1s   -2.00305     3 1s   -1.07424     4 1s   -1.07424     5 1s    1.07424
                                    6 1s    1.07424
   13.1    -0.00000     0.38513     1 2py  -1.81424     2 2py   1.81424     3 1s    1.63910     4 1s   -1.63910     5 1s   -1.63910
                                    6 1s    1.63910
   14.1    -0.00000     0.47371     1 1s   -2.34807     1 2pz   2.68707     2 1s    2.34807     2 2pz   2.68707     3 1s   -0.63403
                                    4 1s   -0.63403     5 1s    0.63403     6 1s    0.63403
   15.1    -0.00000     0.67715     1 2pz  -0.56621     1 2pz   1.01060     2 2pz   0.56621     2 2pz  -1.01060
   16.1    -0.00000     0.73442     1 2py  -0.40817     1 2py   0.78714     2 2py  -0.40817     2 2py   0.78714     3 1s   -0.37175
                                    4 1s    0.37175     5 1s   -0.37175     6 1s    0.37175
   17.1    -0.00000     0.78312     1 2px  -0.75984     1 2px   0.63379     2 2px  -0.75984     2 2px   0.63379
   18.1    -0.00000     0.86038     1 1s   -0.90151     1 1s    1.53699     1 2pz   0.34915     2 1s   -0.90151     2 1s    1.53699
                                    2 2pz  -0.34915     3 1s   -0.38774     3 1s   -0.26999     4 1s   -0.38774     4 1s   -0.26999
                                    5 1s   -0.38774     5 1s   -0.26999     6 1s   -0.38774     6 1s   -0.26999
   19.1    -0.00000     0.86791     1 2px  -0.79865     1 2px   1.08038     2 2px   0.79865     2 2px  -1.08038
   20.1    -0.00000     0.89724     1 1s   -0.35923     1 2pz   0.63532     1 2pz  -0.84412     2 1s    0.35923     2 2pz   0.63532
                                    2 2pz  -0.84412     3 1s    0.35622     4 1s    0.35622     5 1s   -0.35622     6 1s   -0.35622
   21.1    -0.00000     1.13172     1 2py   0.69098     1 2py  -1.09931     2 2py   0.69098     2 2py  -1.09931     3 1s   -0.39064
                                    3 1s    1.07429     4 1s    0.39064     4 1s   -1.07429     5 1s   -0.39064     5 1s    1.07429
                                    6 1s    0.39064     6 1s   -1.07429
   22.1    -0.00000     1.15120     1 2py   0.91953     1 2py  -2.98017     2 2py  -0.91953     2 2py   2.98017     3 1s    1.56714
                                    4 1s   -1.56714     5 1s   -1.56714     6 1s    1.56714
   23.1    -0.00000     1.22463     1 1s   -0.81236     1 2pz  -0.64696     1 2pz   1.61233     2 1s    0.81236     2 2pz  -0.64696
                                    2 2pz   1.61233     3 1s    0.50343     3 1s   -0.83420     4 1s    0.50343     4 1s   -0.83420
                                    5 1s   -0.50343     5 1s    0.83420     6 1s   -0.50343     6 1s    0.83420
   24.1    -0.00000     1.22699     1 1s    1.03383     1 1s   -1.74286     1 2pz   0.36663     1 2pz  -0.50131     2 1s    1.03383
                                    2 1s   -1.74286     2 2pz  -0.36663     2 2pz   0.50131     3 1s   -0.44490     3 1s    0.87621
                                    4 1s   -0.44490     4 1s    0.87621     5 1s   -0.44490     5 1s    0.87621     6 1s   -0.44490
                                    6 1s    0.87621
   25.1    -0.00000     1.29525     1 1s   -1.67286     1 1s    5.00548     1 2pz  -1.34173     2 1s    1.67286     2 1s   -5.00548
                                    2 2pz  -1.34173     3 1s   -0.61397     4 1s   -0.61397     5 1s    0.61397     6 1s    0.61397
   26.1    -0.00000     1.44336     1 2py   2.34084     2 2py  -2.34084     3 1s   -0.68926     3 1s   -0.61798     4 1s    0.68926
                                    4 1s    0.61798     5 1s    0.68926     5 1s    0.61798     6 1s   -0.68926     6 1s   -0.61798
   27.1    -0.00000     1.69996     1 3d1+  0.62662     2 3d1+ -0.62662
   28.1    -0.00000     1.82594     1 3d2-  0.68606     2 3d2-  0.68606
   29.1    -0.00000     2.08231     1 3d2-  0.73022     2 3d2- -0.73022
   30.1    -0.00000     2.21793     1 1s    0.30205     1 1s   -0.62488     1 3d0  -0.28943     1 3d2+  0.66271     2 1s    0.30205
                                    2 1s   -0.62488     2 3d0  -0.28943     2 3d2+  0.66271     3 1s    0.33614     4 1s    0.33614
                                    5 1s    0.33614     6 1s    0.33614
   31.1    -0.00000     2.33007     1 2py   0.28185     1 3d1-  0.70551     2 2py   0.28185     2 3d1- -0.70551     3 1s   -0.53675
                                    4 1s    0.53675     5 1s   -0.53675     6 1s    0.53675
   32.1    -0.00000     2.33491     1 1s   -0.42847     1 2pz   0.25145     1 2pz  -0.46411     1 3d0   0.62083     1 3d2+  0.33246
                                    2 1s   -0.42847     2 2pz  -0.25145     2 2pz   0.46411     2 3d0   0.62083     2 3d2+  0.33246
                                    3 1s    0.25810     4 1s    0.25810     5 1s    0.25810     6 1s    0.25810
   33.1    -0.00000     2.59730     1 1s    0.26903     1 1s   -1.22894     1 3d2+  0.79625     2 1s   -0.26903     2 1s    1.22894
                                    2 3d2+ -0.79625     3 1s    0.45934     4 1s    0.45934     5 1s   -0.45934     6 1s   -0.45934
   34.1    -0.00000     2.62740     1 2px  -0.25506     1 3d1+  0.87089     2 2px   0.25506     2 3d1+  0.87089
   35.1    -0.00000     2.98885     1 1s    1.96565     1 2pz  -0.64540     1 2pz  -1.17498     1 3d0   1.07687     2 1s   -1.96565
                                    2 2pz  -0.64540     2 2pz  -1.17498     2 3d0  -1.07687
   36.1    -0.00000     3.02410     1 2py   0.60741     1 3d1-  0.94417     2 2py  -0.60741     2 3d1-  0.94417     3 1s   -0.50400
                                    4 1s    0.50400     5 1s    0.50400     6 1s   -0.50400


 Natural orbital dump (state averaged) at molpro section  2140.2    (Orbital set 2)



 **********************************************************************************************************************************
 DATASETS  * FILE   NREC   LENGTH (MB)   RECORD NAMES
              1      20       31.36       500      610      700      900      950      970     1000      129      960     1100   
                                          VAR    BASINP    GEOM    SYMINP    ZMAT    AOBASIS   BASIS     P2S    ABASIS      S 
                                         1400     1410     1200     1210     1080     1600     1650     1300     1700     1380   
                                           T        V       H0       H01     AOSYM     SMH    MOLCAS    ERIS     OPER     JKOP   

              2       5        5.42       700     1000      520     2100     2140   
                                         GEOM     BASIS   MCVARS     RHF     MCSCF   

 PROGRAMS   *        TOTAL     MULTI    HF-SCF       INT
 CPU TIMES  *         0.54      0.15      0.10      0.21
 REAL TIME  *         0.78 SEC
 DISK USED  *        38.54 MB
 **********************************************************************************************************************************
 Molecular orbitals read from record     2140.2  Type=MCSCF/NATURAL (state averaged)
 Occupation numbers read from record     2140.2  Type=MCSCF/NATURAL (state averaged)
 Orbital energies read from record       2140.2  Type=MCSCF/NATURAL (state averaged)
 Redundancy group numbers read from rec  2140.2  Type=MCSCF/NATURAL (state averaged)

 MULTI/6-31G* energy=    -77.519352101455

           MULTI          HF-SCF
    -77.51935210    -78.02395671
 **********************************************************************************************************************************
 Molpro calculation terminated
