
 Primary working directories    : /scratch.local/johan406.molpro_temp/molpro.aQ1XSeWoOM
 Secondary working directories  : /scratch.local/johan406.molpro_temp/molpro.aQ1XSeWoOM
 Wavefunction directory         : /home/goodpast/johan406/wfu/
 Main file repository           : /scratch.local/johan406.molpro_temp/molpro.aQ1XSeWoOM/

 id        : roweumn

 Nodes     nprocs
 cn0416       1

 Using customized tuning parameters: mindgm=1; mindgv=20; mindgc=4; mindgr=1; noblas=0; minvec=7
 default implementation of scratch files=df  


 Variables initialized (934), CPU time= 0.01 sec
                                                                                 !leave this line blank
 
 gprint, orbitals=30
 memory, 125., m
 symmetry, nosym
 nelect=16
 basis=6-31g*
 
 geometry={
 C 0.000 0.000 0.697
 C 0.000 -0.000 -0.697
 H 0.000 0.903 1.252
 H 0.000 -0.903 1.252
 H 0.000 0.903 -1.252
 H 0.000 -0.903 -1.252
 }
 
 hf
 {multi,
 closed 7
 occ 9
 wf,spin=0;STATE,3
 }
 
 Commands  initialized (763), CPU time= 0.01 sec, 617 directives.
 Default parameters read. Elapsed time= 0.04 sec

 Checking input...
 Passed
1


                                         ***  PROGRAM SYSTEM MOLPRO  ***
                                       Copyright, TTI GmbH Stuttgart, 2015
                                    Version 2019.2 linked Oct 25 2019 22:50:27


 **********************************************************************************************************************************
 LABEL *                                                                                 
  64 bit serial version                                                                  DATE: 15-Mar-23          TIME: 16:43:32  
 **********************************************************************************************************************************

 SHA1:             8dbd9ae1082e4ce945b0f27595c9eb2d4aa09004
 **********************************************************************************************************************************


 Variable memory set to  125000000 words,  buffer space 

 SETTING NELECT         =        16.00000000                                  
 SETTING BASIS          =    6-31G*
 ZSYMEL=NOSYM


Geometry recognized as XYZ



 Recomputing integrals since basis changed


 Using spherical harmonics

 Library entry C      S 6-31G                selected for orbital group  1
 Library entry C      P 6-31G                selected for orbital group  1
 Library entry C      D 6-31G*               selected for orbital group  1
 Library entry H      S 6-31G                selected for orbital group  2


 PROGRAM * SEWARD (Integral evaluation for generally contracted gaussian basis sets)     Author: Roland Lindh, 1990

 Geometry written to block  1 of record 700


 Point group  C1  



 ATOMIC COORDINATES

 NR  ATOM    CHARGE       X              Y              Z

   1  C       6.00    0.000000000    0.000000000    1.317139109
   2  C       6.00    0.000000000   -0.000000000   -1.317139109
   3  H       1.00    0.000000000    1.706422690    2.365937108
   4  H       1.00    0.000000000   -1.706422690    2.365937108
   5  H       1.00    0.000000000    1.706422690   -2.365937108
   6  H       1.00    0.000000000   -1.706422690   -2.365937108

 Bond lengths in Bohr (Angstrom)

 1-2  2.634278218  1-3  2.002961717  1-4  2.002961717  2-5  2.002961717  2-6  2.002961717
     ( 1.394000000)     ( 1.059921695)     ( 1.059921695)     ( 1.059921695)     ( 1.059921695)

 Bond angles

  1-2-5  121.57562994   1-2-6  121.57562994   2-1-3  121.57562994   2-1-4  121.57562994

  3-1-4  116.84874011   5-2-6  116.84874011

 NUCLEAR CHARGE:                   16
 NUMBER OF PRIMITIVE AOS:          72
 NUMBER OF SYMMETRY AOS:           70
 NUMBER OF CONTRACTIONS:           36   (   36A   )
 NUMBER OF CORE ORBITALS:           2   (    2A   )
 NUMBER OF VALENCE ORBITALS:       12   (   12A   )


 NUCLEAR REPULSION ENERGY   32.91225677

 EXTRA SYMMETRY OF AOS IN SYMMETRY 1:   1 1 1 2 1 1 2 1 1 1   3 2 1 1 1 1 1 2 1 1   2 1 1 1 3 2 1 1 1 1   1 1 1 1 1 1

 Eigenvalues of metric

         1 0.994E-02 0.177E-01 0.361E-01 0.448E-01 0.687E-01 0.210E+00 0.230E+00 0.233E+00


 Contracted 2-electron integrals neglected if value below      1.0D-11
 AO integral compression algorithm  1   Integral accuracy      1.0D-11

     0.786 MB (compressed) written to integral file ( 37.5%)


 NUMBER OF SORTED TWO-ELECTRON INTEGRALS:     222111.     BUFFER LENGTH:  32768
 NUMBER OF SEGMENTS:   1  SEGMENT LENGTH:     222111      RECORD LENGTH: 524288

 Memory used in sort:       0.78 MW

 SORT1 READ      284735. AND WROTE       98247. INTEGRALS IN      1 RECORDS. CPU TIME:     0.01 SEC, REAL TIME:     0.00 SEC
 SORT2 READ       98247. AND WROTE      222111. INTEGRALS IN      3 RECORDS. CPU TIME:     0.01 SEC, REAL TIME:     0.02 SEC

 FILE SIZES:   FILE 1:    30.9 MBYTE,  FILE 4:     4.2 MBYTE,   TOTAL:     35.1 MBYTE

 OPERATOR DM      FOR CENTER  0  COORDINATES:    0.000000    0.000000    0.000000


 **********************************************************************************************************************************
 DATASETS  * FILE   NREC   LENGTH (MB)   RECORD NAMES
              1      19       30.63       500      610      700      900      950      970     1000      129      960     1100   
                                          VAR    BASINP    GEOM    SYMINP    ZMAT    AOBASIS   BASIS     P2S    ABASIS      S 
                                         1400     1410     1200     1210     1080     1600     1650     1300     1700   
                                           T        V       H0       H01     AOSYM     SMH    MOLCAS    ERIS     OPER   

 PROGRAMS   *        TOTAL       INT
 CPU TIMES  *         0.30      0.21
 REAL TIME  *         0.47 SEC
 DISK USED  *        35.45 MB
 **********************************************************************************************************************************


 PROGRAM * RHF-SCF (CLOSED SHELL)       Authors: W. Meyer, H.-J. Werner


 NUMBER OF ELECTRONS:       8+    8-    SPACE SYMMETRY=1    SPIN SYMMETRY: Singlet 
 CONVERGENCE THRESHOLDS:    1.00E-05 (Density)    1.00E-07 (Energy)
 MAX. NUMBER OF ITERATIONS:       60
 INTERPOLATION TYPE:            DIIS
 INTERPOLATION STEPS:              2 (START)      1 (STEP)
 LEVEL SHIFTS:                  0.00 (CLOSED)  0.00 (OPEN) 



 Orbital guess generated from atomic densities. Full valence occupancy:    8

 Molecular orbital dump at record        2100.2

 Initial occupancy:   8

 ITERATION    DDIFF          GRAD             ENERGY        2-EL.EN.            DIPOLE MOMENTS         DIIS   ORB.
    1      0.000D+00      0.000D+00       -78.00150757    117.504334    0.00000   -0.00000   -0.00000    0    start
    2      0.000D+00      0.807D-02       -78.02192341    115.964525   -0.00000    0.00000   -0.00000    1    diag
    3      0.785D-02      0.262D-02       -78.02371923    116.505531   -0.00000   -0.00000   -0.00000    2    diag
    4      0.240D-02      0.682D-03       -78.02390780    116.405231   -0.00000    0.00000   -0.00000    3    diag
    5      0.998D-03      0.627D-04       -78.02390956    116.407913    0.00000   -0.00000   -0.00000    4    diag
    6      0.131D-03      0.652D-05       -78.02390958    116.407562   -0.00000   -0.00000   -0.00000    5    diag
    7      0.110D-04      0.101D-05       -78.02390958    116.407570    0.00000   -0.00000   -0.00000    6    diag
    8      0.143D-05      0.106D-06       -78.02390958    116.407565   -0.00000   -0.00000    0.00000    0    orth

 Final occupancy:   8

 !RHF STATE  1.1 Energy               -78.023909583545
 Nuclear energy                        32.91225677
 One-electron energy                 -169.13994890
 Two-electron energy                   58.20378254
 Virial quotient                       -1.00086078
 !RHF STATE  1.1 Dipole moment         -0.00000000    -0.00000000     0.00000000
 Dipole moment /Debye                  -0.00000000    -0.00000000     0.00000000

 ELECTRON ORBITALS
 =================

  Orbital  Occupation    Energy     Coefficients
    1.1     2.00000   -11.23015     1 1s    0.70426     2 1s    0.70426
    2.1     2.00000   -11.22893     1 1s    0.70450     2 1s   -0.70450
    3.1     2.00000    -1.01351     1 1s    0.29998     2 1s    0.29998
    4.1     2.00000    -0.80470     2 1s   -0.24401
    5.1     2.00000    -0.63834     1 2py   0.32266     2 2py   0.32266
    6.1     2.00000    -0.57491     1 2pz   0.40712     2 2pz  -0.40712
    7.1     2.00000    -0.51970     1 2py   0.31175     2 2py  -0.31175
    8.1     2.00000    -0.35596     1 2px   0.36817     1 2px   0.31860     2 2px   0.36817     2 2px   0.31860
    9.1     0.00000     0.16547     1 2px   0.34697     1 2px   0.70020     2 2px  -0.34697     2 2px  -0.70020
   10.1     0.00000     0.26925     1 1s   -1.53767     1 2pz  -0.64349     2 1s   -1.53767     2 2pz   0.64349     3 1s    1.06702
                                    4 1s    1.06702     5 1s    1.06702     6 1s    1.06702
   11.1     0.00000     0.30317     1 2py  -0.84300     2 2py  -0.84300     3 1s    1.13895     4 1s   -1.13895     5 1s    1.13895
                                    6 1s   -1.13895
   12.1     0.00000     0.31007     1 1s    1.97628     2 1s   -1.97628     3 1s   -1.08195     4 1s   -1.08195     5 1s    1.08195
                                    6 1s    1.08195
   13.1     0.00000     0.38849     1 2py  -1.82419     2 2py   1.82419     3 1s    1.64459     4 1s   -1.64459     5 1s   -1.64459
                                    6 1s    1.64459
   14.1     0.00000     0.47749     1 1s   -2.38136     1 2pz   2.71428     2 1s    2.38136     2 2pz   2.71428     3 1s   -0.62439
                                    4 1s   -0.62439     5 1s    0.62439     6 1s    0.62439
   15.1     0.00000     0.68705     1 1s    0.34540     1 2pz  -0.57108     1 2pz   1.03513     2 1s    0.34540     2 2pz   0.57108
                                    2 2pz  -1.03513
   16.1     0.00000     0.74342     1 2py  -0.39806     1 2py   0.78183     2 2py  -0.39806     2 2py   0.78183     3 1s   -0.37527
                                    4 1s    0.37527     5 1s   -0.37527     6 1s    0.37527
   17.1     0.00000     0.78849     1 2px  -0.75253     1 2px   0.63985     2 2px  -0.75253     2 2px   0.63985
   18.1     0.00000     0.86330     1 1s   -0.90697     1 1s    1.51132     1 2pz   0.30208     2 1s   -0.90697     2 1s    1.51132
                                    2 2pz  -0.30208     3 1s   -0.38442     3 1s   -0.25970     4 1s   -0.38442     4 1s   -0.25970
                                    5 1s   -0.38442     5 1s   -0.25970     6 1s   -0.38442     6 1s   -0.25970
   19.1     0.00000     0.88352     1 2px  -0.81309     1 2px   1.05405     2 2px   0.81309     2 2px  -1.05405
   20.1     0.00000     0.91316     1 1s   -0.49121     1 2pz   0.63433     1 2pz  -0.77565     2 1s    0.49121     2 2pz   0.63433
                                    2 2pz  -0.77565     3 1s    0.35489     4 1s    0.35489     5 1s   -0.35489     6 1s   -0.35489
   21.1     0.00000     1.14536     1 2py   0.70054     1 2py  -1.09621     2 2py   0.70054     2 2py  -1.09621     3 1s   -0.39080
                                    3 1s    1.06656     4 1s    0.39080     4 1s   -1.06656     5 1s   -0.39080     5 1s    1.06656
                                    6 1s    0.39080     6 1s   -1.06656
   22.1     0.00000     1.16184     1 2py   0.92184     1 2py  -2.97720     2 2py  -0.92184     2 2py   2.97720     3 1s    1.56081
                                    4 1s   -1.56081     5 1s   -1.56081     6 1s    1.56081
   23.1     0.00000     1.22924     1 1s   -0.34543     1 2pz  -0.63495     1 2pz   1.47821     2 1s    0.34543     2 2pz  -0.63495
                                    2 2pz   1.47821     3 1s    0.50377     3 1s   -0.88798     4 1s    0.50377     4 1s   -0.88798
                                    5 1s   -0.50377     5 1s    0.88798     6 1s   -0.50377     6 1s    0.88798
   24.1     0.00000     1.22990     1 1s    1.03820     1 1s   -1.74693     1 2pz   0.36288     1 2pz  -0.49638     2 1s    1.03820
                                    2 1s   -1.74693     2 2pz  -0.36288     2 2pz   0.49638     3 1s   -0.44499     3 1s    0.87722
                                    4 1s   -0.44499     4 1s    0.87722     5 1s   -0.44499     5 1s    0.87722     6 1s   -0.44499
                                    6 1s    0.87722
   25.1     0.00000     1.31071     1 1s   -1.65649     1 1s    5.05132     1 2pz  -1.48937     2 1s    1.65649     2 1s   -5.05132
                                    2 2pz  -1.48937     3 1s   -0.53118     4 1s   -0.53118     5 1s    0.53118     6 1s    0.53118
   26.1     0.00000     1.44961     1 2py   2.33013     2 2py  -2.33013     3 1s   -0.68985     3 1s   -0.61350     4 1s    0.68985
                                    4 1s    0.61350     5 1s    0.68985     5 1s    0.61350     6 1s   -0.68985     6 1s   -0.61350
   27.1     0.00000     1.72204     1 3d1+  0.62679     2 3d1+ -0.62679
   28.1     0.00000     1.83737     1 3d2-  0.68606     2 3d2-  0.68606
   29.1     0.00000     2.10281     1 3d2-  0.73022     2 3d2- -0.73022
   30.1     0.00000     2.23158     1 1s    0.29992     1 1s   -0.63109     1 3d0  -0.28061     1 3d2+  0.66761     2 1s    0.29992
                                    2 1s   -0.63109     2 3d0  -0.28061     2 3d2+  0.66761     3 1s    0.33841     4 1s    0.33841
                                    5 1s    0.33841     6 1s    0.33841
   31.1     0.00000     2.34504     1 2py   0.27586     1 3d1-  0.70743     2 2py   0.27586     2 3d1- -0.70743     3 1s   -0.53399
                                    4 1s    0.53399     5 1s   -0.53399     6 1s    0.53399
   32.1     0.00000     2.35196     1 1s   -0.43356     1 2pz  -0.46083     1 3d0   0.62493     1 3d2+  0.32314     2 1s   -0.43356
                                    2 2pz   0.46083     2 3d0   0.62493     2 3d2+  0.32314     3 1s    0.25279     4 1s    0.25279
                                    5 1s    0.25279     6 1s    0.25279
   33.1     0.00000     2.61378     1 1s    0.26791     1 1s   -1.21761     1 3d2+  0.79684     2 1s   -0.26791     2 1s    1.21761
                                    2 3d2+ -0.79684     3 1s    0.45630     4 1s    0.45630     5 1s   -0.45630     6 1s   -0.45630
   34.1     0.00000     2.64792     1 2px  -0.25471     1 3d1+  0.87056     2 2px   0.25471     2 3d1+  0.87056
   35.1     0.00000     3.00404     1 1s    1.94632     1 2pz  -0.65202     1 2pz  -1.16538     1 3d0   1.07565     2 1s   -1.94632
                                    2 2pz  -0.65202     2 2pz  -1.16538     2 3d0  -1.07565
   36.1     0.00000     3.03778     1 2py   0.60675     1 3d1-  0.94519     2 2py  -0.60675     2 3d1-  0.94519     3 1s   -0.50260
                                    4 1s    0.50260     5 1s    0.50260     6 1s   -0.50260


 HOMO      8.1    -0.355964 =      -9.6863eV
 LUMO      9.1     0.165466 =       4.5025eV
 LUMO-HOMO         0.521430 =      14.1888eV


 **********************************************************************************************************************************
 DATASETS  * FILE   NREC   LENGTH (MB)   RECORD NAMES
              1      19       30.63       500      610      700      900      950      970     1000      129      960     1100   
                                          VAR    BASINP    GEOM    SYMINP    ZMAT    AOBASIS   BASIS     P2S    ABASIS      S 
                                         1400     1410     1200     1210     1080     1600     1650     1300     1700   
                                           T        V       H0       H01     AOSYM     SMH    MOLCAS    ERIS     OPER   

              2       4        2.86       700     1000      520     2100   
                                         GEOM     BASIS   MCVARS     RHF  

 PROGRAMS   *        TOTAL    HF-SCF       INT
 CPU TIMES  *         0.38      0.09      0.21
 REAL TIME  *         0.61 SEC
 DISK USED  *        35.45 MB
 **********************************************************************************************************************************


 PROGRAM * MULTI (Direct Multiconfiguration SCF)       Authors: P.J. Knowles, H.-J. Werner (1984)


 Number of closed-shell orbitals:   7 (   7 )
 Number of active  orbitals:        2 (   2 )
 Number of external orbitals:      27 (  27 )

 State symmetry 1

 Number of electrons:     2    Spin symmetry=Singlet   Space symmetry=1
 Number of states:        3
 Number of CSFs:          3   (4 determinants, 4 intermediate states)

 Molecular orbitals read from record     2100.2  Type=RHF/CANONICAL (state 1.1)

 EXTRA SYMMETRY OF MOS IN SYMMETRY 1:   1 1 1 1 1 1 1 2 2 1   1 1 1 1 1 1 2 1 2 1   1 1 1 1 1 1 2 3 3 1   1 1 1 2 1 1

 Wavefunction dump at record             2140.2

 Convergence thresholds  0.10E-01 (gradient)  0.10E-05 (energy)  0.10E-02 (step length)

 Weight factors for state symmetry  1:    0.33333   0.33333   0.33333

 Number of orbital rotations:      257   (    14 Core/Active    189 Core/Virtual   0 Active/Active     54 Active/Virtual)
 Total number of variables:        269

 Micro-Iterations solved by the two-step solver

 ITER. MIC  NCI  NEG     ENERGY(VAR)     ENERGY(PROJ)   ENERGY CHANGE     GRAD(0)  GRAD(ORB)   GRAD(CI)     STEP       TIME

   1    3    3    0     -77.74379515     -77.74912003   -0.00532488    0.12158615 0.00000100 0.00000000  0.58D-01      0.06
   2    2    3    0     -77.74904771     -77.74905019   -0.00000248    0.00247993 0.00000122 0.00000000  0.13D-02      0.09
   3    2    3    0     -77.74905019     -77.74905019   -0.00000000    0.00000140 0.00000000 0.00000000  0.84D-06      0.11

 ** WVFN ****  CONVERGENCE REACHED, FINAL GRADIENT:  0.52D-12



 Results for state 1.1
 =====================

 !MCSCF STATE  1.1 Energy             -78.044967153174
 Nuclear energy                        32.91225677
 Kinetic energy                        78.00305661
 One electron energy                 -169.21914727
 Two electron energy                   58.26192334
 Virial ratio                           2.00053729

 !MCSCF STATE  1.1 Dipole moment        0.00000000    -0.00000000    -0.00000000
 Dipole moment /Debye                   0.00000000    -0.00000000    -0.00000000

 Results for state 2.1
 =====================

 !MCSCF STATE  2.1 Energy             -77.682835324625
 Nuclear energy                        32.91225677
 Kinetic energy                        78.20008534
 One electron energy                 -168.75462645
 Two electron energy                   58.15953435
 Virial ratio                           1.99338556

 !MCSCF STATE  2.1 Dipole moment        0.00000000    -0.00000000    -0.00000000
 Dipole moment /Debye                   0.00000000    -0.00000000    -0.00000000

 Results for state 3.1
 =====================

 !MCSCF STATE  3.1 Energy             -77.519348095028
 Nuclear energy                        32.91225677
 Kinetic energy                        78.39711407
 One electron energy                 -168.29010563
 Two electron energy                   57.85850076
 Virial ratio                           1.98880359

 !MCSCF STATE  3.1 Dipole moment        0.00000000    -0.00000000     0.00000000
 Dipole moment /Debye                   0.00000000    -0.00000000     0.00000000

 State-averaged charge density matrix saved on record  2140.2 (density set 1)

 !MCSCF trans         <2.1|DMZ|1.1>    -1.512338838462 au =    -3.843730145059 Debye
 !MCSCF trans         <3.1|DMZ|2.1>    -2.381347081960 au =    -6.052384116568 Debye


 NATURAL ORBITALS (state averaged)
 =================================

  Orbital  Occupation    Energy     Coefficients
    1.1     2.00000   -11.24206     1 1s    0.70427     2 1s    0.70427
    2.1     2.00000   -11.24108     1 1s    0.70446     2 1s   -0.70446
    3.1     2.00000    -1.02468     1 1s    0.30752     2 1s    0.30752
    4.1     2.00000    -0.81122     1 1s    0.27725     2 1s   -0.27725
    5.1     2.00000    -0.64893     1 2py   0.32726     2 2py   0.32726
    6.1     2.00000    -0.58874     1 2pz   0.40928     2 2pz  -0.40928
    7.1     2.00000    -0.52521     1 2py   0.31711     2 2py  -0.31711
    8.1     1.00000     0.02321     1 2px   0.38093     1 2px   0.65872     2 2px  -0.38093     2 2px  -0.65872
    9.1     1.00000    -0.21466     1 2px   0.35166     1 2px   0.33093     2 2px   0.35166     2 2px   0.33093
   10.1    -0.00000     0.26700     1 1s   -1.53467     1 2pz  -0.64984     2 1s   -1.53467     2 2pz   0.64984     3 1s    1.06683
                                    4 1s    1.06683     5 1s    1.06683     6 1s    1.06683
   11.1    -0.00000     0.29591     1 2py  -0.83632     2 2py  -0.83632     3 1s    1.13203     4 1s   -1.13203     5 1s    1.13203
                                    6 1s   -1.13203
   12.1    -0.00000     0.30726     1 1s    2.00316     2 1s   -2.00316     3 1s   -1.07459     4 1s   -1.07459     5 1s    1.07459
                                    6 1s    1.07459
   13.1    -0.00000     0.38523     1 2py  -0.25004     1 2py  -1.81295     2 2py   0.25004     2 2py   1.81295     3 1s    1.63896
                                    4 1s   -1.63896     5 1s   -1.63896     6 1s    1.63896
   14.1    -0.00000     0.47395     1 1s   -2.34808     1 2pz   2.69100     2 1s    2.34808     2 2pz   2.69100     3 1s   -0.63699
                                    4 1s   -0.63699     5 1s    0.63699     6 1s    0.63699
   15.1    -0.00000     0.67729     1 2pz  -0.56635     1 2pz   1.01139     2 2pz   0.56635     2 2pz  -1.01139
   16.1    -0.00000     0.73376     1 2py  -0.40818     1 2py   0.78555     2 2py  -0.40818     2 2py   0.78555     3 1s   -0.37156
                                    4 1s    0.37156     5 1s   -0.37156     6 1s    0.37156
   17.1    -0.00000     0.78313     1 2px  -0.75983     1 2px   0.63380     2 2px  -0.75983     2 2px   0.63380
   18.1    -0.00000     0.86063     1 1s   -0.90185     1 1s    1.54225     1 2pz   0.35420     2 1s   -0.90185     2 1s    1.54225
                                    2 2pz  -0.35420     3 1s   -0.38772     3 1s   -0.27273     4 1s   -0.38772     4 1s   -0.27273
                                    5 1s   -0.38772     5 1s   -0.27273     6 1s   -0.38772     6 1s   -0.27273
   19.1    -0.00000     0.86790     1 2px  -0.79865     1 2px   1.08037     2 2px   0.79865     2 2px  -1.08037
   20.1    -0.00000     0.89706     1 1s   -0.35580     1 2pz   0.63491     1 2pz  -0.85072     2 1s    0.35580     2 2pz   0.63491
                                    2 2pz  -0.85072     3 1s    0.35629     4 1s    0.35629     5 1s   -0.35629     6 1s   -0.35629
   21.1    -0.00000     1.13183     1 2py   0.69067     1 2py  -1.09848     2 2py   0.69067     2 2py  -1.09848     3 1s   -0.39066
                                    3 1s    1.07440     4 1s    0.39066     4 1s   -1.07440     5 1s   -0.39066     5 1s    1.07440
                                    6 1s    0.39066     6 1s   -1.07440
   22.1    -0.00000     1.15125     1 2py   0.91939     1 2py  -2.98149     2 2py  -0.91939     2 2py   2.98149     3 1s    1.56761
                                    4 1s   -1.56761     5 1s   -1.56761     6 1s    1.56761
   23.1    -0.00000     1.22539     1 1s   -0.81710     1 2pz  -0.64762     1 2pz   1.61292     2 1s    0.81710     2 2pz  -0.64762
                                    2 2pz   1.61292     3 1s    0.50358     3 1s   -0.83302     4 1s    0.50358     4 1s   -0.83302
                                    5 1s   -0.50358     5 1s    0.83302     6 1s   -0.50358     6 1s    0.83302
   24.1    -0.00000     1.22775     1 1s    1.03341     1 1s   -1.74258     1 2pz   0.36695     1 2pz  -0.50188     2 1s    1.03341
                                    2 1s   -1.74258     2 2pz  -0.36695     2 2pz   0.50188     3 1s   -0.44539     3 1s    0.87646
                                    4 1s   -0.44539     4 1s    0.87646     5 1s   -0.44539     5 1s    0.87646     6 1s   -0.44539
                                    6 1s    0.87646
   25.1    -0.00000     1.29512     1 1s   -1.67277     1 1s    5.00188     1 2pz  -1.33696     2 1s    1.67277     2 1s   -5.00188
                                    2 2pz  -1.33696     3 1s   -0.61532     4 1s   -0.61532     5 1s    0.61532     6 1s    0.61532
   26.1    -0.00000     1.44157     1 2py   2.33222     2 2py  -2.33222     3 1s   -0.68879     3 1s   -0.61397     4 1s    0.68879
                                    4 1s    0.61397     5 1s    0.68879     5 1s    0.61397     6 1s   -0.68879     6 1s   -0.61397
   27.1    -0.00000     1.69984     1 3d1+  0.62662     2 3d1+ -0.62662
   28.1    -0.00000     1.82596     1 3d2-  0.68606     2 3d2-  0.68606
   29.1    -0.00000     2.08233     1 3d2-  0.73022     2 3d2- -0.73022
   30.1    -0.00000     2.21811     1 1s    0.30077     1 1s   -0.62597     1 3d0  -0.28837     1 3d2+  0.66330     2 1s    0.30077
                                    2 1s   -0.62597     2 3d0  -0.28837     2 3d2+  0.66330     3 1s    0.33712     4 1s    0.33712
                                    5 1s    0.33712     6 1s    0.33712
   31.1    -0.00000     2.33098     1 2py   0.28256     1 3d1-  0.70574     2 2py   0.28256     2 3d1- -0.70574     3 1s   -0.53718
                                    4 1s    0.53718     5 1s   -0.53718     6 1s    0.53718
   32.1    -0.00000     2.33417     1 1s   -0.42883     1 2pz   0.25195     1 2pz  -0.46496     1 3d0   0.62129     1 3d2+  0.33109
                                    2 1s   -0.42883     2 2pz  -0.25195     2 2pz   0.46496     2 3d0   0.62129     2 3d2+  0.33109
                                    3 1s    0.25698     4 1s    0.25698     5 1s    0.25698     6 1s    0.25698
   33.1    -0.00000     2.59652     1 1s    0.26838     1 1s   -1.22195     1 3d2+  0.79613     2 1s   -0.26838     2 1s    1.22195
                                    2 3d2+ -0.79613     3 1s    0.45915     4 1s    0.45915     5 1s   -0.45915     6 1s   -0.45915
   34.1    -0.00000     2.62728     1 2px  -0.25508     1 3d1+  0.87089     2 2px   0.25508     2 3d1+  0.87089
   35.1    -0.00000     2.98876     1 1s    1.96751     1 2pz  -0.64508     1 2pz  -1.17645     1 3d0   1.07689     2 1s   -1.96751
                                    2 2pz  -0.64508     2 2pz  -1.17645     2 3d0  -1.07689
   36.1    -0.00000     3.02651     1 2py   0.60668     1 3d1-  0.94478     2 2py  -0.60668     2 3d1-  0.94478     3 1s   -0.50477
                                    4 1s    0.50477     5 1s    0.50477     6 1s   -0.50477


 Natural orbital dump (state averaged) at molpro section  2140.2    (Orbital set 2)



 **********************************************************************************************************************************
 DATASETS  * FILE   NREC   LENGTH (MB)   RECORD NAMES
              1      20       31.36       500      610      700      900      950      970     1000      129      960     1100   
                                          VAR    BASINP    GEOM    SYMINP    ZMAT    AOBASIS   BASIS     P2S    ABASIS      S 
                                         1400     1410     1200     1210     1080     1600     1650     1300     1700     1380   
                                           T        V       H0       H01     AOSYM     SMH    MOLCAS    ERIS     OPER     JKOP   

              2       5        5.42       700     1000      520     2100     2140   
                                         GEOM     BASIS   MCVARS     RHF     MCSCF   

 PROGRAMS   *        TOTAL     MULTI    HF-SCF       INT
 CPU TIMES  *         0.52      0.14      0.09      0.21
 REAL TIME  *         0.82 SEC
 DISK USED  *        38.54 MB
 **********************************************************************************************************************************
 Molecular orbitals read from record     2140.2  Type=MCSCF/NATURAL (state averaged)
 Occupation numbers read from record     2140.2  Type=MCSCF/NATURAL (state averaged)
 Orbital energies read from record       2140.2  Type=MCSCF/NATURAL (state averaged)
 Redundancy group numbers read from rec  2140.2  Type=MCSCF/NATURAL (state averaged)

 MULTI/6-31G* energy=    -77.519348095028

           MULTI          HF-SCF
    -77.51934810    -78.02390958
 **********************************************************************************************************************************
 Molpro calculation terminated
