
 Primary working directories    : /scratch.local/johan406.molpro_temp/molpro.Oeb2ilj0WR
 Secondary working directories  : /scratch.local/johan406.molpro_temp/molpro.Oeb2ilj0WR
 Wavefunction directory         : /home/goodpast/johan406/wfu/
 Main file repository           : /scratch.local/johan406.molpro_temp/molpro.Oeb2ilj0WR/

 id        : roweumn

 Nodes     nprocs
 cn0416       1

 Using customized tuning parameters: mindgm=1; mindgv=20; mindgc=4; mindgr=1; noblas=0; minvec=7
 default implementation of scratch files=df  


 Variables initialized (934), CPU time= 0.00 sec
                                                                                 !leave this line blank
 
 gprint, orbitals=30
 memory, 125., m
 symmetry, nosym
 nelect=16
 basis=6-31g*
 
 geometry={
 C 0.000 0.000 0.697
 C 0.000 -0.000 -0.697
 H 0.000 0.902 1.255
 H 0.000 -0.902 1.255
 H 0.000 0.902 -1.255
 H 0.000 -0.902 -1.255
 }
 
 hf
 {multi,
 closed 7
 occ 9
 wf,spin=0;STATE,3
 }
 
 Commands  initialized (763), CPU time= 0.01 sec, 617 directives.
 Default parameters read. Elapsed time= 0.04 sec

 Checking input...
 Passed
1


                                         ***  PROGRAM SYSTEM MOLPRO  ***
                                       Copyright, TTI GmbH Stuttgart, 2015
                                    Version 2019.2 linked Oct 25 2019 22:50:27


 **********************************************************************************************************************************
 LABEL *                                                                                 
  64 bit serial version                                                                  DATE: 15-Mar-23          TIME: 16:43:50  
 **********************************************************************************************************************************

 SHA1:             8dbd9ae1082e4ce945b0f27595c9eb2d4aa09004
 **********************************************************************************************************************************


 Variable memory set to  125000000 words,  buffer space 

 SETTING NELECT         =        16.00000000                                  
 SETTING BASIS          =    6-31G*
 ZSYMEL=NOSYM


Geometry recognized as XYZ



 Recomputing integrals since basis changed


 Using spherical harmonics

 Library entry C      S 6-31G                selected for orbital group  1
 Library entry C      P 6-31G                selected for orbital group  1
 Library entry C      D 6-31G*               selected for orbital group  1
 Library entry H      S 6-31G                selected for orbital group  2


 PROGRAM * SEWARD (Integral evaluation for generally contracted gaussian basis sets)     Author: Roland Lindh, 1990

 Geometry written to block  1 of record 700


 Point group  C1  



 ATOMIC COORDINATES

 NR  ATOM    CHARGE       X              Y              Z

   1  C       6.00    0.000000000    0.000000000    1.317139109
   2  C       6.00    0.000000000   -0.000000000   -1.317139109
   3  H       1.00    0.000000000    1.704532964    2.371606286
   4  H       1.00    0.000000000   -1.704532964    2.371606286
   5  H       1.00    0.000000000    1.704532964   -2.371606286
   6  H       1.00    0.000000000   -1.704532964   -2.371606286

 Bond lengths in Bohr (Angstrom)

 1-2  2.634278218  1-3  2.004328729  1-4  2.004328729  2-5  2.004328729  2-6  2.004328729
     ( 1.394000000)     ( 1.060645087)     ( 1.060645087)     ( 1.060645087)     ( 1.060645087)

 Bond angles

  1-2-5  121.74198252   1-2-6  121.74198252   2-1-3  121.74198252   2-1-4  121.74198252

  3-1-4  116.51603496   5-2-6  116.51603496

 NUCLEAR CHARGE:                   16
 NUMBER OF PRIMITIVE AOS:          72
 NUMBER OF SYMMETRY AOS:           70
 NUMBER OF CONTRACTIONS:           36   (   36A   )
 NUMBER OF CORE ORBITALS:           2   (    2A   )
 NUMBER OF VALENCE ORBITALS:       12   (   12A   )


 NUCLEAR REPULSION ENERGY   32.89698184

 EXTRA SYMMETRY OF AOS IN SYMMETRY 1:   1 1 1 2 1 1 2 1 1 1   3 2 1 1 1 1 1 2 1 1   2 1 1 1 3 2 1 1 1 1   1 1 1 1 1 1

 Eigenvalues of metric

         1 0.997E-02 0.178E-01 0.360E-01 0.447E-01 0.690E-01 0.210E+00 0.230E+00 0.233E+00


 Contracted 2-electron integrals neglected if value below      1.0D-11
 AO integral compression algorithm  1   Integral accuracy      1.0D-11

     0.786 MB (compressed) written to integral file ( 37.5%)


 NUMBER OF SORTED TWO-ELECTRON INTEGRALS:     222111.     BUFFER LENGTH:  32768
 NUMBER OF SEGMENTS:   1  SEGMENT LENGTH:     222111      RECORD LENGTH: 524288

 Memory used in sort:       0.78 MW

 SORT1 READ      284735. AND WROTE       98247. INTEGRALS IN      1 RECORDS. CPU TIME:     0.00 SEC, REAL TIME:     0.00 SEC
 SORT2 READ       98247. AND WROTE      222111. INTEGRALS IN      3 RECORDS. CPU TIME:     0.02 SEC, REAL TIME:     0.02 SEC

 FILE SIZES:   FILE 1:    30.9 MBYTE,  FILE 4:     4.2 MBYTE,   TOTAL:     35.1 MBYTE

 OPERATOR DM      FOR CENTER  0  COORDINATES:    0.000000    0.000000    0.000000


 **********************************************************************************************************************************
 DATASETS  * FILE   NREC   LENGTH (MB)   RECORD NAMES
              1      19       30.63       500      610      700      900      950      970     1000      129      960     1100   
                                          VAR    BASINP    GEOM    SYMINP    ZMAT    AOBASIS   BASIS     P2S    ABASIS      S 
                                         1400     1410     1200     1210     1080     1600     1650     1300     1700   
                                           T        V       H0       H01     AOSYM     SMH    MOLCAS    ERIS     OPER   

 PROGRAMS   *        TOTAL       INT
 CPU TIMES  *         0.29      0.21
 REAL TIME  *         0.47 SEC
 DISK USED  *        35.45 MB
 **********************************************************************************************************************************


 PROGRAM * RHF-SCF (CLOSED SHELL)       Authors: W. Meyer, H.-J. Werner


 NUMBER OF ELECTRONS:       8+    8-    SPACE SYMMETRY=1    SPIN SYMMETRY: Singlet 
 CONVERGENCE THRESHOLDS:    1.00E-05 (Density)    1.00E-07 (Energy)
 MAX. NUMBER OF ITERATIONS:       60
 INTERPOLATION TYPE:            DIIS
 INTERPOLATION STEPS:              2 (START)      1 (STEP)
 LEVEL SHIFTS:                  0.00 (CLOSED)  0.00 (OPEN) 



 Orbital guess generated from atomic densities. Full valence occupancy:    8

 Molecular orbital dump at record        2100.2

 Initial occupancy:   8

 ITERATION    DDIFF          GRAD             ENERGY        2-EL.EN.            DIPOLE MOMENTS         DIIS   ORB.
    1      0.000D+00      0.000D+00       -78.00153032    117.473209   -0.00000    0.00000   -0.00000    0    start
    2      0.000D+00      0.806D-02       -78.02193502    115.934361   -0.00000    0.00000   -0.00000    1    diag
    3      0.784D-02      0.262D-02       -78.02373192    116.475581   -0.00000   -0.00000    0.00000    2    diag
    4      0.240D-02      0.683D-03       -78.02392085    116.375102   -0.00000    0.00000    0.00000    3    diag
    5      0.998D-03      0.628D-04       -78.02392262    116.377805    0.00000   -0.00000    0.00000    4    diag
    6      0.131D-03      0.660D-05       -78.02392264    116.377451    0.00000   -0.00000   -0.00000    5    diag
    7      0.111D-04      0.103D-05       -78.02392264    116.377459    0.00000   -0.00000    0.00000    6    diag
    8      0.146D-05      0.108D-06       -78.02392264    116.377455    0.00000   -0.00000   -0.00000    0    orth

 Final occupancy:   8

 !RHF STATE  1.1 Energy               -78.023922637205
 Nuclear energy                        32.89698184
 One-electron energy                 -169.10963174
 Two-electron energy                   58.18872726
 Virial quotient                       -1.00092699
 !RHF STATE  1.1 Dipole moment          0.00000000    -0.00000000    -0.00000000
 Dipole moment /Debye                   0.00000000    -0.00000000    -0.00000000

 ELECTRON ORBITALS
 =================

  Orbital  Occupation    Energy     Coefficients
    1.1     2.00000   -11.23046     1 1s    0.70426     2 1s    0.70426
    2.1     2.00000   -11.22925     1 1s    0.70450     2 1s   -0.70450
    3.1     2.00000    -1.01329     1 1s    0.30005     2 1s    0.30005
    4.1     2.00000    -0.80487     1 1s    0.24384
    5.1     2.00000    -0.63747     1 2py   0.32265     2 2py   0.32265
    6.1     2.00000    -0.57567     1 2pz   0.40695     2 2pz  -0.40695
    7.1     2.00000    -0.51904     1 2py   0.31154     2 2py  -0.31154
    8.1     2.00000    -0.35604     1 2px   0.36824     1 2px   0.31854     2 2px   0.36824     2 2px   0.31854
    9.1     0.00000     0.16538     1 2px   0.34700     1 2px   0.70016     2 2px  -0.34700     2 2px  -0.70016
   10.1     0.00000     0.26945     1 1s   -1.53863     1 2pz  -0.64611     2 1s   -1.53863     2 2pz   0.64611     3 1s    1.06829
                                    4 1s    1.06829     5 1s    1.06829     6 1s    1.06829
   11.1     0.00000     0.30283     1 2py  -0.83975     2 2py  -0.83975     3 1s    1.13557     4 1s   -1.13557     5 1s    1.13557
                                    6 1s   -1.13557
   12.1     0.00000     0.30951     1 1s    1.97024     2 1s   -1.97024     3 1s   -1.08066     4 1s   -1.08066     5 1s    1.08066
                                    6 1s    1.08066
   13.1     0.00000     0.38855     1 2py  -1.81813     2 2py   1.81813     3 1s    1.64000     4 1s   -1.64000     5 1s   -1.64000
                                    6 1s    1.64000
   14.1     0.00000     0.47802     1 1s   -2.38686     1 2pz   2.72254     2 1s    2.38686     2 2pz   2.72254     3 1s   -0.62828
                                    4 1s   -0.62828     5 1s    0.62828     6 1s    0.62828
   15.1     0.00000     0.68758     1 1s    0.34202     1 2pz  -0.57197     1 2pz   1.03670     2 1s    0.34202     2 2pz   0.57197
                                    2 2pz  -1.03670
   16.1     0.00000     0.74239     1 2py  -0.39847     1 2py   0.77644     2 2py  -0.39847     2 2py   0.77644     3 1s   -0.37520
                                    4 1s    0.37520     5 1s   -0.37520     6 1s    0.37520
   17.1     0.00000     0.78840     1 2px  -0.75249     1 2px   0.63988     2 2px  -0.75249     2 2px   0.63988
   18.1     0.00000     0.86381     1 1s   -0.90686     1 1s    1.51854     1 2pz   0.31400     2 1s   -0.90686     2 1s    1.51854
                                    2 2pz  -0.31400     3 1s   -0.38527     3 1s   -0.26294     4 1s   -0.38527     4 1s   -0.26294
                                    5 1s   -0.38527     5 1s   -0.26294     6 1s   -0.38527     6 1s   -0.26294
   19.1     0.00000     0.88339     1 2px  -0.81308     1 2px   1.05406     2 2px   0.81308     2 2px  -1.05406
   20.1     0.00000     0.91271     1 1s   -0.47640     1 2pz   0.63325     1 2pz  -0.78862     2 1s    0.47640     2 2pz   0.63325
                                    2 2pz  -0.78862     3 1s    0.35559     4 1s    0.35559     5 1s   -0.35559     6 1s   -0.35559
   21.1     0.00000     1.14444     1 2py   0.69965     1 2py  -1.09356     2 2py   0.69965     2 2py  -1.09356     3 1s   -0.39079
                                    3 1s    1.06539     4 1s    0.39079     4 1s   -1.06539     5 1s   -0.39079     5 1s    1.06539
                                    6 1s    0.39079     6 1s   -1.06539
   22.1     0.00000     1.16123     1 2py   0.92132     1 2py  -2.96617     2 2py  -0.92132     2 2py   2.96617     3 1s    1.55501
                                    4 1s   -1.55501     5 1s   -1.55501     6 1s    1.55501
   23.1     0.00000     1.22959     1 1s   -0.25260     1 1s   -0.30877     1 2pz  -0.63565     1 2pz   1.46618     2 1s    0.25260
                                    2 1s    0.30877     2 2pz  -0.63565     2 2pz   1.46618     3 1s    0.50339     3 1s   -0.89032
                                    4 1s    0.50339     4 1s   -0.89032     5 1s   -0.50339     5 1s    0.89032     6 1s   -0.50339
                                    6 1s    0.89032
   24.1     0.00000     1.23000     1 1s    1.03731     1 1s   -1.74504     1 2pz   0.36300     1 2pz  -0.49719     2 1s    1.03731
                                    2 1s   -1.74504     2 2pz  -0.36300     2 2pz   0.49719     3 1s   -0.44565     3 1s    0.87705
                                    4 1s   -0.44565     4 1s    0.87705     5 1s   -0.44565     5 1s    0.87705     6 1s   -0.44565
                                    6 1s    0.87705
   25.1     0.00000     1.31032     1 1s   -1.65421     1 1s    5.04480     1 2pz  -1.49355     2 1s    1.65421     2 1s   -5.04480
                                    2 2pz  -1.49355     3 1s   -0.52420     4 1s   -0.52420     5 1s    0.52420     6 1s    0.52420
   26.1     0.00000     1.44498     1 2py   2.31826     2 2py  -2.31826     3 1s   -0.68827     3 1s   -0.60640     4 1s    0.68827
                                    4 1s    0.60640     5 1s    0.68827     5 1s    0.60640     6 1s   -0.68827     6 1s   -0.60640
   27.1     0.00000     1.72180     1 3d1+  0.62679     2 3d1+ -0.62679
   28.1     0.00000     1.83756     1 3d2-  0.68606     2 3d2-  0.68606
   29.1     0.00000     2.10303     1 3d2-  0.73022     2 3d2- -0.73022
   30.1     0.00000     2.23092     1 1s    0.29568     1 1s   -0.63239     1 3d0  -0.27486     1 3d2+  0.67032     2 1s    0.29568
                                    2 1s   -0.63239     2 3d0  -0.27486     2 3d2+  0.67032     3 1s    0.34079     4 1s    0.34079
                                    5 1s    0.34079     6 1s    0.34079
   31.1     0.00000     2.34486     1 2py   0.27572     1 3d1-  0.70741     2 2py   0.27572     2 3d1- -0.70741     3 1s   -0.53352
                                    4 1s    0.53352     5 1s   -0.53352     6 1s    0.53352
   32.1     0.00000     2.35001     1 1s   -0.43502     1 2pz   0.25143     1 2pz  -0.46201     1 3d0   0.62739     1 3d2+  0.31625
                                    2 1s   -0.43502     2 2pz  -0.25143     2 2pz   0.46201     2 3d0   0.62739     2 3d2+  0.31625
   33.1     0.00000     2.61032     1 1s    0.26758     1 1s   -1.20001     1 3d2+  0.79608     2 1s   -0.26758     2 1s    1.20001
                                    2 3d2+ -0.79608     3 1s    0.45453     4 1s    0.45453     5 1s   -0.45453     6 1s   -0.45453
   34.1     0.00000     2.64767     1 2px  -0.25476     1 3d1+  0.87056     2 2px   0.25476     2 3d1+  0.87056
   35.1     0.00000     3.00389     1 1s    1.95096     1 2pz  -0.65119     1 2pz  -1.16871     1 3d0   1.07569     2 1s   -1.95096
                                    2 2pz  -0.65119     2 2pz  -1.16871     2 3d0  -1.07569
   36.1     0.00000     3.04086     1 2py   0.60105     1 3d1-  0.94580     2 2py  -0.60105     2 3d1-  0.94580     3 1s   -0.50243
                                    4 1s    0.50243     5 1s    0.50243     6 1s   -0.50243


 HOMO      8.1    -0.356036 =      -9.6882eV
 LUMO      9.1     0.165382 =       4.5003eV
 LUMO-HOMO         0.521418 =      14.1885eV


 **********************************************************************************************************************************
 DATASETS  * FILE   NREC   LENGTH (MB)   RECORD NAMES
              1      19       30.63       500      610      700      900      950      970     1000      129      960     1100   
                                          VAR    BASINP    GEOM    SYMINP    ZMAT    AOBASIS   BASIS     P2S    ABASIS      S 
                                         1400     1410     1200     1210     1080     1600     1650     1300     1700   
                                           T        V       H0       H01     AOSYM     SMH    MOLCAS    ERIS     OPER   

              2       4        2.86       700     1000      520     2100   
                                         GEOM     BASIS   MCVARS     RHF  

 PROGRAMS   *        TOTAL    HF-SCF       INT
 CPU TIMES  *         0.38      0.09      0.21
 REAL TIME  *         0.63 SEC
 DISK USED  *        35.45 MB
 **********************************************************************************************************************************


 PROGRAM * MULTI (Direct Multiconfiguration SCF)       Authors: P.J. Knowles, H.-J. Werner (1984)


 Number of closed-shell orbitals:   7 (   7 )
 Number of active  orbitals:        2 (   2 )
 Number of external orbitals:      27 (  27 )

 State symmetry 1

 Number of electrons:     2    Spin symmetry=Singlet   Space symmetry=1
 Number of states:        3
 Number of CSFs:          3   (4 determinants, 4 intermediate states)

 Molecular orbitals read from record     2100.2  Type=RHF/CANONICAL (state 1.1)

 EXTRA SYMMETRY OF MOS IN SYMMETRY 1:   1 1 1 1 1 1 1 2 2 1   1 1 1 1 1 1 2 1 2 1   1 1 1 1 1 1 2 3 3 1   1 1 1 2 1 1

 Wavefunction dump at record             2140.2

 Convergence thresholds  0.10E-01 (gradient)  0.10E-05 (energy)  0.10E-02 (step length)

 Weight factors for state symmetry  1:    0.33333   0.33333   0.33333

 Number of orbital rotations:      257   (    14 Core/Active    189 Core/Virtual   0 Active/Active     54 Active/Virtual)
 Total number of variables:        269

 Micro-Iterations solved by the two-step solver

 ITER. MIC  NCI  NEG     ENERGY(VAR)     ENERGY(PROJ)   ENERGY CHANGE     GRAD(0)  GRAD(ORB)   GRAD(CI)     STEP       TIME

   1    3    3    0     -77.74382193     -77.74915061   -0.00532867    0.12161311 0.00000101 0.00000000  0.58D-01      0.06
   2    2    3    0     -77.74907816     -77.74908064   -0.00000249    0.00248291 0.00000122 0.00000000  0.13D-02      0.09
   3    2    3    0     -77.74908064     -77.74908064   -0.00000000    0.00000140 0.00000000 0.00000000  0.85D-06      0.12

 ** WVFN ****  CONVERGENCE REACHED, FINAL GRADIENT:  0.52D-12



 Results for state 1.1
 =====================

 !MCSCF STATE  1.1 Energy             -78.044982069917
 Nuclear energy                        32.89698184
 Kinetic energy                        77.99785256
 One electron energy                 -169.18915455
 Two electron energy                   58.24719065
 Virial ratio                           2.00060424

 !MCSCF STATE  1.1 Dipole moment        0.00000000     0.00000000     0.00000000
 Dipole moment /Debye                   0.00000000     0.00000000     0.00000000

 Results for state 2.1
 =====================

 !MCSCF STATE  2.1 Energy             -77.682861829754
 Nuclear energy                        32.89698184
 Kinetic energy                        78.19474299
 One electron energy                 -168.72477649
 Two electron energy                   58.14493282
 Virial ratio                           1.99345377

 !MCSCF STATE  2.1 Dipole moment        0.00000000     0.00000000     0.00000000
 Dipole moment /Debye                   0.00000000     0.00000000     0.00000000

 Results for state 3.1
 =====================

 !MCSCF STATE  3.1 Energy             -77.519398027024
 Nuclear energy                        32.89698184
 Kinetic energy                        78.39163341
 One electron energy                 -168.26039842
 Two electron energy                   57.84401856
 Virial ratio                           1.98887336

 !MCSCF STATE  3.1 Dipole moment        0.00000000     0.00000000    -0.00000000
 Dipole moment /Debye                   0.00000000     0.00000000    -0.00000000

 State-averaged charge density matrix saved on record  2140.2 (density set 1)

 !MCSCF trans         <2.1|DMZ|1.1>    -1.512247381522 au =    -3.843497699928 Debye
 !MCSCF trans         <3.1|DMZ|2.1>    -2.381377872916 au =    -6.052462374246 Debye


 NATURAL ORBITALS (state averaged)
 =================================

  Orbital  Occupation    Energy     Coefficients
    1.1     2.00000   -11.24235     1 1s    0.70427     2 1s    0.70427
    2.1     2.00000   -11.24138     1 1s    0.70446     2 1s   -0.70446
    3.1     2.00000    -1.02444     1 1s    0.30760     2 1s    0.30760
    4.1     2.00000    -0.81135     1 1s    0.27719     2 1s   -0.27719
    5.1     2.00000    -0.64803     1 2py   0.32727     2 2py   0.32727
    6.1     2.00000    -0.58947     1 2pz   0.40911     2 2pz  -0.40911
    7.1     2.00000    -0.52451     1 2py   0.31691     2 2py  -0.31691
    8.1     1.00000    -0.21471     1 2px   0.35173     1 2px   0.33088     2 2px   0.35173     2 2px   0.33088
    9.1     1.00000     0.02314     1 2px   0.38094     1 2px   0.65870     2 2px  -0.38094     2 2px  -0.65870
   10.1    -0.00000     0.26723     1 1s   -1.53570     1 2pz  -0.65246     2 1s   -1.53570     2 2pz   0.65246     3 1s    1.06813
                                    4 1s    1.06813     5 1s    1.06813     6 1s    1.06813
   11.1    -0.00000     0.29555     1 2py  -0.83305     2 2py  -0.83305     3 1s    1.12864     4 1s   -1.12864     5 1s    1.12864
                                    6 1s   -1.12864
   12.1    -0.00000     0.30671     1 1s    1.99718     2 1s   -1.99718     3 1s   -1.07324     4 1s   -1.07324     5 1s    1.07324
                                    6 1s    1.07324
   13.1    -0.00000     0.38529     1 2py  -0.25067     1 2py  -1.80689     2 2py   0.25067     2 2py   1.80689     3 1s    1.63437
                                    4 1s   -1.63437     5 1s   -1.63437     6 1s    1.63437
   14.1    -0.00000     0.47442     1 1s   -2.35331     1 2pz   2.69894     2 1s    2.35331     2 2pz   2.69894     3 1s   -0.64085
                                    4 1s   -0.64085     5 1s    0.64085     6 1s    0.64085
   15.1    -0.00000     0.67768     1 2pz  -0.56697     1 2pz   1.01245     2 2pz   0.56697     2 2pz  -1.01245
   16.1    -0.00000     0.73279     1 2py  -0.40864     1 2py   0.78026     2 2py  -0.40864     2 2py   0.78026     3 1s   -0.37144
                                    4 1s    0.37144     5 1s   -0.37144     6 1s    0.37144
   17.1    -0.00000     0.78306     1 2px  -0.75980     1 2px   0.63383     2 2px  -0.75980     2 2px   0.63383
   18.1    -0.00000     0.86127     1 1s   -0.90148     1 1s    1.54897     1 2pz   0.36583     2 1s   -0.90148     2 1s    1.54897
                                    2 2pz  -0.36583     3 1s   -0.38841     3 1s   -0.27593     4 1s   -0.38841     4 1s   -0.27593
                                    5 1s   -0.38841     5 1s   -0.27593     6 1s   -0.38841     6 1s   -0.27593
   19.1    -0.00000     0.86779     1 2px  -0.79865     1 2px   1.08037     2 2px   0.79865     2 2px  -1.08037
   20.1    -0.00000     0.89669     1 1s   -0.34078     1 2pz   0.63390     1 2pz  -0.86425     2 1s    0.34078     2 2pz   0.63390
                                    2 2pz  -0.86425     3 1s    0.35687     4 1s    0.35687     5 1s   -0.35687     6 1s   -0.35687
   21.1    -0.00000     1.13094     1 2py   0.68974     1 2py  -1.09575     2 2py   0.68974     2 2py  -1.09575     3 1s   -0.39068
                                    3 1s    1.07321     4 1s    0.39068     4 1s   -1.07321     5 1s   -0.39068     5 1s    1.07321
                                    6 1s    0.39068     6 1s   -1.07321
   22.1    -0.00000     1.15065     1 2py   0.91885     1 2py  -2.97054     2 2py  -0.91885     2 2py   2.97054     3 1s    1.56184
                                    4 1s   -1.56184     5 1s   -1.56184     6 1s    1.56184
   23.1    -0.00000     1.22586     1 1s   -0.78108     1 2pz  -0.64863     1 2pz   1.60154     2 1s    0.78108     2 2pz  -0.64863
                                    2 2pz   1.60154     3 1s    0.50359     3 1s   -0.83587     4 1s    0.50359     4 1s   -0.83587
                                    5 1s   -0.50359     5 1s    0.83587     6 1s   -0.50359     6 1s    0.83587
   24.1    -0.00000     1.22788     1 1s    1.03255     1 1s   -1.74072     1 2pz   0.36702     1 2pz  -0.50265     2 1s    1.03255
                                    2 1s   -1.74072     2 2pz  -0.36702     2 2pz   0.50265     3 1s   -0.44605     3 1s    0.87630
                                    4 1s   -0.44605     4 1s    0.87630     5 1s   -0.44605     5 1s    0.87630     6 1s   -0.44605
                                    6 1s    0.87630
   25.1    -0.00000     1.29466     1 1s   -1.67151     1 1s    4.99848     1 2pz  -1.34181     2 1s    1.67151     2 1s   -4.99848
                                    2 2pz  -1.34181     3 1s   -0.60878     4 1s   -0.60878     5 1s    0.60878     6 1s    0.60878
   26.1    -0.00000     1.43700     1 2py   2.32027     2 2py  -2.32027     3 1s   -0.68722     3 1s   -0.60682     4 1s    0.68722
                                    4 1s    0.60682     5 1s    0.68722     5 1s    0.60682     6 1s   -0.68722     6 1s   -0.60682
   27.1    -0.00000     1.69962     1 3d1+  0.62662     2 3d1+ -0.62662
   28.1    -0.00000     1.82617     1 3d2-  0.68606     2 3d2-  0.68606
   29.1    -0.00000     2.08258     1 3d2-  0.73022     2 3d2- -0.73022
   30.1    -0.00000     2.21752     1 1s    0.29649     1 1s   -0.62734     1 3d0  -0.28254     1 3d2+  0.66614     2 1s    0.29649
                                    2 1s   -0.62734     2 3d0  -0.28254     2 3d2+  0.66614     3 1s    0.33961     4 1s    0.33961
                                    5 1s    0.33961     6 1s    0.33961
   31.1    -0.00000     2.33078     1 2py   0.28241     1 3d1-  0.70571     2 2py   0.28241     2 3d1- -0.70571     3 1s   -0.53671
                                    4 1s    0.53671     5 1s   -0.53671     6 1s    0.53671
   32.1    -0.00000     2.33222     1 1s   -0.43033     1 2pz   0.25470     1 2pz  -0.46621     1 3d0   0.62387     1 3d2+  0.32411
                                    2 1s   -0.43033     2 2pz  -0.25470     2 2pz   0.46621     2 3d0   0.62387     2 3d2+  0.32411
                                    3 1s    0.25174     4 1s    0.25174     5 1s    0.25174     6 1s    0.25174
   33.1    -0.00000     2.59306     1 1s    0.26803     1 1s   -1.20432     1 3d2+  0.79537     2 1s   -0.26803     2 1s    1.20432
                                    2 3d2+ -0.79537     3 1s    0.45738     4 1s    0.45738     5 1s   -0.45738     6 1s   -0.45738
   34.1    -0.00000     2.62704     1 2px  -0.25513     1 3d1+  0.87089     2 2px   0.25513     2 3d1+  0.87089
   35.1    -0.00000     2.98864     1 1s    1.97205     1 2pz  -0.64425     1 2pz  -1.17975     1 3d0   1.07693     2 1s   -1.97205
                                    2 2pz  -0.64425     2 2pz  -1.17975     2 3d0  -1.07693
   36.1    -0.00000     3.02958     1 2py   0.60091     1 3d1-  0.94539     2 2py  -0.60091     2 3d1-  0.94539     3 1s   -0.50459
                                    4 1s    0.50459     5 1s    0.50459     6 1s   -0.50459


 Natural orbital dump (state averaged) at molpro section  2140.2    (Orbital set 2)



 **********************************************************************************************************************************
 DATASETS  * FILE   NREC   LENGTH (MB)   RECORD NAMES
              1      20       31.36       500      610      700      900      950      970     1000      129      960     1100   
                                          VAR    BASINP    GEOM    SYMINP    ZMAT    AOBASIS   BASIS     P2S    ABASIS      S 
                                         1400     1410     1200     1210     1080     1600     1650     1300     1700     1380   
                                           T        V       H0       H01     AOSYM     SMH    MOLCAS    ERIS     OPER     JKOP   

              2       5        5.42       700     1000      520     2100     2140   
                                         GEOM     BASIS   MCVARS     RHF     MCSCF   

 PROGRAMS   *        TOTAL     MULTI    HF-SCF       INT
 CPU TIMES  *         0.53      0.15      0.09      0.21
 REAL TIME  *         0.85 SEC
 DISK USED  *        38.54 MB
 **********************************************************************************************************************************
 Molecular orbitals read from record     2140.2  Type=MCSCF/NATURAL (state averaged)
 Occupation numbers read from record     2140.2  Type=MCSCF/NATURAL (state averaged)
 Orbital energies read from record       2140.2  Type=MCSCF/NATURAL (state averaged)
 Redundancy group numbers read from rec  2140.2  Type=MCSCF/NATURAL (state averaged)

 MULTI/6-31G* energy=    -77.519398027024

           MULTI          HF-SCF
    -77.51939803    -78.02392264
 **********************************************************************************************************************************
 Molpro calculation terminated
