
 Primary working directories    : /scratch.local/johan406.molpro_temp/molpro.ATtRh22eeA
 Secondary working directories  : /scratch.local/johan406.molpro_temp/molpro.ATtRh22eeA
 Wavefunction directory         : /home/goodpast/johan406/wfu/
 Main file repository           : /scratch.local/johan406.molpro_temp/molpro.ATtRh22eeA/

 id        : roweumn

 Nodes     nprocs
 cn0416       1

 Using customized tuning parameters: mindgm=1; mindgv=20; mindgc=4; mindgr=1; noblas=0; minvec=7
 default implementation of scratch files=df  


 Variables initialized (934), CPU time= 0.01 sec
                                                                                 !leave this line blank
 
 gprint, orbitals=30
 memory, 125., m
 symmetry, nosym
 nelect=16
 basis=6-31g*
 
 geometry={
 C 0.000 0.000 0.698
 C 0.000 -0.000 -0.698
 H 0.000 0.899 1.259
 H 0.000 -0.899 1.259
 H 0.000 0.899 -1.259
 H 0.000 -0.899 -1.259
 }
 
 hf
 {multi,
 closed 7
 occ 9
 wf,spin=0;STATE,3
 }
 
 Commands  initialized (763), CPU time= 0.01 sec, 617 directives.
 Default parameters read. Elapsed time= 0.04 sec

 Checking input...
 Passed
1


                                         ***  PROGRAM SYSTEM MOLPRO  ***
                                       Copyright, TTI GmbH Stuttgart, 2015
                                    Version 2019.2 linked Oct 25 2019 22:50:27


 **********************************************************************************************************************************
 LABEL *                                                                                 
  64 bit serial version                                                                  DATE: 15-Mar-23          TIME: 16:44:35  
 **********************************************************************************************************************************

 SHA1:             8dbd9ae1082e4ce945b0f27595c9eb2d4aa09004
 **********************************************************************************************************************************


 Variable memory set to  125000000 words,  buffer space 

 SETTING NELECT         =        16.00000000                                  
 SETTING BASIS          =    6-31G*
 ZSYMEL=NOSYM


Geometry recognized as XYZ



 Recomputing integrals since basis changed


 Using spherical harmonics

 Library entry C      S 6-31G                selected for orbital group  1
 Library entry C      P 6-31G                selected for orbital group  1
 Library entry C      D 6-31G*               selected for orbital group  1
 Library entry H      S 6-31G                selected for orbital group  2


 PROGRAM * SEWARD (Integral evaluation for generally contracted gaussian basis sets)     Author: Roland Lindh, 1990

 Geometry written to block  1 of record 700


 Point group  C1  



 ATOMIC COORDINATES

 NR  ATOM    CHARGE       X              Y              Z

   1  C       6.00    0.000000000    0.000000000    1.319028835
   2  C       6.00    0.000000000   -0.000000000   -1.319028835
   3  H       1.00    0.000000000    1.698863786    2.379165191
   4  H       1.00    0.000000000   -1.698863786    2.379165191
   5  H       1.00    0.000000000    1.698863786   -2.379165191
   6  H       1.00    0.000000000   -1.698863786   -2.379165191

 Bond lengths in Bohr (Angstrom)

 1-2  2.638057670  1-3  2.002505245  1-4  2.002505245  2-5  2.002505245  2-6  2.002505245
     ( 1.396000000)     ( 1.059680140)     ( 1.059680140)     ( 1.059680140)     ( 1.059680140)

 Bond angles

  1-2-5  121.96526413   1-2-6  121.96526413   2-1-3  121.96526413   2-1-4  121.96526413

  3-1-4  116.06947173   5-2-6  116.06947173

 NUCLEAR CHARGE:                   16
 NUMBER OF PRIMITIVE AOS:          72
 NUMBER OF SYMMETRY AOS:           70
 NUMBER OF CONTRACTIONS:           36   (   36A   )
 NUMBER OF CORE ORBITALS:           2   (    2A   )
 NUMBER OF VALENCE ORBITALS:       12   (   12A   )


 NUCLEAR REPULSION ENERGY   32.87958053

 EXTRA SYMMETRY OF AOS IN SYMMETRY 1:   1 1 1 2 1 1 2 1 1 1   3 2 1 1 1 1 1 2 1 1   2 1 1 1 3 2 1 1 1 1   1 1 1 1 1 1

 Eigenvalues of metric

         1 0.101E-01 0.180E-01 0.357E-01 0.442E-01 0.692E-01 0.210E+00 0.232E+00 0.233E+00


 Contracted 2-electron integrals neglected if value below      1.0D-11
 AO integral compression algorithm  1   Integral accuracy      1.0D-11

     0.786 MB (compressed) written to integral file ( 37.5%)


 NUMBER OF SORTED TWO-ELECTRON INTEGRALS:     222111.     BUFFER LENGTH:  32768
 NUMBER OF SEGMENTS:   1  SEGMENT LENGTH:     222111      RECORD LENGTH: 524288

 Memory used in sort:       0.78 MW

 SORT1 READ      284735. AND WROTE       98246. INTEGRALS IN      1 RECORDS. CPU TIME:     0.01 SEC, REAL TIME:     0.00 SEC
 SORT2 READ       98246. AND WROTE      222111. INTEGRALS IN      3 RECORDS. CPU TIME:     0.01 SEC, REAL TIME:     0.02 SEC

 FILE SIZES:   FILE 1:    30.9 MBYTE,  FILE 4:     4.2 MBYTE,   TOTAL:     35.1 MBYTE

 OPERATOR DM      FOR CENTER  0  COORDINATES:    0.000000    0.000000    0.000000


 **********************************************************************************************************************************
 DATASETS  * FILE   NREC   LENGTH (MB)   RECORD NAMES
              1      19       30.63       500      610      700      900      950      970     1000      129      960     1100   
                                          VAR    BASINP    GEOM    SYMINP    ZMAT    AOBASIS   BASIS     P2S    ABASIS      S 
                                         1400     1410     1200     1210     1080     1600     1650     1300     1700   
                                           T        V       H0       H01     AOSYM     SMH    MOLCAS    ERIS     OPER   

 PROGRAMS   *        TOTAL       INT
 CPU TIMES  *         0.31      0.22
 REAL TIME  *         0.49 SEC
 DISK USED  *        35.45 MB
 **********************************************************************************************************************************


 PROGRAM * RHF-SCF (CLOSED SHELL)       Authors: W. Meyer, H.-J. Werner


 NUMBER OF ELECTRONS:       8+    8-    SPACE SYMMETRY=1    SPIN SYMMETRY: Singlet 
 CONVERGENCE THRESHOLDS:    1.00E-05 (Density)    1.00E-07 (Energy)
 MAX. NUMBER OF ITERATIONS:       60
 INTERPOLATION TYPE:            DIIS
 INTERPOLATION STEPS:              2 (START)      1 (STEP)
 LEVEL SHIFTS:                  0.00 (CLOSED)  0.00 (OPEN) 



 Orbital guess generated from atomic densities. Full valence occupancy:    8

 Molecular orbital dump at record        2100.2

 Initial occupancy:   8

 ITERATION    DDIFF          GRAD             ENERGY        2-EL.EN.            DIPOLE MOMENTS         DIIS   ORB.
    1      0.000D+00      0.000D+00       -78.00105337    117.425873    0.00000   -0.00000    0.00000    0    start
    2      0.000D+00      0.805D-02       -78.02143145    115.897301    0.00000   -0.00000    0.00000    1    diag
    3      0.784D-02      0.261D-02       -78.02322153    116.435595   -0.00000   -0.00000    0.00000    2    diag
    4      0.240D-02      0.682D-03       -78.02341014    116.335019    0.00000   -0.00000    0.00000    3    diag
    5      0.997D-03      0.628D-04       -78.02341190    116.337728    0.00000   -0.00000    0.00000    4    diag
    6      0.130D-03      0.662D-05       -78.02341192    116.337376    0.00000    0.00000    0.00000    5    diag
    7      0.111D-04      0.104D-05       -78.02341192    116.337384    0.00000    0.00000    0.00000    6    diag
    8      0.149D-05      0.110D-06       -78.02341192    116.337379    0.00000   -0.00000    0.00000    0    orth

 Final occupancy:   8

 !RHF STATE  1.1 Energy               -78.023411917574
 Nuclear energy                        32.87958053
 One-electron energy                 -169.07168199
 Two-electron energy                   58.16868954
 Virial quotient                       -1.00092102
 !RHF STATE  1.1 Dipole moment          0.00000000    -0.00000000     0.00000000
 Dipole moment /Debye                   0.00000000    -0.00000000     0.00000000

 ELECTRON ORBITALS
 =================

  Orbital  Occupation    Energy     Coefficients
    1.1     2.00000   -11.23072     1 1s    0.70426     2 1s    0.70426
    2.1     2.00000   -11.22952     1 1s    0.70450     2 1s   -0.70450
    3.1     2.00000    -1.01278     1 1s    0.30007     2 1s    0.30007
    4.1     2.00000    -0.80611     2 1s   -0.24389
    5.1     2.00000    -0.63674     1 2py   0.32286     2 2py   0.32286
    6.1     2.00000    -0.57659     1 2pz   0.40685     2 2pz  -0.40685
    7.1     2.00000    -0.51907     1 2py   0.31175     2 2py  -0.31175
    8.1     2.00000    -0.35563     1 2px   0.36813     1 2px   0.31886     2 2px   0.36813     2 2px   0.31886
    9.1     0.00000     0.16482     1 2px   0.34717     1 2px   0.69899     2 2px  -0.34717     2 2px  -0.69899
   10.1     0.00000     0.27010     1 1s   -1.54538     1 2pz  -0.65038     2 1s   -1.54538     2 2pz   0.65038     3 1s    1.07311
                                    4 1s    1.07311     5 1s    1.07311     6 1s    1.07311
   11.1     0.00000     0.30309     1 2py  -0.83805     2 2py  -0.83805     3 1s    1.13509     4 1s   -1.13509     5 1s    1.13509
                                    6 1s   -1.13509
   12.1     0.00000     0.30916     1 1s    1.96924     2 1s   -1.96924     3 1s   -1.08103     4 1s   -1.08103     5 1s    1.08103
                                    6 1s    1.08103
   13.1     0.00000     0.38869     1 2py  -1.81095     2 2py   1.81095     3 1s    1.63826     4 1s   -1.63826     5 1s   -1.63826
                                    6 1s    1.63826
   14.1     0.00000     0.47828     1 1s   -2.36875     1 2pz   2.72627     2 1s    2.36875     2 2pz   2.72627     3 1s   -0.63759
                                    4 1s   -0.63759     5 1s    0.63759     6 1s    0.63759
   15.1     0.00000     0.68885     1 1s    0.34439     1 2pz  -0.57326     1 2pz   1.03941     2 1s    0.34439     2 2pz   0.57326
                                    2 2pz  -1.03941
   16.1     0.00000     0.73990     1 2py  -0.39867     1 2py   0.77122     2 2py  -0.39867     2 2py   0.77122     3 1s   -0.37438
                                    4 1s    0.37438     5 1s   -0.37438     6 1s    0.37438
   17.1     0.00000     0.78872     1 2px  -0.75286     1 2px   0.63991     2 2px  -0.75286     2 2px   0.63991
   18.1     0.00000     0.86456     1 1s   -0.90837     1 1s    1.53485     1 2pz   0.32873     2 1s   -0.90837     2 1s    1.53485
                                    2 2pz  -0.32873     3 1s   -0.38523     3 1s   -0.27124     4 1s   -0.38523     4 1s   -0.27124
                                    5 1s   -0.38523     5 1s   -0.27124     6 1s   -0.38523     6 1s   -0.27124
   19.1     0.00000     0.88308     1 2px  -0.81289     1 2px   1.05339     2 2px   0.81289     2 2px  -1.05339
   20.1     0.00000     0.91068     1 1s   -0.45206     1 2pz   0.63273     1 2pz  -0.81789     2 1s    0.45206     2 2pz   0.63273
                                    2 2pz  -0.81789     3 1s    0.35518     4 1s    0.35518     5 1s   -0.35518     6 1s   -0.35518
   21.1     0.00000     1.14529     1 2py   0.69901     1 2py  -1.09050     2 2py   0.69901     2 2py  -1.09050     3 1s   -0.39116
                                    3 1s    1.06524     4 1s    0.39116     4 1s   -1.06524     5 1s   -0.39116     5 1s    1.06524
                                    6 1s    0.39116     6 1s   -1.06524
   22.1     0.00000     1.16112     1 2py   0.92062     1 2py  -2.96608     2 2py  -0.92062     2 2py   2.96608     3 1s    1.55547
                                    4 1s   -1.55547     5 1s   -1.55547     6 1s    1.55547
   23.1     0.00000     1.23156     1 1s   -0.32750     1 2pz  -0.63739     1 2pz   1.46874     2 1s    0.32750     2 2pz  -0.63739
                                    2 2pz   1.46874     3 1s    0.50450     3 1s   -0.88581     4 1s    0.50450     4 1s   -0.88581
                                    5 1s   -0.50450     5 1s    0.88581     6 1s   -0.50450     6 1s    0.88581
   24.1     0.00000     1.23214     1 1s    1.03606     1 1s   -1.74417     1 2pz   0.36368     1 2pz  -0.49872     2 1s    1.03606
                                    2 1s   -1.74417     2 2pz  -0.36368     2 2pz   0.49872     3 1s   -0.44715     3 1s    0.87777
                                    4 1s   -0.44715     4 1s    0.87777     5 1s   -0.44715     5 1s    0.87777     6 1s   -0.44715
                                    6 1s    0.87777
   25.1     0.00000     1.30907     1 1s   -1.65462     1 1s    5.02234     1 2pz  -1.47113     2 1s    1.65462     2 1s   -5.02234
                                    2 2pz  -1.47113     3 1s   -0.53043     4 1s   -0.53043     5 1s    0.53043     6 1s    0.53043
   26.1     0.00000     1.43834     1 2py   2.28639     2 2py  -2.28639     3 1s   -0.68640     3 1s   -0.59217     4 1s    0.68640
                                    4 1s    0.59217     5 1s    0.68640     5 1s    0.59217     6 1s   -0.68640     6 1s   -0.59217
   27.1     0.00000     1.72098     1 3d1+  0.62708     2 3d1+ -0.62708
   28.1     0.00000     1.83823     1 3d2-  0.68622     2 3d2-  0.68622
   29.1     0.00000     2.10232     1 3d2-  0.73003     2 3d2- -0.73003
   30.1     0.00000     2.23149     1 1s    0.29607     1 1s   -0.63546     1 3d0  -0.27813     1 3d2+  0.66880     2 1s    0.29607
                                    2 1s   -0.63546     2 3d0  -0.27813     2 3d2+  0.66880     3 1s    0.34095     4 1s    0.34095
                                    5 1s    0.34095     6 1s    0.34095
   31.1     0.00000     2.34590     1 1s   -0.43198     1 2pz   0.25119     1 2pz  -0.46497     1 3d0   0.62521     1 3d2+  0.31936
                                    2 1s   -0.43198     2 2pz  -0.25119     2 2pz   0.46497     2 3d0   0.62521     2 3d2+  0.31936
   32.1     0.00000     2.34722     1 2py   0.27711     1 3d1-  0.70845     2 2py   0.27711     2 3d1- -0.70845     3 1s   -0.53475
                                    4 1s    0.53475     5 1s   -0.53475     6 1s    0.53475
   33.1     0.00000     2.60679     1 1s    0.26517     1 1s   -1.17384     1 3d2+  0.79542     2 1s   -0.26517     2 1s    1.17384
                                    2 3d2+ -0.79542     3 1s    0.45378     4 1s    0.45378     5 1s   -0.45378     6 1s   -0.45378
   34.1     0.00000     2.64516     1 2px  -0.25446     1 3d1+  0.86949     2 2px   0.25446     2 3d1+  0.86949
   35.1     0.00000     3.00183     1 1s    1.95337     1 2pz  -0.64539     1 2pz  -1.17239     1 3d0   1.07445     2 1s   -1.95337
                                    2 2pz  -0.64539     2 2pz  -1.17239     2 3d0  -1.07445
   36.1     0.00000     3.04623     1 2py   0.59792     1 3d1-  0.94650     2 2py  -0.59792     2 3d1-  0.94650     3 1s   -0.50473
                                    4 1s    0.50473     5 1s    0.50473     6 1s   -0.50473


 HOMO      8.1    -0.355630 =      -9.6772eV
 LUMO      9.1     0.164817 =       4.4849eV
 LUMO-HOMO         0.520447 =      14.1621eV


 **********************************************************************************************************************************
 DATASETS  * FILE   NREC   LENGTH (MB)   RECORD NAMES
              1      19       30.63       500      610      700      900      950      970     1000      129      960     1100   
                                          VAR    BASINP    GEOM    SYMINP    ZMAT    AOBASIS   BASIS     P2S    ABASIS      S 
                                         1400     1410     1200     1210     1080     1600     1650     1300     1700   
                                           T        V       H0       H01     AOSYM     SMH    MOLCAS    ERIS     OPER   

              2       4        2.86       700     1000      520     2100   
                                         GEOM     BASIS   MCVARS     RHF  

 PROGRAMS   *        TOTAL    HF-SCF       INT
 CPU TIMES  *         0.39      0.09      0.22
 REAL TIME  *         0.62 SEC
 DISK USED  *        35.45 MB
 **********************************************************************************************************************************


 PROGRAM * MULTI (Direct Multiconfiguration SCF)       Authors: P.J. Knowles, H.-J. Werner (1984)


 Number of closed-shell orbitals:   7 (   7 )
 Number of active  orbitals:        2 (   2 )
 Number of external orbitals:      27 (  27 )

 State symmetry 1

 Number of electrons:     2    Spin symmetry=Singlet   Space symmetry=1
 Number of states:        3
 Number of CSFs:          3   (4 determinants, 4 intermediate states)

 Molecular orbitals read from record     2100.2  Type=RHF/CANONICAL (state 1.1)

 EXTRA SYMMETRY OF MOS IN SYMMETRY 1:   1 1 1 1 1 1 1 2 2 1   1 1 1 1 1 1 2 1 2 1   1 1 1 1 1 1 2 3 3 1   1 1 1 2 1 1

 Wavefunction dump at record             2140.2

 Convergence thresholds  0.10E-01 (gradient)  0.10E-05 (energy)  0.10E-02 (step length)

 Weight factors for state symmetry  1:    0.33333   0.33333   0.33333

 Number of orbital rotations:      257   (    14 Core/Active    189 Core/Virtual   0 Active/Active     54 Active/Virtual)
 Total number of variables:        269

 Micro-Iterations solved by the two-step solver

 ITER. MIC  NCI  NEG     ENERGY(VAR)     ENERGY(PROJ)   ENERGY CHANGE     GRAD(0)  GRAD(ORB)   GRAD(CI)     STEP       TIME

   1    3    3    0     -77.74407909     -77.74938154   -0.00530245    0.12127940 0.00000099 0.00000000  0.58D-01      0.05
   2    2    3    0     -77.74930981     -77.74931226   -0.00000245    0.00246660 0.00000120 0.00000000  0.13D-02      0.09
   3    2    3    0     -77.74931226     -77.74931226   -0.00000000    0.00000138 0.00000000 0.00000000  0.83D-06      0.11

 ** WVFN ****  CONVERGENCE REACHED, FINAL GRADIENT:  0.50D-12



 Results for state 1.1
 =====================

 !MCSCF STATE  1.1 Energy             -78.044600883454
 Nuclear energy                        32.87958053
 Kinetic energy                        77.99699555
 One electron energy                 -169.14967079
 Two electron energy                   58.22548938
 Virial ratio                           2.00061035

 !MCSCF STATE  1.1 Dipole moment        0.00000000    -0.00000000    -0.00000000
 Dipole moment /Debye                   0.00000000    -0.00000000    -0.00000000

 Results for state 2.1
 =====================

 !MCSCF STATE  2.1 Energy             -77.682987954390
 Nuclear energy                        32.87958053
 Kinetic energy                        78.19421410
 One electron energy                 -168.68917917
 Two electron energy                   58.12661069
 Virial ratio                           1.99346210

 !MCSCF STATE  2.1 Dipole moment        0.00000000    -0.00000000    -0.00000000
 Dipole moment /Debye                   0.00000000    -0.00000000    -0.00000000

 Results for state 3.1
 =====================

 !MCSCF STATE  3.1 Energy             -77.520347936385
 Nuclear energy                        32.87958053
 Kinetic energy                        78.39143265
 One electron energy                 -168.22868756
 Two electron energy                   57.82875909
 Virial ratio                           1.98888801

 !MCSCF STATE  3.1 Dipole moment        0.00000000    -0.00000000     0.00000000
 Dipole moment /Debye                   0.00000000    -0.00000000     0.00000000

 State-averaged charge density matrix saved on record  2140.2 (density set 1)

 !MCSCF trans         <2.1|DMZ|1.1>    -1.512085144255 au =    -3.843085360936 Debye
 !MCSCF trans         <3.1|DMZ|2.1>    -2.385461008719 au =    -6.062839990540 Debye


 NATURAL ORBITALS (state averaged)
 =================================

  Orbital  Occupation    Energy     Coefficients
    1.1     2.00000   -11.24247     1 1s    0.70427     2 1s    0.70427
    2.1     2.00000   -11.24151     1 1s    0.70446     2 1s   -0.70446
    3.1     2.00000    -1.02377     1 1s    0.30760     2 1s    0.30760
    4.1     2.00000    -0.81251     1 1s    0.27634     2 1s   -0.27634
    5.1     2.00000    -0.64719     1 2py   0.32746     2 2py   0.32746
    6.1     2.00000    -0.59034     1 2pz   0.40904     2 2pz  -0.40904
    7.1     2.00000    -0.52446     1 2py   0.31710     2 2py  -0.31710
    8.1     1.00000     0.02268     1 2px   0.38095     1 2px   0.65774     2 2px  -0.38095     2 2px  -0.65774
    9.1     1.00000    -0.21438     1 2px   0.35158     1 2px   0.33123     2 2px   0.35158     2 2px   0.33123
   10.1    -0.00000     0.26794     1 1s   -1.54256     1 2pz  -0.65677     2 1s   -1.54256     2 2pz   0.65677     3 1s    1.07300
                                    4 1s    1.07300     5 1s    1.07300     6 1s    1.07300
   11.1    -0.00000     0.29585     1 2py  -0.83146     2 2py  -0.83146     3 1s    1.12821     4 1s   -1.12821     5 1s    1.12821
                                    6 1s   -1.12821
   12.1    -0.00000     0.30638     1 1s    1.99623     2 1s   -1.99623     3 1s   -1.07344     4 1s   -1.07344     5 1s    1.07344
                                    6 1s    1.07344
   13.1    -0.00000     0.38546     1 2py  -0.25116     1 2py  -1.79981     2 2py   0.25116     2 2py   1.79981     3 1s    1.63267
                                    4 1s   -1.63267     5 1s   -1.63267     6 1s    1.63267
   14.1    -0.00000     0.47457     1 1s   -2.33452     1 2pz   2.70202     2 1s    2.33452     2 2pz   2.70202     3 1s   -0.65018
                                    4 1s   -0.65018     5 1s    0.65018     6 1s    0.65018
   15.1    -0.00000     0.67884     1 2pz  -0.56811     1 2pz   1.01446     2 2pz   0.56811     2 2pz  -1.01446
   16.1    -0.00000     0.73039     1 2py  -0.40883     1 2py   0.77500     2 2py  -0.40883     2 2py   0.77500     3 1s   -0.37062
                                    4 1s    0.37062     5 1s   -0.37062     6 1s    0.37062
   17.1    -0.00000     0.78342     1 2px  -0.76018     1 2px   0.63383     2 2px  -0.76018     2 2px   0.63383
   18.1    -0.00000     0.86217     1 1s   -0.90275     1 1s    1.56507     1 2pz   0.38044     2 1s   -0.90275     2 1s    1.56507
                                    2 2pz  -0.38044     3 1s   -0.38827     3 1s   -0.28432     4 1s   -0.38827     4 1s   -0.28432
                                    5 1s   -0.38827     5 1s   -0.28432     6 1s   -0.38827     6 1s   -0.28432
   19.1    -0.00000     0.86755     1 2px  -0.79851     1 2px   1.07954     2 2px   0.79851     2 2px  -1.07954
   20.1    -0.00000     0.89487     1 1s   -0.31694     1 2pz   0.63330     1 2pz  -0.89392     2 1s    0.31694     2 2pz   0.63330
                                    2 2pz  -0.89392     3 1s    0.35638     4 1s    0.35638     5 1s   -0.35638     6 1s   -0.35638
   21.1    -0.00000     1.13189     1 2py   0.68911     1 2py  -1.09264     2 2py   0.68911     2 2py  -1.09264     3 1s   -0.39104
                                    3 1s    1.07302     4 1s    0.39104     4 1s   -1.07302     5 1s   -0.39104     5 1s    1.07302
                                    6 1s    0.39104     6 1s   -1.07302
   22.1    -0.00000     1.15062     1 2py   0.91818     1 2py  -2.97038     2 2py  -0.91818     2 2py   2.97038     3 1s    1.56227
                                    4 1s   -1.56227     5 1s   -1.56227     6 1s    1.56227
   23.1    -0.00000     1.22774     1 1s   -0.82509     1 2pz  -0.65017     1 2pz   1.60906     2 1s    0.82509     2 2pz  -0.65017
                                    2 2pz   1.60906     3 1s    0.50447     3 1s   -0.82735     4 1s    0.50447     4 1s   -0.82735
                                    5 1s   -0.50447     5 1s    0.82735     6 1s   -0.50447     6 1s    0.82735
   24.1    -0.00000     1.23008     1 1s    1.03134     1 1s   -1.73989     1 2pz   0.36763     1 2pz  -0.50411     2 1s    1.03134
                                    2 1s   -1.73989     2 2pz  -0.36763     2 2pz   0.50411     3 1s   -0.44754     3 1s    0.87704
                                    4 1s   -0.44754     4 1s    0.87704     5 1s   -0.44754     5 1s    0.87704     6 1s   -0.44754
                                    6 1s    0.87704
   25.1    -0.00000     1.29360     1 1s   -1.67152     1 1s    4.96956     1 2pz  -1.31011     2 1s    1.67152     2 1s   -4.96956
                                    2 2pz  -1.31011     3 1s   -0.61918     4 1s   -0.61918     5 1s    0.61918     6 1s    0.61918
   26.1    -0.00000     1.43040     1 2py   2.28844     2 2py  -2.28844     3 1s   -0.68537     3 1s   -0.59259     4 1s    0.68537
                                    4 1s    0.59259     5 1s    0.68537     5 1s    0.59259     6 1s   -0.68537     6 1s   -0.59259
   27.1    -0.00000     1.69892     1 3d1+  0.62692     2 3d1+ -0.62692
   28.1    -0.00000     1.82693     1 3d2-  0.68622     2 3d2-  0.68622
   29.1    -0.00000     2.08197     1 3d2-  0.73003     2 3d2- -0.73003
   30.1    -0.00000     2.21819     1 1s    0.29720     1 1s   -0.63030     1 3d0  -0.28629     1 3d2+  0.66432     2 1s    0.29720
                                    2 1s   -0.63030     2 3d0  -0.28629     2 3d2+  0.66432     3 1s    0.33957     4 1s    0.33957
                                    5 1s    0.33957     6 1s    0.33957
   31.1    -0.00000     2.32822     1 1s   -0.42705     1 2pz   0.25429     1 2pz  -0.46930     1 3d0   0.62142     1 3d2+  0.32775
                                    2 1s   -0.42705     2 2pz  -0.25429     2 2pz   0.46930     2 3d0   0.62142     2 3d2+  0.32775
                                    3 1s    0.25228     4 1s    0.25228     5 1s    0.25228     6 1s    0.25228
   32.1    -0.00000     2.33319     1 2py   0.28378     1 3d1-  0.70675     2 2py   0.28378     2 3d1- -0.70675     3 1s   -0.53793
                                    4 1s    0.53793     5 1s   -0.53793     6 1s    0.53793
   33.1    -0.00000     2.58962     1 1s    0.26557     1 1s   -1.17801     1 3d2+  0.79470     2 1s   -0.26557     2 1s    1.17801
                                    2 3d2+ -0.79470     3 1s    0.45663     4 1s    0.45663     5 1s   -0.45663     6 1s   -0.45663
   34.1    -0.00000     2.62460     1 2px  -0.25482     1 3d1+  0.86983     2 2px   0.25482     2 3d1+  0.86983
   35.1    -0.00000     2.98668     1 1s    1.97421     1 2pz  -0.63846     1 2pz  -1.18331     1 3d0   1.07567     2 1s   -1.97421
                                    2 2pz  -0.63846     2 2pz  -1.18331     2 3d0  -1.07567
   36.1    -0.00000     3.03497     1 2py   0.59767     1 3d1-  0.94609     2 2py  -0.59767     2 3d1-  0.94609     3 1s   -0.50686
                                    4 1s    0.50686     5 1s    0.50686     6 1s   -0.50686


 Natural orbital dump (state averaged) at molpro section  2140.2    (Orbital set 2)



 **********************************************************************************************************************************
 DATASETS  * FILE   NREC   LENGTH (MB)   RECORD NAMES
              1      20       31.36       500      610      700      900      950      970     1000      129      960     1100   
                                          VAR    BASINP    GEOM    SYMINP    ZMAT    AOBASIS   BASIS     P2S    ABASIS      S 
                                         1400     1410     1200     1210     1080     1600     1650     1300     1700     1380   
                                           T        V       H0       H01     AOSYM     SMH    MOLCAS    ERIS     OPER     JKOP   

              2       5        5.42       700     1000      520     2100     2140   
                                         GEOM     BASIS   MCVARS     RHF     MCSCF   

 PROGRAMS   *        TOTAL     MULTI    HF-SCF       INT
 CPU TIMES  *         0.55      0.15      0.09      0.22
 REAL TIME  *         0.82 SEC
 DISK USED  *        38.54 MB
 **********************************************************************************************************************************
 Molecular orbitals read from record     2140.2  Type=MCSCF/NATURAL (state averaged)
 Occupation numbers read from record     2140.2  Type=MCSCF/NATURAL (state averaged)
 Orbital energies read from record       2140.2  Type=MCSCF/NATURAL (state averaged)
 Redundancy group numbers read from rec  2140.2  Type=MCSCF/NATURAL (state averaged)

 MULTI/6-31G* energy=    -77.520347936385

           MULTI          HF-SCF
    -77.52034794    -78.02341192
 **********************************************************************************************************************************
 Molpro calculation terminated
