
 Primary working directories    : /scratch.local/johan406.molpro_temp/molpro.riHLpFLFkK
 Secondary working directories  : /scratch.local/johan406.molpro_temp/molpro.riHLpFLFkK
 Wavefunction directory         : /home/goodpast/johan406/wfu/
 Main file repository           : /scratch.local/johan406.molpro_temp/molpro.riHLpFLFkK/

 id        : roweumn

 Nodes     nprocs
 cn0416       1

 Using customized tuning parameters: mindgm=1; mindgv=20; mindgc=4; mindgr=1; noblas=0; minvec=7
 default implementation of scratch files=df  


 Variables initialized (934), CPU time= 0.00 sec
                                                                                 !leave this line blank
 
 gprint, orbitals=30
 memory, 125., m
 symmetry, nosym
 nelect=16
 basis=6-31g*
 
 geometry={
 C 0.000 0.000 0.698
 C 0.000 -0.000 -0.698
 H 0.000 0.898 1.260
 H 0.000 -0.898 1.260
 H 0.000 0.898 -1.260
 H 0.000 -0.898 -1.260
 }
 
 hf
 {multi,
 closed 7
 occ 9
 wf,spin=0;STATE,3
 }
 
 Commands  initialized (763), CPU time= 0.01 sec, 617 directives.
 Default parameters read. Elapsed time= 0.04 sec

 Checking input...
 Passed
1


                                         ***  PROGRAM SYSTEM MOLPRO  ***
                                       Copyright, TTI GmbH Stuttgart, 2015
                                    Version 2019.2 linked Oct 25 2019 22:50:27


 **********************************************************************************************************************************
 LABEL *                                                                                 
  64 bit serial version                                                                  DATE: 15-Mar-23          TIME: 16:45:02  
 **********************************************************************************************************************************

 SHA1:             8dbd9ae1082e4ce945b0f27595c9eb2d4aa09004
 **********************************************************************************************************************************


 Variable memory set to  125000000 words,  buffer space 

 SETTING NELECT         =        16.00000000                                  
 SETTING BASIS          =    6-31G*
 ZSYMEL=NOSYM


Geometry recognized as XYZ



 Recomputing integrals since basis changed


 Using spherical harmonics

 Library entry C      S 6-31G                selected for orbital group  1
 Library entry C      P 6-31G                selected for orbital group  1
 Library entry C      D 6-31G*               selected for orbital group  1
 Library entry H      S 6-31G                selected for orbital group  2


 PROGRAM * SEWARD (Integral evaluation for generally contracted gaussian basis sets)     Author: Roland Lindh, 1990

 Geometry written to block  1 of record 700


 Point group  C1  



 ATOMIC COORDINATES

 NR  ATOM    CHARGE       X              Y              Z

   1  C       6.00    0.000000000    0.000000000    1.319028835
   2  C       6.00    0.000000000   -0.000000000   -1.319028835
   3  H       1.00    0.000000000    1.696974060    2.381054917
   4  H       1.00    0.000000000   -1.696974060    2.381054917
   5  H       1.00    0.000000000    1.696974060   -2.381054917
   6  H       1.00    0.000000000   -1.696974060   -2.381054917

 Bond lengths in Bohr (Angstrom)

 1-2  2.638057670  1-3  2.001904183  1-4  2.001904183  2-5  2.001904183  2-6  2.001904183
     ( 1.396000000)     ( 1.059362072)     ( 1.059362072)     ( 1.059362072)     ( 1.059362072)

 Bond angles

  1-2-5  122.03978131   1-2-6  122.03978131   2-1-3  122.03978131   2-1-4  122.03978131

  3-1-4  115.92043738   5-2-6  115.92043738

 NUCLEAR CHARGE:                   16
 NUMBER OF PRIMITIVE AOS:          72
 NUMBER OF SYMMETRY AOS:           70
 NUMBER OF CONTRACTIONS:           36   (   36A   )
 NUMBER OF CORE ORBITALS:           2   (    2A   )
 NUMBER OF VALENCE ORBITALS:       12   (   12A   )


 NUCLEAR REPULSION ENERGY   32.88210325

 EXTRA SYMMETRY OF AOS IN SYMMETRY 1:   1 1 1 2 1 1 2 1 1 1   3 2 1 1 1 1 1 2 1 1   2 1 1 1 3 2 1 1 1 1   1 1 1 1 1 1

 Eigenvalues of metric

         1 0.101E-01 0.180E-01 0.356E-01 0.441E-01 0.693E-01 0.210E+00 0.232E+00 0.232E+00


 Contracted 2-electron integrals neglected if value below      1.0D-11
 AO integral compression algorithm  1   Integral accuracy      1.0D-11

     0.786 MB (compressed) written to integral file ( 37.5%)


 NUMBER OF SORTED TWO-ELECTRON INTEGRALS:     222111.     BUFFER LENGTH:  32768
 NUMBER OF SEGMENTS:   1  SEGMENT LENGTH:     222111      RECORD LENGTH: 524288

 Memory used in sort:       0.78 MW

 SORT1 READ      284735. AND WROTE       98246. INTEGRALS IN      1 RECORDS. CPU TIME:     0.00 SEC, REAL TIME:     0.00 SEC
 SORT2 READ       98246. AND WROTE      222111. INTEGRALS IN      3 RECORDS. CPU TIME:     0.02 SEC, REAL TIME:     0.02 SEC

 FILE SIZES:   FILE 1:    30.9 MBYTE,  FILE 4:     4.2 MBYTE,   TOTAL:     35.1 MBYTE

 OPERATOR DM      FOR CENTER  0  COORDINATES:    0.000000    0.000000    0.000000


 **********************************************************************************************************************************
 DATASETS  * FILE   NREC   LENGTH (MB)   RECORD NAMES
              1      19       30.63       500      610      700      900      950      970     1000      129      960     1100   
                                          VAR    BASINP    GEOM    SYMINP    ZMAT    AOBASIS   BASIS     P2S    ABASIS      S 
                                         1400     1410     1200     1210     1080     1600     1650     1300     1700   
                                           T        V       H0       H01     AOSYM     SMH    MOLCAS    ERIS     OPER   

 PROGRAMS   *        TOTAL       INT
 CPU TIMES  *         0.31      0.22
 REAL TIME  *         0.51 SEC
 DISK USED  *        35.45 MB
 **********************************************************************************************************************************


 PROGRAM * RHF-SCF (CLOSED SHELL)       Authors: W. Meyer, H.-J. Werner


 NUMBER OF ELECTRONS:       8+    8-    SPACE SYMMETRY=1    SPIN SYMMETRY: Singlet 
 CONVERGENCE THRESHOLDS:    1.00E-05 (Density)    1.00E-07 (Energy)
 MAX. NUMBER OF ITERATIONS:       60
 INTERPOLATION TYPE:            DIIS
 INTERPOLATION STEPS:              2 (START)      1 (STEP)
 LEVEL SHIFTS:                  0.00 (CLOSED)  0.00 (OPEN) 



 Orbital guess generated from atomic densities. Full valence occupancy:    8

 Molecular orbital dump at record        2100.2

 Initial occupancy:   8

 ITERATION    DDIFF          GRAD             ENERGY        2-EL.EN.            DIPOLE MOMENTS         DIIS   ORB.
    1      0.000D+00      0.000D+00       -78.00097682    117.428930   -0.00000   -0.00000   -0.00000    0    start
    2      0.000D+00      0.805D-02       -78.02136547    115.900445   -0.00000   -0.00000    0.00000    1    diag
    3      0.784D-02      0.261D-02       -78.02315649    116.438680   -0.00000   -0.00000   -0.00000    2    diag
    4      0.240D-02      0.682D-03       -78.02334524    116.338107   -0.00000   -0.00000    0.00000    3    diag
    5      0.998D-03      0.628D-04       -78.02334700    116.340818    0.00000   -0.00000   -0.00000    4    diag
    6      0.130D-03      0.663D-05       -78.02334702    116.340466    0.00000   -0.00000   -0.00000    5    diag
    7      0.111D-04      0.104D-05       -78.02334702    116.340473    0.00000    0.00000    0.00000    6    diag
    8      0.151D-05      0.111D-06       -78.02334702    116.340469   -0.00000    0.00000   -0.00000    0    orth

 Final occupancy:   8

 !RHF STATE  1.1 Energy               -78.023347018607
 Nuclear energy                        32.88210325
 One-electron energy                 -169.07568474
 Two-electron energy                   58.17023447
 Virial quotient                       -1.00089776
 !RHF STATE  1.1 Dipole moment         -0.00000000     0.00000000    -0.00000000
 Dipole moment /Debye                  -0.00000000     0.00000000    -0.00000000

 ELECTRON ORBITALS
 =================

  Orbital  Occupation    Energy     Coefficients
    1.1     2.00000   -11.23070     1 1s    0.70426     2 1s    0.70426
    2.1     2.00000   -11.22950     1 1s    0.70450     2 1s   -0.70450
    3.1     2.00000    -1.01279     1 1s    0.30010     2 1s    0.30010
    4.1     2.00000    -0.80644     1 1s    0.24386
    5.1     2.00000    -0.63655     1 2py   0.32293     2 2py   0.32293
    6.1     2.00000    -0.57701     1 2pz   0.40685     2 2pz  -0.40685
    7.1     2.00000    -0.51898     1 2py   0.31179     2 2py  -0.31179
    8.1     2.00000    -0.35564     1 2px   0.36815     1 2px   0.31885     2 2px   0.36815     2 2px   0.31885
    9.1     0.00000     0.16478     1 2px   0.34716     1 2px   0.69898     2 2px  -0.34716     2 2px  -0.69898
   10.1     0.00000     0.27032     1 1s   -1.54763     1 2pz  -0.65193     2 1s   -1.54763     2 2pz   0.65193     3 1s    1.07468
                                    4 1s    1.07468     5 1s    1.07468     6 1s    1.07468
   11.1     0.00000     0.30314     1 2py  -0.83734     2 2py  -0.83734     3 1s    1.13490     4 1s   -1.13490     5 1s    1.13490
                                    6 1s   -1.13490
   12.1     0.00000     0.30910     1 1s    1.96924     2 1s   -1.96924     3 1s   -1.08140     4 1s   -1.08140     5 1s    1.08140
                                    6 1s    1.08140
   13.1     0.00000     0.38878     1 2py  -1.80962     2 2py   1.80962     3 1s    1.63811     4 1s   -1.63811     5 1s   -1.63811
                                    6 1s    1.63811
   14.1     0.00000     0.47854     1 1s   -2.36897     1 2pz   2.73041     2 1s    2.36897     2 2pz   2.73041     3 1s   -0.64055
                                    4 1s   -0.64055     5 1s    0.64055     6 1s    0.64055
   15.1     0.00000     0.68904     1 1s    0.34425     1 2pz  -0.57347     1 2pz   1.04037     2 1s    0.34425     2 2pz   0.57347
                                    2 2pz  -1.04037
   16.1     0.00000     0.73925     1 2py  -0.39870     1 2py   0.76964     2 2py  -0.39870     2 2py   0.76964     3 1s   -0.37420
                                    4 1s    0.37420     5 1s   -0.37420     6 1s    0.37420
   17.1     0.00000     0.78873     1 2px  -0.75285     1 2px   0.63992     2 2px  -0.75285     2 2px   0.63992
   18.1     0.00000     0.86479     1 1s   -0.90878     1 1s    1.54037     1 2pz   0.33404     2 1s   -0.90878     2 1s    1.54037
                                    2 2pz  -0.33404     3 1s   -0.38525     3 1s   -0.27405     4 1s   -0.38525     4 1s   -0.27405
                                    5 1s   -0.38525     5 1s   -0.27405     6 1s   -0.38525     6 1s   -0.27405
   19.1     0.00000     0.88306     1 2px  -0.81289     1 2px   1.05339     2 2px   0.81289     2 2px  -1.05339
   20.1     0.00000     0.91048     1 1s   -0.44857     1 2pz   0.63233     1 2pz  -0.82454     2 1s    0.44857     2 2pz   0.63233
                                    2 2pz  -0.82454     3 1s    0.35527     4 1s    0.35527     5 1s   -0.35527     6 1s   -0.35527
   21.1     0.00000     1.14538     1 2py   0.69871     1 2py  -1.08968     2 2py   0.69871     2 2py  -1.08968     3 1s   -0.39118
                                    3 1s    1.06534     4 1s    0.39118     4 1s   -1.06534     5 1s   -0.39118     5 1s    1.06534
                                    6 1s    0.39118     6 1s   -1.06534
   22.1     0.00000     1.16116     1 2py   0.92045     1 2py  -2.96745     2 2py  -0.92045     2 2py   2.96745     3 1s    1.55593
                                    4 1s   -1.55593     5 1s   -1.55593     6 1s    1.55593
   23.1     0.00000     1.23233     1 1s   -0.32593     1 2pz  -0.63797     1 2pz   1.46780     2 1s    0.32593     2 2pz  -0.63797
                                    2 2pz   1.46780     3 1s    0.50465     3 1s   -0.88544     4 1s    0.50465     4 1s   -0.88544
                                    5 1s   -0.50465     5 1s    0.88544     6 1s   -0.50465     6 1s    0.88544
   24.1     0.00000     1.23288     1 1s    1.03561     1 1s   -1.74378     1 2pz   0.36402     1 2pz  -0.49926     2 1s    1.03561
                                    2 1s   -1.74378     2 2pz  -0.36402     2 2pz   0.49926     3 1s   -0.44764     3 1s    0.87796
                                    4 1s   -0.44764     4 1s    0.87796     5 1s   -0.44764     5 1s    0.87796     6 1s   -0.44764
                                    6 1s    0.87796
   25.1     0.00000     1.30893     1 1s   -1.65440     1 1s    5.01962     1 2pz  -1.46842     2 1s    1.65440     2 1s   -5.01962
                                    2 2pz  -1.46842     3 1s   -0.53069     4 1s   -0.53069     5 1s    0.53069     6 1s    0.53069
   26.1     0.00000     1.43654     1 2py   2.27747     2 2py  -2.27747     3 1s   -0.68596     3 1s   -0.58798     4 1s    0.68596
                                    4 1s    0.58798     5 1s    0.68596     5 1s    0.58798     6 1s   -0.68596     6 1s   -0.58798
   27.1     0.00000     1.72086     1 3d1+  0.62708     2 3d1+ -0.62708
   28.1     0.00000     1.83825     1 3d2-  0.68622     2 3d2-  0.68622
   29.1     0.00000     2.10235     1 3d2-  0.73003     2 3d2- -0.73003
   30.1     0.00000     2.23167     1 1s    0.29467     1 1s   -0.63662     1 3d0  -0.27690     1 3d2+  0.66945     2 1s    0.29467
                                    2 1s   -0.63662     2 3d0  -0.27690     2 3d2+  0.66945     3 1s    0.34197     4 1s    0.34197
                                    5 1s    0.34197     6 1s    0.34197
   31.1     0.00000     2.34516     1 1s   -0.43239     1 2pz   0.25174     1 2pz  -0.46576     1 3d0   0.62572     1 3d2+  0.31780
                                    2 1s   -0.43239     2 2pz  -0.25174     2 2pz   0.46576     2 3d0   0.62572     2 3d2+  0.31780
   32.1     0.00000     2.34808     1 2py   0.27780     1 3d1-  0.70866     2 2py   0.27780     2 3d1- -0.70866     3 1s   -0.53516
                                    4 1s    0.53516     5 1s   -0.53516     6 1s    0.53516
   33.1     0.00000     2.60601     1 1s    0.26453     1 1s   -1.16691     1 3d2+  0.79528     2 1s   -0.26453     2 1s    1.16691
                                    2 3d2+ -0.79528     3 1s    0.45358     4 1s    0.45358     5 1s   -0.45358     6 1s   -0.45358
   34.1     0.00000     2.64504     1 2px  -0.25447     1 3d1+  0.86949     2 2px   0.25447     2 3d1+  0.86949
   35.1     0.00000     3.00175     1 1s    1.95512     1 2pz  -0.64505     1 2pz  -1.17381     1 3d0   1.07447     2 1s   -1.95512
                                    2 2pz  -0.64505     2 2pz  -1.17381     2 3d0  -1.07447
   36.1     0.00000     3.04856     1 2py   0.59691     1 3d1-  0.94709     2 2py  -0.59691     2 3d1-  0.94709     3 1s   -0.50543
                                    4 1s    0.50543     5 1s    0.50543     6 1s   -0.50543


 HOMO      8.1    -0.355639 =      -9.6774eV
 LUMO      9.1     0.164784 =       4.4840eV
 LUMO-HOMO         0.520423 =      14.1614eV


 **********************************************************************************************************************************
 DATASETS  * FILE   NREC   LENGTH (MB)   RECORD NAMES
              1      19       30.63       500      610      700      900      950      970     1000      129      960     1100   
                                          VAR    BASINP    GEOM    SYMINP    ZMAT    AOBASIS   BASIS     P2S    ABASIS      S 
                                         1400     1410     1200     1210     1080     1600     1650     1300     1700   
                                           T        V       H0       H01     AOSYM     SMH    MOLCAS    ERIS     OPER   

              2       4        2.86       700     1000      520     2100   
                                         GEOM     BASIS   MCVARS     RHF  

 PROGRAMS   *        TOTAL    HF-SCF       INT
 CPU TIMES  *         0.39      0.09      0.22
 REAL TIME  *         0.63 SEC
 DISK USED  *        35.45 MB
 **********************************************************************************************************************************


 PROGRAM * MULTI (Direct Multiconfiguration SCF)       Authors: P.J. Knowles, H.-J. Werner (1984)


 Number of closed-shell orbitals:   7 (   7 )
 Number of active  orbitals:        2 (   2 )
 Number of external orbitals:      27 (  27 )

 State symmetry 1

 Number of electrons:     2    Spin symmetry=Singlet   Space symmetry=1
 Number of states:        3
 Number of CSFs:          3   (4 determinants, 4 intermediate states)

 Molecular orbitals read from record     2100.2  Type=RHF/CANONICAL (state 1.1)

 EXTRA SYMMETRY OF MOS IN SYMMETRY 1:   1 1 1 1 1 1 1 2 2 1   1 1 1 1 1 1 2 1 2 1   1 1 1 1 1 1 2 3 3 1   1 1 1 2 1 1

 Wavefunction dump at record             2140.2

 Convergence thresholds  0.10E-01 (gradient)  0.10E-05 (energy)  0.10E-02 (step length)

 Weight factors for state symmetry  1:    0.33333   0.33333   0.33333

 Number of orbital rotations:      257   (    14 Core/Active    189 Core/Virtual   0 Active/Active     54 Active/Virtual)
 Total number of variables:        269

 Micro-Iterations solved by the two-step solver

 ITER. MIC  NCI  NEG     ENERGY(VAR)     ENERGY(PROJ)   ENERGY CHANGE     GRAD(0)  GRAD(ORB)   GRAD(CI)     STEP       TIME

   1    3    3    0     -77.74403500     -77.74933819   -0.00530319    0.12129068 0.00000099 0.00000000  0.58D-01      0.05
   2    2    3    0     -77.74926645     -77.74926890   -0.00000245    0.00246677 0.00000120 0.00000000  0.13D-02      0.08
   3    2    3    0     -77.74926890     -77.74926890   -0.00000000    0.00000138 0.00000000 0.00000000  0.83D-06      0.11

 ** WVFN ****  CONVERGENCE REACHED, FINAL GRADIENT:  0.50D-12



 Results for state 1.1
 =====================

 !MCSCF STATE  1.1 Energy             -78.044538208348
 Nuclear energy                        32.88210325
 Kinetic energy                        77.99870805
 One electron energy                 -169.15371291
 Two electron energy                   58.22707145
 Virial ratio                           2.00058758

 !MCSCF STATE  1.1 Dipole moment        0.00000000     0.00000000    -0.00000000
 Dipole moment /Debye                   0.00000000     0.00000000    -0.00000000

 Results for state 2.1
 =====================

 !MCSCF STATE  2.1 Energy             -77.682943197799
 Nuclear energy                        32.88210325
 Kinetic energy                        78.19587237
 One electron energy                 -168.69331074
 Two electron energy                   58.12826429
 Virial ratio                           1.99344046

 !MCSCF STATE  2.1 Dipole moment        0.00000000     0.00000000    -0.00000000
 Dipole moment /Debye                   0.00000000     0.00000000    -0.00000000

 Results for state 3.1
 =====================

 !MCSCF STATE  3.1 Energy             -77.520325293891
 Nuclear energy                        32.88210325
 Kinetic energy                        78.39303668
 One electron energy                 -168.23290857
 Two electron energy                   57.83048002
 Virial ratio                           1.98886749

 !MCSCF STATE  3.1 Dipole moment        0.00000000     0.00000000    -0.00000000
 Dipole moment /Debye                   0.00000000     0.00000000    -0.00000000

 State-averaged charge density matrix saved on record  2140.2 (density set 1)

 !MCSCF trans         <2.1|DMZ|1.1>    -1.512051995522 au =    -3.843001110779 Debye
 !MCSCF trans         <3.1|DMZ|2.1>    -2.385534287510 au =    -6.063026234450 Debye


 NATURAL ORBITALS (state averaged)
 =================================

  Orbital  Occupation    Energy     Coefficients
    1.1     2.00000   -11.24244     1 1s    0.70427     2 1s    0.70427
    2.1     2.00000   -11.24148     1 1s    0.70446     2 1s   -0.70446
    3.1     2.00000    -1.02376     1 1s    0.30764     2 1s    0.30764
    4.1     2.00000    -0.81283     1 1s    0.27611     2 1s   -0.27611
    5.1     2.00000    -0.64700     1 2py   0.32755     2 2py   0.32755
    6.1     2.00000    -0.59076     1 2pz   0.40904     2 2pz  -0.40904
    7.1     2.00000    -0.52436     1 2py   0.31714     2 2py  -0.31714
    8.1     1.00000     0.02265     1 2px   0.38094     1 2px   0.65774     2 2px  -0.38094     2 2px  -0.65774
    9.1     1.00000    -0.21438     1 2px   0.35159     1 2px   0.33122     2 2px   0.35159     2 2px   0.33122
   10.1    -0.00000     0.26816     1 1s   -1.54484     1 2pz  -0.65833     2 1s   -1.54484     2 2pz   0.65833     3 1s    1.07458
                                    4 1s    1.07458     5 1s    1.07458     6 1s    1.07458
   11.1    -0.00000     0.29591     1 2py  -0.83075     2 2py  -0.83075     3 1s    1.12802     4 1s   -1.12802     5 1s    1.12802
                                    6 1s   -1.12802
   12.1    -0.00000     0.30633     1 1s    1.99621     2 1s   -1.99621     3 1s   -1.07379     4 1s   -1.07379     5 1s    1.07379
                                    6 1s    1.07379
   13.1    -0.00000     0.38556     1 2py  -0.25129     1 2py  -1.79848     2 2py   0.25129     2 2py   1.79848     3 1s    1.63251
                                    4 1s   -1.63251     5 1s   -1.63251     6 1s    1.63251
   14.1    -0.00000     0.47480     1 1s   -2.33466     1 2pz   2.70598     2 1s    2.33466     2 2pz   2.70598     3 1s   -0.65311
                                    4 1s   -0.65311     5 1s    0.65311     6 1s    0.65311
   15.1    -0.00000     0.67899     1 2pz  -0.56823     1 2pz   1.01519     2 2pz   0.56823     2 2pz  -1.01519
   16.1    -0.00000     0.72976     1 2py  -0.40887     1 2py   0.77344     2 2py  -0.40887     2 2py   0.77344     3 1s   -0.37043
                                    4 1s    0.37043     5 1s   -0.37043     6 1s    0.37043
   17.1    -0.00000     0.78343     1 2px  -0.76018     1 2px   0.63383     2 2px  -0.76018     2 2px   0.63383
   18.1    -0.00000     0.86244     1 1s   -0.90307     1 1s    1.57045     1 2pz   0.38566     2 1s   -0.90307     2 1s    1.57045
                                    2 2pz  -0.38566     3 1s   -0.38824     3 1s   -0.28714     4 1s   -0.38824     4 1s   -0.28714
                                    5 1s   -0.38824     5 1s   -0.28714     6 1s   -0.38824     6 1s   -0.28714
   19.1    -0.00000     0.86754     1 2px  -0.79851     1 2px   1.07954     2 2px   0.79851     2 2px  -1.07954
   20.1    -0.00000     0.89470     1 1s   -0.31333     1 2pz   0.63291     1 2pz  -0.90081     2 1s    0.31333     2 2pz   0.63291
                                    2 2pz  -0.90081     3 1s    0.35644     4 1s    0.35644     5 1s   -0.35644     6 1s   -0.35644
   21.1    -0.00000     1.13198     1 2py   0.68880     1 2py  -1.09181     2 2py   0.68880     2 2py  -1.09181     3 1s   -0.39105
                                    3 1s    1.07312     4 1s    0.39105     4 1s   -1.07312     5 1s   -0.39105     5 1s    1.07312
                                    6 1s    0.39105     6 1s   -1.07312
   22.1    -0.00000     1.15066     1 2py   0.91802     1 2py  -2.97171     2 2py  -0.91802     2 2py   2.97171     3 1s    1.56272
                                    4 1s   -1.56272     5 1s   -1.56272     6 1s    1.56272
   23.1    -0.00000     1.22850     1 1s   -0.83045     1 2pz  -0.65081     1 2pz   1.60969     2 1s    0.83045     2 2pz  -0.65081
                                    2 2pz   1.60969     3 1s    0.50462     3 1s   -0.82605     4 1s    0.50462     4 1s   -0.82605
                                    5 1s   -0.50462     5 1s    0.82605     6 1s   -0.50462     6 1s    0.82605
   24.1    -0.00000     1.23082     1 1s    1.03090     1 1s   -1.73951     1 2pz   0.36794     1 2pz  -0.50463     2 1s    1.03090
                                    2 1s   -1.73951     2 2pz  -0.36794     2 2pz   0.50463     3 1s   -0.44803     3 1s    0.87723
                                    4 1s   -0.44803     4 1s    0.87723     5 1s   -0.44803     5 1s    0.87723     6 1s   -0.44803
                                    6 1s    0.87723
   25.1    -0.00000     1.29348     1 1s   -1.67142     1 1s    4.96580     1 2pz  -1.30511     2 1s    1.67142     2 1s   -4.96580
                                    2 2pz  -1.30511     3 1s   -0.62063     4 1s   -0.62063     5 1s    0.62063     6 1s    0.62063
   26.1    -0.00000     1.42861     1 2py   2.27958     2 2py  -2.27958     3 1s   -0.68493     3 1s   -0.58843     4 1s    0.68493
                                    4 1s    0.58843     5 1s    0.68493     5 1s    0.58843     6 1s   -0.68493     6 1s   -0.58843
   27.1    -0.00000     1.69880     1 3d1+  0.62692     2 3d1+ -0.62692
   28.1    -0.00000     1.82695     1 3d2-  0.68622     2 3d2-  0.68622
   29.1    -0.00000     2.08200     1 3d2-  0.73003     2 3d2- -0.73003
   30.1    -0.00000     2.21838     1 1s    0.29582     1 1s   -0.63146     1 3d0  -0.28508     1 3d2+  0.66498     2 1s    0.29582
                                    2 1s   -0.63146     2 3d0  -0.28508     2 3d2+  0.66498     3 1s    0.34061     4 1s    0.34061
                                    5 1s    0.34061     6 1s    0.34061
   31.1    -0.00000     2.32747     1 1s   -0.42745     1 2pz   0.25484     1 2pz  -0.47012     1 3d0   0.62194     1 3d2+  0.32622
                                    2 1s   -0.42745     2 2pz  -0.25484     2 2pz   0.47012     2 3d0   0.62194     2 3d2+  0.32622
                                    3 1s    0.25105     4 1s    0.25105     5 1s    0.25105     6 1s    0.25105
   32.1    -0.00000     2.33405     1 2py   0.28446     1 3d1-  0.70697     2 2py   0.28446     2 3d1- -0.70697     3 1s   -0.53834
                                    4 1s    0.53834     5 1s   -0.53834     6 1s    0.53834
   33.1    -0.00000     2.58883     1 1s    0.26492     1 1s   -1.17104     1 3d2+  0.79456     2 1s   -0.26492     2 1s    1.17104
                                    2 3d2+ -0.79456     3 1s    0.45643     4 1s    0.45643     5 1s   -0.45643     6 1s   -0.45643
   34.1    -0.00000     2.62448     1 2px  -0.25484     1 3d1+  0.86983     2 2px   0.25484     2 3d1+  0.86983
   35.1    -0.00000     2.98661     1 1s    1.97593     1 2pz  -0.63813     1 2pz  -1.18472     1 3d0   1.07568     2 1s   -1.97593
                                    2 2pz  -0.63813     2 2pz  -1.18472     2 3d0  -1.07568
   36.1    -0.00000     3.03730     1 2py   0.59663     1 3d1-  0.94669     2 2py  -0.59663     2 3d1-  0.94669     3 1s   -0.50755
                                    4 1s    0.50755     5 1s    0.50755     6 1s   -0.50755


 Natural orbital dump (state averaged) at molpro section  2140.2    (Orbital set 2)



 **********************************************************************************************************************************
 DATASETS  * FILE   NREC   LENGTH (MB)   RECORD NAMES
              1      20       31.36       500      610      700      900      950      970     1000      129      960     1100   
                                          VAR    BASINP    GEOM    SYMINP    ZMAT    AOBASIS   BASIS     P2S    ABASIS      S 
                                         1400     1410     1200     1210     1080     1600     1650     1300     1700     1380   
                                           T        V       H0       H01     AOSYM     SMH    MOLCAS    ERIS     OPER     JKOP   

              2       5        5.42       700     1000      520     2100     2140   
                                         GEOM     BASIS   MCVARS     RHF     MCSCF   

 PROGRAMS   *        TOTAL     MULTI    HF-SCF       INT
 CPU TIMES  *         0.53      0.13      0.09      0.22
 REAL TIME  *         0.83 SEC
 DISK USED  *        38.54 MB
 **********************************************************************************************************************************
 Molecular orbitals read from record     2140.2  Type=MCSCF/NATURAL (state averaged)
 Occupation numbers read from record     2140.2  Type=MCSCF/NATURAL (state averaged)
 Orbital energies read from record       2140.2  Type=MCSCF/NATURAL (state averaged)
 Redundancy group numbers read from rec  2140.2  Type=MCSCF/NATURAL (state averaged)

 MULTI/6-31G* energy=    -77.520325293891

           MULTI          HF-SCF
    -77.52032529    -78.02334702
 **********************************************************************************************************************************
 Molpro calculation terminated
