
 Primary working directories    : /scratch.local/johan406.molpro_temp/molpro.g2luiVLD1J
 Secondary working directories  : /scratch.local/johan406.molpro_temp/molpro.g2luiVLD1J
 Wavefunction directory         : /home/goodpast/johan406/wfu/
 Main file repository           : /scratch.local/johan406.molpro_temp/molpro.g2luiVLD1J/

 id        : roweumn

 Nodes     nprocs
 cn0416       1

 Using customized tuning parameters: mindgm=1; mindgv=20; mindgc=4; mindgr=1; noblas=0; minvec=7
 default implementation of scratch files=df  


 Variables initialized (934), CPU time= 0.00 sec
                                                                                 !leave this line blank
 
 gprint, orbitals=30
 memory, 125., m
 symmetry, nosym
 nelect=16
 basis=6-31g*
 
 geometry={
 C 0.000 0.000 0.698
 C 0.000 -0.000 -0.698
 H 0.000 0.903 1.252
 H 0.000 -0.903 1.252
 H 0.000 0.903 -1.252
 H 0.000 -0.903 -1.252
 }
 
 hf
 {multi,
 closed 7
 occ 9
 wf,spin=0;STATE,3
 }
 
 Commands  initialized (763), CPU time= 0.01 sec, 617 directives.
 Default parameters read. Elapsed time= 0.04 sec

 Checking input...
 Passed
1


                                         ***  PROGRAM SYSTEM MOLPRO  ***
                                       Copyright, TTI GmbH Stuttgart, 2015
                                    Version 2019.2 linked Oct 25 2019 22:50:27


 **********************************************************************************************************************************
 LABEL *                                                                                 
  64 bit serial version                                                                  DATE: 15-Mar-23          TIME: 16:46:39  
 **********************************************************************************************************************************

 SHA1:             8dbd9ae1082e4ce945b0f27595c9eb2d4aa09004
 **********************************************************************************************************************************


 Variable memory set to  125000000 words,  buffer space 

 SETTING NELECT         =        16.00000000                                  
 SETTING BASIS          =    6-31G*
 ZSYMEL=NOSYM


Geometry recognized as XYZ



 Recomputing integrals since basis changed


 Using spherical harmonics

 Library entry C      S 6-31G                selected for orbital group  1
 Library entry C      P 6-31G                selected for orbital group  1
 Library entry C      D 6-31G*               selected for orbital group  1
 Library entry H      S 6-31G                selected for orbital group  2


 PROGRAM * SEWARD (Integral evaluation for generally contracted gaussian basis sets)     Author: Roland Lindh, 1990

 Geometry written to block  1 of record 700


 Point group  C1  



 ATOMIC COORDINATES

 NR  ATOM    CHARGE       X              Y              Z

   1  C       6.00    0.000000000    0.000000000    1.319028835
   2  C       6.00    0.000000000   -0.000000000   -1.319028835
   3  H       1.00    0.000000000    1.706422690    2.365937108
   4  H       1.00    0.000000000   -1.706422690    2.365937108
   5  H       1.00    0.000000000    1.706422690   -2.365937108
   6  H       1.00    0.000000000   -1.706422690   -2.365937108

 Bond lengths in Bohr (Angstrom)

 1-2  2.638057670  1-3  2.001972860  1-4  2.001972860  2-5  2.001972860  2-6  2.001972860
     ( 1.396000000)     ( 1.059398414)     ( 1.059398414)     ( 1.059398414)     ( 1.059398414)

 Bond angles

  1-2-5  121.52955367   1-2-6  121.52955367   2-1-3  121.52955367   2-1-4  121.52955367

  3-1-4  116.94089265   5-2-6  116.94089265

 NUCLEAR CHARGE:                   16
 NUMBER OF PRIMITIVE AOS:          72
 NUMBER OF SYMMETRY AOS:           70
 NUMBER OF CONTRACTIONS:           36   (   36A   )
 NUMBER OF CORE ORBITALS:           2   (    2A   )
 NUMBER OF VALENCE ORBITALS:       12   (   12A   )


 NUCLEAR REPULSION ENERGY   32.89609998

 EXTRA SYMMETRY OF AOS IN SYMMETRY 1:   1 1 1 2 1 1 2 1 1 1   3 2 1 1 1 1 1 2 1 1   2 1 1 1 3 2 1 1 1 1   1 1 1 1 1 1

 Eigenvalues of metric

         1 0.100E-01 0.177E-01 0.361E-01 0.449E-01 0.685E-01 0.210E+00 0.231E+00 0.234E+00


 Contracted 2-electron integrals neglected if value below      1.0D-11
 AO integral compression algorithm  1   Integral accuracy      1.0D-11

     0.786 MB (compressed) written to integral file ( 37.5%)


 NUMBER OF SORTED TWO-ELECTRON INTEGRALS:     222111.     BUFFER LENGTH:  32768
 NUMBER OF SEGMENTS:   1  SEGMENT LENGTH:     222111      RECORD LENGTH: 524288

 Memory used in sort:       0.78 MW

 SORT1 READ      284735. AND WROTE       98246. INTEGRALS IN      1 RECORDS. CPU TIME:     0.01 SEC, REAL TIME:     0.00 SEC
 SORT2 READ       98246. AND WROTE      222111. INTEGRALS IN      3 RECORDS. CPU TIME:     0.01 SEC, REAL TIME:     0.01 SEC

 FILE SIZES:   FILE 1:    30.9 MBYTE,  FILE 4:     4.2 MBYTE,   TOTAL:     35.1 MBYTE

 OPERATOR DM      FOR CENTER  0  COORDINATES:    0.000000    0.000000    0.000000


 **********************************************************************************************************************************
 DATASETS  * FILE   NREC   LENGTH (MB)   RECORD NAMES
              1      19       30.63       500      610      700      900      950      970     1000      129      960     1100   
                                          VAR    BASINP    GEOM    SYMINP    ZMAT    AOBASIS   BASIS     P2S    ABASIS      S 
                                         1400     1410     1200     1210     1080     1600     1650     1300     1700   
                                           T        V       H0       H01     AOSYM     SMH    MOLCAS    ERIS     OPER   

 PROGRAMS   *        TOTAL       INT
 CPU TIMES  *         0.30      0.21
 REAL TIME  *         0.47 SEC
 DISK USED  *        35.45 MB
 **********************************************************************************************************************************


 PROGRAM * RHF-SCF (CLOSED SHELL)       Authors: W. Meyer, H.-J. Werner


 NUMBER OF ELECTRONS:       8+    8-    SPACE SYMMETRY=1    SPIN SYMMETRY: Singlet 
 CONVERGENCE THRESHOLDS:    1.00E-05 (Density)    1.00E-07 (Energy)
 MAX. NUMBER OF ITERATIONS:       60
 INTERPOLATION TYPE:            DIIS
 INTERPOLATION STEPS:              2 (START)      1 (STEP)
 LEVEL SHIFTS:                  0.00 (CLOSED)  0.00 (OPEN) 



 Orbital guess generated from atomic densities. Full valence occupancy:    8

 Molecular orbital dump at record        2100.2

 Initial occupancy:   8

 ITERATION    DDIFF          GRAD             ENERGY        2-EL.EN.            DIPOLE MOMENTS         DIIS   ORB.
    1      0.000D+00      0.000D+00       -78.00119567    117.464759    0.00000   -0.00000    0.00000    0    start
    2      0.000D+00      0.805D-02       -78.02156412    115.934494    0.00000    0.00000    0.00000    1    diag
    3      0.784D-02      0.261D-02       -78.02335032    116.472630    0.00000    0.00000   -0.00000    2    diag
    4      0.239D-02      0.681D-03       -78.02353806    116.372314    0.00000   -0.00000    0.00000    3    diag
    5      0.995D-03      0.625D-04       -78.02353981    116.374988    0.00000   -0.00000    0.00000    4    diag
    6      0.131D-03      0.646D-05       -78.02353983    116.374640    0.00000   -0.00000    0.00000    5    diag
    7      0.108D-04      0.101D-05       -78.02353983    116.374648   -0.00000    0.00000   -0.00000    6    diag
    8      0.141D-05      0.105D-06       -78.02353983    116.374644   -0.00000    0.00000   -0.00000    0    orth

 Final occupancy:   8

 !RHF STATE  1.1 Energy               -78.023539830990
 Nuclear energy                        32.89609998
 One-electron energy                 -169.10696165
 Two-electron energy                   58.18732184
 Virial quotient                       -1.00088020
 !RHF STATE  1.1 Dipole moment         -0.00000000     0.00000000    -0.00000000
 Dipole moment /Debye                  -0.00000000     0.00000000    -0.00000000

 ELECTRON ORBITALS
 =================

  Orbital  Occupation    Energy     Coefficients
    1.1     2.00000   -11.23030     1 1s    0.70426     2 1s    0.70426
    2.1     2.00000   -11.22910     1 1s    0.70450     2 1s   -0.70450
    3.1     2.00000    -1.01309     1 1s    0.29988     2 1s    0.29988
    4.1     2.00000    -0.80501     2 1s   -0.24422
    5.1     2.00000    -0.63848     1 2py   0.32268     2 2py   0.32268
    6.1     2.00000    -0.57439     1 2pz   0.40711     2 2pz  -0.40711
    7.1     2.00000    -0.52028     1 2py   0.31197     2 2py  -0.31197
    8.1     2.00000    -0.35550     1 2px   0.36798     1 2px   0.31898     2 2px   0.36798     2 2px   0.31898
    9.1     0.00000     0.16503     1 2px   0.34714     1 2px   0.69908     2 2px  -0.34714     2 2px  -0.69908
   10.1     0.00000     0.26925     1 1s   -1.53829     1 2pz  -0.64258     2 1s   -1.53829     2 2pz   0.64258     3 1s    1.06728
                                    4 1s    1.06728     5 1s    1.06728     6 1s    1.06728
   11.1     0.00000     0.30348     1 2py  -0.84471     2 2py  -0.84471     3 1s    1.14064     4 1s   -1.14064     5 1s    1.14064
                                    6 1s   -1.14064
   12.1     0.00000     0.31014     1 1s    1.97816     2 1s   -1.97816     3 1s   -1.08204     4 1s   -1.08204     5 1s    1.08204
                                    6 1s    1.08204
   13.1     0.00000     0.38836     1 2py  -1.82333     2 2py   1.82333     3 1s    1.64551     4 1s   -1.64551     5 1s   -1.64551
                                    6 1s    1.64551
   14.1     0.00000     0.47684     1 1s   -2.36017     1 2pz   2.70366     2 1s    2.36017     2 2pz   2.70366     3 1s   -0.62431
                                    4 1s   -0.62431     5 1s    0.62431     6 1s    0.62431
   15.1     0.00000     0.68756     1 1s    0.34974     1 2pz  -0.57137     1 2pz   1.03462     2 1s    0.34974     2 2pz   0.57137
                                    2 2pz  -1.03462
   16.1     0.00000     0.74308     1 2py  -0.39800     1 2py   0.78327     2 2py  -0.39800     2 2py   0.78327     3 1s   -0.37495
                                    4 1s    0.37495     5 1s   -0.37495     6 1s    0.37495
   17.1     0.00000     0.78886     1 2px  -0.75293     1 2px   0.63985     2 2px  -0.75293     2 2px   0.63985
   18.1     0.00000     0.86325     1 1s   -0.90747     1 1s    1.51027     1 2pz   0.29767     2 1s   -0.90747     2 1s    1.51027
                                    2 2pz  -0.29767     3 1s   -0.38390     3 1s   -0.25942     4 1s   -0.38390     4 1s   -0.25942
                                    5 1s   -0.38390     5 1s   -0.25942     6 1s   -0.38390     6 1s   -0.25942
   19.1     0.00000     0.88331     1 2px  -0.81291     1 2px   1.05336     2 2px   0.81291     2 2px  -1.05336
   20.1     0.00000     0.91185     1 1s   -0.48271     1 2pz   0.63534     1 2pz  -0.78205     2 1s    0.48271     2 2pz   0.63534
                                    2 2pz  -0.78205     3 1s    0.35390     4 1s    0.35390     5 1s   -0.35390     6 1s   -0.35390
   21.1     0.00000     1.14644     1 2py   0.70108     1 2py  -1.09650     2 2py   0.70108     2 2py  -1.09650     3 1s   -0.39114
                                    3 1s    1.06674     4 1s    0.39114     4 1s   -1.06674     5 1s   -0.39114     5 1s    1.06674
                                    6 1s    0.39114     6 1s   -1.06674
   22.1     0.00000     1.16194     1 2py   0.92179     1 2py  -2.97917     2 2py  -0.92179     2 2py   2.97917     3 1s    1.56302
                                    4 1s   -1.56302     5 1s   -1.56302     6 1s    1.56302
   23.1     0.00000     1.22910     1 1s   -0.38580     1 2pz  -0.63479     1 2pz   1.48885     2 1s    0.38580     2 2pz  -0.63479
                                    2 2pz   1.48885     3 1s    0.50465     3 1s   -0.88320     4 1s    0.50465     4 1s   -0.88320
                                    5 1s   -0.50465     5 1s    0.88320     6 1s   -0.50465     6 1s    0.88320
   24.1     0.00000     1.23012     1 1s    1.03852     1 1s   -1.74794     1 2pz   0.36265     1 2pz  -0.49610     2 1s    1.03852
                                    2 1s   -1.74794     2 2pz  -0.36265     2 2pz   0.49610     3 1s   -0.44492     3 1s    0.87753
                                    4 1s   -0.44492     4 1s    0.87753     5 1s   -0.44492     5 1s    0.87753     6 1s   -0.44492
                                    6 1s    0.87753
   25.1     0.00000     1.31002     1 1s   -1.65846     1 1s    5.03856     1 2pz  -1.47171     2 1s    1.65846     2 1s   -5.03856
                                    2 2pz  -1.47171     3 1s   -0.54010     4 1s   -0.54010     5 1s    0.54010     6 1s    0.54010
   26.1     0.00000     1.44977     1 2py   2.32626     2 2py  -2.32626     3 1s   -0.68990     3 1s   -0.61317     4 1s    0.68990
                                    4 1s    0.61317     5 1s    0.68990     5 1s    0.61317     6 1s   -0.68990     6 1s   -0.61317
   27.1     0.00000     1.72163     1 3d1+  0.62708     2 3d1+ -0.62708
   28.1     0.00000     1.83788     1 3d2-  0.68622     2 3d2-  0.68622
   29.1     0.00000     2.10192     1 3d2-  0.73003     2 3d2- -0.73003
   30.1     0.00000     2.23200     1 1s    0.30583     1 1s   -0.63062     1 3d0  -0.28968     1 3d2+  0.66301     2 1s    0.30583
                                    2 1s   -0.63062     2 3d0  -0.28968     2 3d2+  0.66301     3 1s    0.33474     4 1s    0.33474
                                    5 1s    0.33474     6 1s    0.33474
   31.1     0.00000     2.34530     1 2py   0.27560     1 3d1-  0.70793     2 2py   0.27560     2 3d1- -0.70793     3 1s   -0.53441
                                    4 1s    0.53441     5 1s   -0.53441     6 1s    0.53441
   32.1     0.00000     2.35072     1 1s   -0.42873     1 2pz  -0.46107     1 3d0   0.62016     1 3d2+  0.33348     2 1s   -0.42873
                                    2 2pz   0.46107     2 3d0   0.62016     2 3d2+  0.33348     3 1s    0.25867     4 1s    0.25867
                                    5 1s    0.25867     6 1s    0.25867
   33.1     0.00000     2.61394     1 1s    0.26729     1 1s   -1.21748     1 3d2+  0.79689     2 1s   -0.26729     2 1s    1.21748
                                    2 3d2+ -0.79689     3 1s    0.45694     4 1s    0.45694     5 1s   -0.45694     6 1s   -0.45694
   34.1     0.00000     2.64585     1 2px  -0.25435     1 3d1+  0.86950     2 2px   0.25435     2 3d1+  0.86950
   35.1     0.00000     3.00227     1 1s    1.94201     1 2pz  -0.64745     1 2pz  -1.16382     1 3d0   1.07435     2 1s   -1.94201
                                    2 2pz  -0.64745     2 2pz  -1.16382     2 3d0  -1.07435
   36.1     0.00000     3.03572     1 2py   0.60882     1 3d1-  0.94410     2 2py  -0.60882     2 3d1-  0.94410     3 1s   -0.50319
                                    4 1s    0.50319     5 1s    0.50319     6 1s   -0.50319


 HOMO      8.1    -0.355502 =      -9.6737eV
 LUMO      9.1     0.165025 =       4.4906eV
 LUMO-HOMO         0.520527 =      14.1643eV


 **********************************************************************************************************************************
 DATASETS  * FILE   NREC   LENGTH (MB)   RECORD NAMES
              1      19       30.63       500      610      700      900      950      970     1000      129      960     1100   
                                          VAR    BASINP    GEOM    SYMINP    ZMAT    AOBASIS   BASIS     P2S    ABASIS      S 
                                         1400     1410     1200     1210     1080     1600     1650     1300     1700   
                                           T        V       H0       H01     AOSYM     SMH    MOLCAS    ERIS     OPER   

              2       4        2.86       700     1000      520     2100   
                                         GEOM     BASIS   MCVARS     RHF  

 PROGRAMS   *        TOTAL    HF-SCF       INT
 CPU TIMES  *         0.40      0.10      0.21
 REAL TIME  *         0.65 SEC
 DISK USED  *        35.45 MB
 **********************************************************************************************************************************


 PROGRAM * MULTI (Direct Multiconfiguration SCF)       Authors: P.J. Knowles, H.-J. Werner (1984)


 Number of closed-shell orbitals:   7 (   7 )
 Number of active  orbitals:        2 (   2 )
 Number of external orbitals:      27 (  27 )

 State symmetry 1

 Number of electrons:     2    Spin symmetry=Singlet   Space symmetry=1
 Number of states:        3
 Number of CSFs:          3   (4 determinants, 4 intermediate states)

 Molecular orbitals read from record     2100.2  Type=RHF/CANONICAL (state 1.1)

 EXTRA SYMMETRY OF MOS IN SYMMETRY 1:   1 1 1 1 1 1 1 2 2 1   1 1 1 1 1 1 2 1 2 1   1 1 1 1 1 1 2 3 3 1   1 1 1 2 1 1

 Wavefunction dump at record             2140.2

 Convergence thresholds  0.10E-01 (gradient)  0.10E-05 (energy)  0.10E-02 (step length)

 Weight factors for state symmetry  1:    0.33333   0.33333   0.33333

 Number of orbital rotations:      257   (    14 Core/Active    189 Core/Virtual   0 Active/Active     54 Active/Virtual)
 Total number of variables:        269

 Micro-Iterations solved by the two-step solver

 ITER. MIC  NCI  NEG     ENERGY(VAR)     ENERGY(PROJ)   ENERGY CHANGE     GRAD(0)  GRAD(ORB)   GRAD(CI)     STEP       TIME

   1    3    3    0     -77.74413425     -77.74942921   -0.00529496    0.12121114 0.00000099 0.00000000  0.58D-01      0.06
   2    2    3    0     -77.74935770     -77.74936014   -0.00000244    0.00246177 0.00000120 0.00000000  0.13D-02      0.09
   3    2    3    0     -77.74936014     -77.74936014   -0.00000000    0.00000138 0.00000000 0.00000000  0.83D-06      0.12

 ** WVFN ****  CONVERGENCE REACHED, FINAL GRADIENT:  0.50D-12



 Results for state 1.1
 =====================

 !MCSCF STATE  1.1 Energy             -78.044720353546
 Nuclear energy                        32.89609998
 Kinetic energy                        78.00047934
 One electron energy                 -169.18436774
 Two electron energy                   58.24354741
 Virial ratio                           2.00056719

 !MCSCF STATE  1.1 Dipole moment        0.00000000    -0.00000000    -0.00000000
 Dipole moment /Debye                   0.00000000    -0.00000000    -0.00000000

 Results for state 2.1
 =====================

 !MCSCF STATE  2.1 Energy             -77.683045266029
 Nuclear energy                        32.89609998
 Kinetic energy                        78.19804050
 One electron energy                 -168.72343906
 Two electron energy                   58.14429382
 Virial ratio                           1.99341422

 !MCSCF STATE  2.1 Dipole moment        0.00000000    -0.00000000    -0.00000000
 Dipole moment /Debye                   0.00000000    -0.00000000    -0.00000000

 Results for state 3.1
 =====================

 !MCSCF STATE  3.1 Energy             -77.520314803160
 Nuclear energy                        32.89609998
 Kinetic energy                        78.39560165
 One electron energy                 -168.26251039
 Two electron energy                   57.84609561
 Virial ratio                           1.98883500

 !MCSCF STATE  3.1 Dipole moment        0.00000000    -0.00000000     0.00000000
 Dipole moment /Debye                   0.00000000    -0.00000000     0.00000000

 State-averaged charge density matrix saved on record  2140.2 (density set 1)

 !MCSCF trans         <2.1|DMZ|1.1>    -1.512305176824 au =    -3.843644591312 Debye
 !MCSCF trans         <3.1|DMZ|2.1>    -2.385230551847 au =    -6.062254265963 Debye


 NATURAL ORBITALS (state averaged)
 =================================

  Orbital  Occupation    Energy     Coefficients
    1.1     2.00000   -11.24209     1 1s    0.70427     2 1s    0.70427
    2.1     2.00000   -11.24113     1 1s    0.70446     2 1s   -0.70446
    3.1     2.00000    -1.02415     1 1s    0.30740     2 1s    0.30740
    4.1     2.00000    -0.81150     1 1s    0.27700     2 1s   -0.27700
    5.1     2.00000    -0.64901     1 2py   0.32724     2 2py   0.32724
    6.1     2.00000    -0.58818     1 2pz   0.40929     2 2pz  -0.40929
    7.1     2.00000    -0.52576     1 2py   0.31729     2 2py  -0.31729
    8.1     1.00000     0.02286     1 2px   0.38096     1 2px   0.65777     2 2px  -0.38096     2 2px  -0.65777
    9.1     1.00000    -0.21429     1 2px   0.35144     1 2px   0.33134     2 2px   0.35144     2 2px   0.33134
   10.1    -0.00000     0.26702     1 1s   -1.53531     1 2pz  -0.64893     2 1s   -1.53531     2 2pz   0.64893     3 1s    1.06709
                                    4 1s    1.06709     5 1s    1.06709     6 1s    1.06709
   11.1    -0.00000     0.29625     1 2py  -0.83813     2 2py  -0.83813     3 1s    1.13377     4 1s   -1.13377     5 1s    1.13377
                                    6 1s   -1.13377
   12.1    -0.00000     0.30735     1 1s    2.00513     2 1s   -2.00513     3 1s   -1.07460     4 1s   -1.07460     5 1s    1.07460
                                    6 1s    1.07460
   13.1    -0.00000     0.38513     1 2py  -1.81220     2 2py   1.81220     3 1s    1.63992     4 1s   -1.63992     5 1s   -1.63992
                                    6 1s    1.63992
   14.1    -0.00000     0.47329     1 1s   -2.32652     1 2pz   2.68030     2 1s    2.32652     2 2pz   2.68030     3 1s   -0.63707
                                    4 1s   -0.63707     5 1s    0.63707     6 1s    0.63707
   15.1    -0.00000     0.67789     1 1s    0.25078     1 2pz  -0.56682     1 2pz   1.01101     2 1s    0.25078     2 2pz   0.56682
                                    2 2pz  -1.01101
   16.1    -0.00000     0.73344     1 2py  -0.40808     1 2py   0.78686     2 2py  -0.40808     2 2py   0.78686     3 1s   -0.37126
                                    4 1s    0.37126     5 1s   -0.37126     6 1s    0.37126
   17.1    -0.00000     0.78352     1 2px  -0.76025     1 2px   0.63377     2 2px  -0.76025     2 2px   0.63377
   18.1    -0.00000     0.86055     1 1s   -0.90248     1 1s    1.54157     1 2pz   0.35003     2 1s   -0.90248     2 1s    1.54157
                                    2 2pz  -0.35003     3 1s   -0.38728     3 1s   -0.27253     4 1s   -0.38728     4 1s   -0.27253
                                    5 1s   -0.38728     5 1s   -0.27253     6 1s   -0.38728     6 1s   -0.27253
   19.1    -0.00000     0.86776     1 2px  -0.79851     1 2px   1.07955     2 2px   0.79851     2 2px  -1.07955
   20.1    -0.00000     0.89583     1 1s   -0.34816     1 2pz   0.63579     1 2pz  -0.85665     2 1s    0.34816     2 2pz   0.63579
                                    2 2pz  -0.85665     3 1s    0.35534     4 1s    0.35534     5 1s   -0.35534     6 1s   -0.35534
   21.1    -0.00000     1.13298     1 2py   0.69127     1 2py  -1.09880     2 2py   0.69127     2 2py  -1.09880     3 1s   -0.39097
                                    3 1s    1.07453     4 1s    0.39097     4 1s   -1.07453     5 1s   -0.39097     5 1s    1.07453
                                    6 1s    0.39097     6 1s   -1.07453
   22.1    -0.00000     1.15141     1 2py   0.91936     1 2py  -2.98347     2 2py  -0.91936     2 2py   2.98347     3 1s    1.56978
                                    4 1s   -1.56978     5 1s   -1.56978     6 1s    1.56978
   23.1    -0.00000     1.22514     1 1s   -0.86531     1 2pz  -0.64697     1 2pz   1.62425     2 1s    0.86531     2 2pz  -0.64697
                                    2 2pz   1.62425     3 1s    0.50403     3 1s   -0.82623     4 1s    0.50403     4 1s   -0.82623
                                    5 1s   -0.50403     5 1s    0.82623     6 1s   -0.50403     6 1s    0.82623
   24.1    -0.00000     1.22801     1 1s    1.03372     1 1s   -1.74356     1 2pz   0.36674     1 2pz  -0.50161     2 1s    1.03372
                                    2 1s   -1.74356     2 2pz  -0.36674     2 2pz   0.50161     3 1s   -0.44532     3 1s    0.87675
                                    4 1s   -0.44532     4 1s    0.87675     5 1s   -0.44532     5 1s    0.87675     6 1s   -0.44532
                                    6 1s    0.87675
   25.1    -0.00000     1.29463     1 1s   -1.67348     1 1s    4.98360     1 2pz  -1.31529     2 1s    1.67348     2 1s   -4.98360
                                    2 2pz  -1.31529     3 1s   -0.62527     4 1s   -0.62527     5 1s    0.62527     6 1s    0.62527
   26.1    -0.00000     1.44175     1 2py   2.32827     2 2py  -2.32827     3 1s   -0.68884     3 1s   -0.61360     4 1s    0.68884
                                    4 1s    0.61360     5 1s    0.68884     5 1s    0.61360     6 1s   -0.68884     6 1s   -0.61360
   27.1    -0.00000     1.69956     1 3d1+  0.62692     2 3d1+ -0.62692
   28.1    -0.00000     1.82655     1 3d2-  0.68622     2 3d2-  0.68622
   29.1    -0.00000     2.08153     1 3d2-  0.73003     2 3d2- -0.73003
   30.1    -0.00000     2.21856     1 1s    0.30694     1 1s   -0.62533     1 3d0  -0.29788     1 3d2+  0.65830     2 1s    0.30694
                                    2 1s   -0.62533     2 3d0  -0.29788     2 3d2+  0.65830     3 1s    0.33315     4 1s    0.33315
                                    5 1s    0.33315     6 1s    0.33315
   31.1    -0.00000     2.33132     1 2py   0.28229     1 3d1-  0.70624     2 2py   0.28229     2 3d1- -0.70624     3 1s   -0.53759
                                    4 1s    0.53759     5 1s   -0.53759     6 1s    0.53759
   32.1    -0.00000     2.33305     1 1s   -0.42374     1 2pz  -0.46521     1 3d0   0.61616     1 3d2+  0.34190     2 1s   -0.42374
                                    2 2pz   0.46521     2 3d0   0.61616     2 3d2+  0.34190     3 1s    0.26311     4 1s    0.26311
                                    5 1s    0.26311     6 1s    0.26311
   33.1    -0.00000     2.59676     1 1s    0.26775     1 1s   -1.22178     1 3d2+  0.79618     2 1s   -0.26775     2 1s    1.22178
                                    2 3d2+ -0.79618     3 1s    0.45978     4 1s    0.45978     5 1s   -0.45978     6 1s   -0.45978
   34.1    -0.00000     2.62527     1 2px  -0.25471     1 3d1+  0.86983     2 2px   0.25471     2 3d1+  0.86983
   35.1    -0.00000     2.98708     1 1s    1.96307     1 2pz  -0.64053     1 2pz  -1.17482     1 3d0   1.07558     2 1s   -1.96307
                                    2 2pz  -0.64053     2 2pz  -1.17482     2 3d0  -1.07558
   36.1    -0.00000     3.02451     1 2py   0.60876     1 3d1-  0.94368     2 2py  -0.60876     2 3d1-  0.94368     3 1s   -0.50536
                                    4 1s    0.50536     5 1s    0.50536     6 1s   -0.50536


 Natural orbital dump (state averaged) at molpro section  2140.2    (Orbital set 2)



 **********************************************************************************************************************************
 DATASETS  * FILE   NREC   LENGTH (MB)   RECORD NAMES
              1      20       31.36       500      610      700      900      950      970     1000      129      960     1100   
                                          VAR    BASINP    GEOM    SYMINP    ZMAT    AOBASIS   BASIS     P2S    ABASIS      S 
                                         1400     1410     1200     1210     1080     1600     1650     1300     1700     1380   
                                           T        V       H0       H01     AOSYM     SMH    MOLCAS    ERIS     OPER     JKOP   

              2       5        5.42       700     1000      520     2100     2140   
                                         GEOM     BASIS   MCVARS     RHF     MCSCF   

 PROGRAMS   *        TOTAL     MULTI    HF-SCF       INT
 CPU TIMES  *         0.55      0.15      0.10      0.21
 REAL TIME  *         0.86 SEC
 DISK USED  *        38.54 MB
 **********************************************************************************************************************************
 Molecular orbitals read from record     2140.2  Type=MCSCF/NATURAL (state averaged)
 Occupation numbers read from record     2140.2  Type=MCSCF/NATURAL (state averaged)
 Orbital energies read from record       2140.2  Type=MCSCF/NATURAL (state averaged)
 Redundancy group numbers read from rec  2140.2  Type=MCSCF/NATURAL (state averaged)

 MULTI/6-31G* energy=    -77.520314803160

           MULTI          HF-SCF
    -77.52031480    -78.02353983
 **********************************************************************************************************************************
 Molpro calculation terminated
