
 Primary working directories    : /scratch.local/johan406.molpro_temp/molpro.jC7fXS5rsA
 Secondary working directories  : /scratch.local/johan406.molpro_temp/molpro.jC7fXS5rsA
 Wavefunction directory         : /home/goodpast/johan406/wfu/
 Main file repository           : /scratch.local/johan406.molpro_temp/molpro.jC7fXS5rsA/

 id        : roweumn

 Nodes     nprocs
 cn0416       1

 Using customized tuning parameters: mindgm=1; mindgv=20; mindgc=4; mindgr=1; noblas=0; minvec=7
 default implementation of scratch files=df  


 Variables initialized (934), CPU time= 0.00 sec
                                                                                 !leave this line blank
 
 gprint, orbitals=30
 memory, 125., m
 symmetry, nosym
 nelect=16
 basis=6-31g*
 
 geometry={
 C 0.000 0.000 0.695
 C 0.000 -0.000 -0.695
 H 0.000 0.909 1.239
 H 0.000 -0.909 1.239
 H 0.000 0.909 -1.239
 H 0.000 -0.909 -1.239
 }
 
 hf
 {multi,
 closed 7
 occ 9
 wf,spin=0;STATE,3
 }
 
 Commands  initialized (763), CPU time= 0.01 sec, 617 directives.
 Default parameters read. Elapsed time= 0.04 sec

 Checking input...
 Passed
1


                                         ***  PROGRAM SYSTEM MOLPRO  ***
                                       Copyright, TTI GmbH Stuttgart, 2015
                                    Version 2019.2 linked Oct 25 2019 22:50:27


 **********************************************************************************************************************************
 LABEL *                                                                                 
  64 bit serial version                                                                  DATE: 15-Mar-23          TIME: 16:48:09  
 **********************************************************************************************************************************

 SHA1:             8dbd9ae1082e4ce945b0f27595c9eb2d4aa09004
 **********************************************************************************************************************************


 Variable memory set to  125000000 words,  buffer space 

 SETTING NELECT         =        16.00000000                                  
 SETTING BASIS          =    6-31G*
 ZSYMEL=NOSYM


Geometry recognized as XYZ



 Recomputing integrals since basis changed


 Using spherical harmonics

 Library entry C      S 6-31G                selected for orbital group  1
 Library entry C      P 6-31G                selected for orbital group  1
 Library entry C      D 6-31G*               selected for orbital group  1
 Library entry H      S 6-31G                selected for orbital group  2


 PROGRAM * SEWARD (Integral evaluation for generally contracted gaussian basis sets)     Author: Roland Lindh, 1990

 Geometry written to block  1 of record 700


 Point group  C1  



 ATOMIC COORDINATES

 NR  ATOM    CHARGE       X              Y              Z

   1  C       6.00    0.000000000    0.000000000    1.313359657
   2  C       6.00    0.000000000   -0.000000000   -1.313359657
   3  H       1.00    0.000000000    1.717761047    2.341370668
   4  H       1.00    0.000000000   -1.717761047    2.341370668
   5  H       1.00    0.000000000    1.717761047   -2.341370668
   6  H       1.00    0.000000000   -1.717761047   -2.341370668

 Bond lengths in Bohr (Angstrom)

 1-2  2.626719313  1-3  2.001876534  1-4  2.001876534  2-5  2.001876534  2-6  2.001876534
     ( 1.390000000)     ( 1.059347441)     ( 1.059347441)     ( 1.059347441)     ( 1.059347441)

 Bond angles

  1-2-5  120.89882691   1-2-6  120.89882691   2-1-3  120.89882691   2-1-4  120.89882691

  3-1-4  118.20234618   5-2-6  118.20234618

 NUCLEAR CHARGE:                   16
 NUMBER OF PRIMITIVE AOS:          72
 NUMBER OF SYMMETRY AOS:           70
 NUMBER OF CONTRACTIONS:           36   (   36A   )
 NUMBER OF CORE ORBITALS:           2   (    2A   )
 NUMBER OF VALENCE ORBITALS:       12   (   12A   )


 NUCLEAR REPULSION ENERGY   32.99079150

 EXTRA SYMMETRY OF AOS IN SYMMETRY 1:   1 1 1 2 1 1 2 1 1 1   3 2 1 1 1 1 1 2 1 1   2 1 1 1 3 2 1 1 1 1   1 1 1 1 1 1

 Eigenvalues of metric

         1 0.972E-02 0.171E-01 0.368E-01 0.457E-01 0.674E-01 0.210E+00 0.227E+00 0.234E+00


 Contracted 2-electron integrals neglected if value below      1.0D-11
 AO integral compression algorithm  1   Integral accuracy      1.0D-11

     0.786 MB (compressed) written to integral file ( 37.6%)


 NUMBER OF SORTED TWO-ELECTRON INTEGRALS:     222111.     BUFFER LENGTH:  32768
 NUMBER OF SEGMENTS:   1  SEGMENT LENGTH:     222111      RECORD LENGTH: 524288

 Memory used in sort:       0.78 MW

 SORT1 READ      284735. AND WROTE       98255. INTEGRALS IN      1 RECORDS. CPU TIME:     0.00 SEC, REAL TIME:     0.00 SEC
 SORT2 READ       98255. AND WROTE      222111. INTEGRALS IN      3 RECORDS. CPU TIME:     0.02 SEC, REAL TIME:     0.02 SEC

 FILE SIZES:   FILE 1:    30.9 MBYTE,  FILE 4:     4.2 MBYTE,   TOTAL:     35.1 MBYTE

 OPERATOR DM      FOR CENTER  0  COORDINATES:    0.000000    0.000000    0.000000


 **********************************************************************************************************************************
 DATASETS  * FILE   NREC   LENGTH (MB)   RECORD NAMES
              1      19       30.63       500      610      700      900      950      970     1000      129      960     1100   
                                          VAR    BASINP    GEOM    SYMINP    ZMAT    AOBASIS   BASIS     P2S    ABASIS      S 
                                         1400     1410     1200     1210     1080     1600     1650     1300     1700   
                                           T        V       H0       H01     AOSYM     SMH    MOLCAS    ERIS     OPER   

 PROGRAMS   *        TOTAL       INT
 CPU TIMES  *         0.31      0.21
 REAL TIME  *         0.50 SEC
 DISK USED  *        35.45 MB
 **********************************************************************************************************************************


 PROGRAM * RHF-SCF (CLOSED SHELL)       Authors: W. Meyer, H.-J. Werner


 NUMBER OF ELECTRONS:       8+    8-    SPACE SYMMETRY=1    SPIN SYMMETRY: Singlet 
 CONVERGENCE THRESHOLDS:    1.00E-05 (Density)    1.00E-07 (Energy)
 MAX. NUMBER OF ITERATIONS:       60
 INTERPOLATION TYPE:            DIIS
 INTERPOLATION STEPS:              2 (START)      1 (STEP)
 LEVEL SHIFTS:                  0.00 (CLOSED)  0.00 (OPEN) 



 Orbital guess generated from atomic densities. Full valence occupancy:    8

 Molecular orbital dump at record        2100.2

 Initial occupancy:   8

 ITERATION    DDIFF          GRAD             ENERGY        2-EL.EN.            DIPOLE MOMENTS         DIIS   ORB.
    1      0.000D+00      0.000D+00       -78.00203687    117.683147    0.00000    0.00000    0.00000    0    start
    2      0.000D+00      0.812D-02       -78.02256210    116.120249   -0.00000    0.00000   -0.00000    1    diag
    3      0.789D-02      0.263D-02       -78.02437189    116.666585   -0.00000   -0.00000   -0.00000    2    diag
    4      0.241D-02      0.683D-03       -78.02456063    116.566912    0.00000    0.00000    0.00000    3    diag
    5      0.999D-03      0.627D-04       -78.02456239    116.569539    0.00000    0.00000   -0.00000    4    diag
    6      0.132D-03      0.635D-05       -78.02456241    116.569191   -0.00000   -0.00000    0.00000    5    diag
    7      0.108D-04      0.978D-06       -78.02456241    116.569199    0.00000    0.00000   -0.00000    6    diag
    8      0.132D-05      0.990D-07       -78.02456241    116.569195    0.00000    0.00000    0.00000    0    orth

 Final occupancy:   8

 !RHF STATE  1.1 Energy               -78.024562412157
 Nuclear energy                        32.99079150
 One-electron energy                 -169.29995122
 Two-electron energy                   58.28459731
 Virial quotient                       -1.00065330
 !RHF STATE  1.1 Dipole moment          0.00000000     0.00000000     0.00000000
 Dipole moment /Debye                   0.00000000     0.00000000     0.00000000

 ELECTRON ORBITALS
 =================

  Orbital  Occupation    Energy     Coefficients
    1.1     2.00000   -11.22881     1 1s    0.70425     2 1s    0.70425
    2.1     2.00000   -11.22757     1 1s    0.70450     2 1s   -0.70450
    3.1     2.00000    -1.01513     1 1s    0.29984     2 1s    0.29984
    4.1     2.00000    -0.80259     1 1s    0.24427
    5.1     2.00000    -0.64148     1 2py   0.32245     2 2py   0.32245
    6.1     2.00000    -0.57219     1 2pz   0.40771     2 2pz  -0.40771
    7.1     2.00000    -0.52097     1 2py   0.31193     2 2py  -0.31193
    8.1     2.00000    -0.35663     1 2px   0.36824     1 2px   0.31809     2 2px   0.36824     2 2px   0.31809
    9.1     0.00000     0.16672     1 2px   0.34658     1 2px   0.70264     2 2px  -0.34658     2 2px  -0.70264
   10.1     0.00000     0.26792     1 1s   -1.52702     1 2pz  -0.63218     2 1s   -1.52702     2 2pz   0.63218     3 1s    1.05780
                                    4 1s    1.05780     5 1s    1.05780     6 1s    1.05780
   11.1     0.00000     0.30353     1 2py  -0.85277     2 2py  -0.85277     3 1s    1.14775     4 1s   -1.14775     5 1s    1.14775
                                    6 1s   -1.14775
   12.1     0.00000     0.31195     1 1s    1.99259     2 1s   -1.99259     3 1s   -1.08533     4 1s   -1.08533     5 1s    1.08533
                                    6 1s    1.08533
   13.1     0.00000     0.38832     1 2py  -1.85022     2 2py   1.85022     3 1s    1.65913     4 1s   -1.65913     5 1s   -1.65913
                                    6 1s    1.65913
   14.1     0.00000     0.47621     1 1s   -2.40506     1 2pz   2.69639     2 1s    2.40506     2 2pz   2.69639     3 1s   -0.60317
                                    4 1s   -0.60317     5 1s    0.60317     6 1s    0.60317
   15.1     0.00000     0.68371     1 1s    0.34688     1 2pz  -0.56675     1 2pz   1.02744     2 1s    0.34688     2 2pz   0.56675
                                    2 2pz  -1.02744
   16.1     0.00000     0.74968     1 2py  -0.39691     1 2py   0.80237     2 2py  -0.39691     2 2py   0.80237     3 1s   -0.37667
                                    4 1s    0.37667     5 1s   -0.37667     6 1s    0.37667
   17.1     0.00000     0.78803     1 2px  -0.75188     1 2px   0.63973     2 2px  -0.75188     2 2px   0.63973
   18.1     0.00000     0.86133     1 1s   -0.90509     1 1s    1.47550     1 2pz   0.25779     2 1s   -0.90509     2 1s    1.47550
                                    2 2pz  -0.25779     3 1s   -0.38242     4 1s   -0.38242     5 1s   -0.38242     6 1s   -0.38242
   19.1     0.00000     0.88444     1 2px  -0.81349     1 2px   1.05537     2 2px   0.81349     2 2px  -1.05537
   20.1     0.00000     0.91809     1 1s   -0.56803     1 2pz   0.63719     1 2pz  -0.70313     2 1s    0.56803     2 2pz   0.63719
                                    2 2pz  -0.70313     3 1s    0.35416     4 1s    0.35416     5 1s   -0.35416     6 1s   -0.35416
   21.1     0.00000     1.14610     1 2py   0.70327     1 2py  -1.10686     2 2py   0.70327     2 2py  -1.10686     3 1s   -0.39019
                                    3 1s    1.07000     4 1s    0.39019     4 1s   -1.07000     5 1s   -0.39019     5 1s    1.07000
                                    6 1s    0.39019     6 1s   -1.07000
   22.1     0.00000     1.16363     1 2py   0.92409     1 2py  -3.00849     2 2py  -0.92409     2 2py   3.00849     3 1s    1.57558
                                    4 1s   -1.57558     5 1s   -1.57558     6 1s    1.57558
   23.1     0.00000     1.22619     1 1s   -0.39470     1 2pz  -0.63096     1 2pz   1.49994     2 1s    0.39470     2 2pz  -0.63096
                                    2 2pz   1.49994     3 1s    0.50295     3 1s   -0.89018     4 1s    0.50295     4 1s   -0.89018
                                    5 1s   -0.50295     5 1s    0.89018     6 1s   -0.50295     6 1s    0.89018
   24.1     0.00000     1.22707     1 1s    1.04156     1 1s   -1.75158     1 2pz   0.36195     1 2pz  -0.49222     2 1s    1.04156
                                    2 1s   -1.75158     2 2pz  -0.36195     2 2pz   0.49222     3 1s   -0.44162     3 1s    0.87631
                                    4 1s   -0.44162     4 1s    0.87631     5 1s   -0.44162     5 1s    0.87631     6 1s   -0.44162
                                    6 1s    0.87631
   25.1     0.00000     1.31380     1 1s   -1.66063     1 1s    5.10544     1 2pz  -1.51720     2 1s    1.66063     2 1s   -5.10544
                                    2 2pz  -1.51720     3 1s   -0.53653     4 1s   -0.53653     5 1s    0.53653     6 1s    0.53653
   26.1     0.00000     1.46994     1 2py   2.40109     2 2py  -2.40109     3 1s   -0.69665     3 1s   -0.64898     4 1s    0.69665
                                    4 1s    0.64898     5 1s    0.69665     5 1s    0.64898     6 1s   -0.69665     6 1s   -0.64898
   27.1     0.00000     1.72401     1 3d1+  0.62621     2 3d1+ -0.62621
   28.1     0.00000     1.83563     1 3d2-  0.68574     2 3d2-  0.68574
   29.1     0.00000     2.10375     1 3d2-  0.73061     2 3d2- -0.73061
   30.1     0.00000     2.23261     1 1s    0.30596     1 1s   -0.62496     1 3d0  -0.28474     1 3d2+  0.66577     2 1s    0.30596
                                    2 1s   -0.62496     2 3d0  -0.28474     2 3d2+  0.66577     3 1s    0.33500     4 1s    0.33500
                                    5 1s    0.33500     6 1s    0.33500
   31.1     0.00000     2.34245     1 2py   0.27489     1 3d1-  0.70586     2 2py   0.27489     2 3d1- -0.70586     3 1s   -0.53358
                                    4 1s    0.53358     5 1s   -0.53358     6 1s    0.53358
   32.1     0.00000     2.36327     1 1s   -0.43712     1 2pz  -0.45381     1 3d0   0.62472     1 3d2+  0.32955     2 1s   -0.43712
                                    2 2pz   0.45381     2 3d0   0.62472     2 3d2+  0.32955     3 1s    0.26159     4 1s    0.26159
                                    5 1s    0.26159     6 1s    0.26159
   33.1     0.00000     2.62760     1 1s    0.27170     1 1s   -1.29815     1 2pz   0.26484     1 3d2+  0.79966     2 1s   -0.27170
                                    2 1s    1.29815     2 2pz   0.26484     2 3d2+ -0.79966     3 1s    0.46161     4 1s    0.46161
                                    5 1s   -0.46161     6 1s   -0.46161
   34.1     0.00000     2.65326     1 2px  -0.25524     1 3d1+  0.87270     2 2px   0.25524     2 3d1+  0.87270
   35.1     0.00000     3.00854     1 1s    1.93209     1 2pz  -0.66488     1 2pz  -1.15231     1 3d0   1.07801     2 1s   -1.93209
                                    2 2pz  -0.66488     2 2pz  -1.15231     2 3d0  -1.07801
   36.1     0.00000     3.02418     1 2py   0.62206     1 3d1-  0.94364     2 2py  -0.62206     2 3d1-  0.94364     3 1s   -0.49949
                                    4 1s    0.49949     5 1s    0.49949     6 1s   -0.49949


 HOMO      8.1    -0.356634 =      -9.7045eV
 LUMO      9.1     0.166721 =       4.5367eV
 LUMO-HOMO         0.523355 =      14.2412eV


 **********************************************************************************************************************************
 DATASETS  * FILE   NREC   LENGTH (MB)   RECORD NAMES
              1      19       30.63       500      610      700      900      950      970     1000      129      960     1100   
                                          VAR    BASINP    GEOM    SYMINP    ZMAT    AOBASIS   BASIS     P2S    ABASIS      S 
                                         1400     1410     1200     1210     1080     1600     1650     1300     1700   
                                           T        V       H0       H01     AOSYM     SMH    MOLCAS    ERIS     OPER   

              2       4        2.86       700     1000      520     2100   
                                         GEOM     BASIS   MCVARS     RHF  

 PROGRAMS   *        TOTAL    HF-SCF       INT
 CPU TIMES  *         0.40      0.10      0.21
 REAL TIME  *         0.62 SEC
 DISK USED  *        35.45 MB
 **********************************************************************************************************************************


 PROGRAM * MULTI (Direct Multiconfiguration SCF)       Authors: P.J. Knowles, H.-J. Werner (1984)


 Number of closed-shell orbitals:   7 (   7 )
 Number of active  orbitals:        2 (   2 )
 Number of external orbitals:      27 (  27 )

 State symmetry 1

 Number of electrons:     2    Spin symmetry=Singlet   Space symmetry=1
 Number of states:        3
 Number of CSFs:          3   (4 determinants, 4 intermediate states)

 Molecular orbitals read from record     2100.2  Type=RHF/CANONICAL (state 1.1)

 EXTRA SYMMETRY OF MOS IN SYMMETRY 1:   1 1 1 1 1 1 1 2 2 1   1 1 1 1 1 1 2 1 2 1   1 1 1 1 1 1 2 3 3 1   1 1 1 2 1 1

 Wavefunction dump at record             2140.2

 Convergence thresholds  0.10E-01 (gradient)  0.10E-05 (energy)  0.10E-02 (step length)

 Weight factors for state symmetry  1:    0.33333   0.33333   0.33333

 Number of orbital rotations:      257   (    14 Core/Active    189 Core/Virtual   0 Active/Active     54 Active/Virtual)
 Total number of variables:        269

 Micro-Iterations solved by the two-step solver

 ITER. MIC  NCI  NEG     ENERGY(VAR)     ENERGY(PROJ)   ENERGY CHANGE     GRAD(0)  GRAD(ORB)   GRAD(CI)     STEP       TIME

   1    3    3    0     -77.74291544     -77.74828581   -0.00537037    0.12221838 0.00000103 0.00000000  0.58D-01      0.06
   2    2    3    0     -77.74821234     -77.74821487   -0.00000253    0.00250593 0.00000124 0.00000000  0.13D-02      0.09
   3    2    3    0     -77.74821487     -77.74821487   -0.00000000    0.00000143 0.00000000 0.00000000  0.86D-06      0.13

 ** WVFN ****  CONVERGENCE REACHED, FINAL GRADIENT:  0.54D-12



 Results for state 1.1
 =====================

 !MCSCF STATE  1.1 Energy             -78.045362547042
 Nuclear energy                        32.99079150
 Kinetic energy                        78.02157907
 One electron energy                 -169.38153679
 Two electron energy                   58.34538275
 Virial ratio                           2.00030483

 !MCSCF STATE  1.1 Dipole moment        0.00000000     0.00000000    -0.00000000
 Dipole moment /Debye                   0.00000000     0.00000000    -0.00000000

 Results for state 2.1
 =====================

 !MCSCF STATE  2.1 Energy             -77.682217749857
 Nuclear energy                        32.99079150
 Kinetic energy                        78.21815343
 One electron energy                 -168.90904549
 Two electron energy                   58.23603624
 Virial ratio                           1.99314819

 !MCSCF STATE  2.1 Dipole moment        0.00000000     0.00000000    -0.00000000
 Dipole moment /Debye                   0.00000000     0.00000000    -0.00000000

 Results for state 3.1
 =====================

 !MCSCF STATE  3.1 Energy             -77.517064324222
 Nuclear energy                        32.99079150
 Kinetic energy                        78.41472779
 One electron energy                 -168.43655419
 Two electron energy                   57.92869837
 Virial ratio                           1.98855236

 !MCSCF STATE  3.1 Dipole moment        0.00000000     0.00000000     0.00000000
 Dipole moment /Debye                   0.00000000     0.00000000     0.00000000

 State-averaged charge density matrix saved on record  2140.2 (density set 1)

 !MCSCF trans         <2.1|DMZ|1.1>    -1.512782164134 au =    -3.844856892719 Debye
 !MCSCF trans         <3.1|DMZ|2.1>    -2.373285065465 au =    -6.031893856685 Debye


 NATURAL ORBITALS (state averaged)
 =================================

  Orbital  Occupation    Energy     Coefficients
    1.1     2.00000   -11.24106     1 1s    0.70427     2 1s    0.70427
    2.1     2.00000   -11.24006     1 1s    0.70446     2 1s   -0.70446
    3.1     2.00000    -1.02664     1 1s    0.30741     2 1s    0.30741
    4.1     2.00000    -0.80934     1 1s    0.27852     2 1s   -0.27852
    5.1     2.00000    -0.65234     1 2py   0.32705     2 2py   0.32705
    6.1     2.00000    -0.58620     1 2pz   0.40984     2 2pz  -0.40984
    7.1     2.00000    -0.52671     1 2py   0.31733     2 2py  -0.31733
    8.1     1.00000     0.02422     1 2px   0.38088     1 2px   0.66069     2 2px  -0.38088     2 2px  -0.66069
    9.1     1.00000    -0.21523     1 2px   0.35184     1 2px   0.33033     2 2px   0.35184     2 2px   0.33033
   10.1    -0.00000     0.26551     1 1s   -1.52368     1 2pz  -0.63847     2 1s   -1.52368     2 2pz   0.63847     3 1s    1.05746
                                    4 1s    1.05746     5 1s    1.05746     6 1s    1.05746
   11.1    -0.00000     0.29622     1 2py  -0.84591     2 2py  -0.84591     3 1s    1.14072     4 1s   -1.14072     5 1s    1.14072
                                    6 1s   -1.14072
   12.1    -0.00000     0.30910     1 1s    2.01923     2 1s   -2.01923     3 1s   -1.07835     4 1s   -1.07835     5 1s    1.07835
                                    6 1s    1.07835
   13.1    -0.00000     0.38499     1 2py  -1.83877     2 2py   1.83877     3 1s    1.65343     4 1s   -1.65343     5 1s   -1.65343
                                    6 1s    1.65343
   14.1    -0.00000     0.47296     1 1s   -2.37350     1 2pz   2.67473     2 1s    2.37350     2 2pz   2.67473     3 1s   -0.61569
                                    4 1s   -0.61569     5 1s    0.61569     6 1s    0.61569
   15.1    -0.00000     0.67437     1 2pz  -0.56272     1 2pz   1.00581     2 2pz   0.56272     2 2pz  -1.00581
   16.1    -0.00000     0.73973     1 2py  -0.40694     1 2py   0.80595     2 2py  -0.40694     2 2py   0.80595     3 1s   -0.37303
                                    4 1s    0.37303     5 1s   -0.37303     6 1s    0.37303
   17.1    -0.00000     0.78257     1 2px  -0.75912     1 2px   0.63374     2 2px  -0.75912     2 2px   0.63374
   18.1    -0.00000     0.85815     1 1s   -0.90086     1 1s    1.50759     1 2pz   0.31040     2 1s   -0.90086     2 1s    1.50759
                                    2 2pz  -0.31040     3 1s   -0.38614     3 1s   -0.25565     4 1s   -0.38614     4 1s   -0.25565
                                    5 1s   -0.38614     5 1s   -0.25565     6 1s   -0.38614     6 1s   -0.25565
   19.1    -0.00000     0.86862     1 2px  -0.79894     1 2px   1.08203     2 2px   0.79894     2 2px  -1.08203
   20.1    -0.00000     0.90143     1 1s   -0.43192     1 2pz   0.63778     1 2pz  -0.77646     2 1s    0.43192     2 2pz   0.63778
                                    2 2pz  -0.77646     3 1s    0.35590     4 1s    0.35590     5 1s   -0.35590     6 1s   -0.35590
   21.1    -0.00000     1.13230     1 2py   0.69343     1 2py  -1.10940     2 2py   0.69343     2 2py  -1.10940     3 1s   -0.38999
                                    3 1s    1.07796     4 1s    0.38999     4 1s   -1.07796     5 1s   -0.38999     5 1s    1.07796
                                    6 1s    0.38999     6 1s   -1.07796
   22.1    -0.00000     1.15286     1 2py   0.92163     1 2py  -3.01264     2 2py  -0.92163     2 2py   3.01264     3 1s    1.58237
                                    4 1s   -1.58237     5 1s   -1.58237     6 1s    1.58237
   23.1    -0.00000     1.22221     1 1s   -0.83397     1 2pz  -0.64346     1 2pz   1.62758     2 1s    0.83397     2 2pz  -0.64346
                                    2 2pz   1.62758     3 1s    0.50224     3 1s   -0.83931     4 1s    0.50224     4 1s   -0.83931
                                    5 1s   -0.50224     5 1s    0.83931     6 1s   -0.50224     6 1s    0.83931
   24.1    -0.00000     1.22476     1 1s    1.03665     1 1s   -1.74710     1 2pz   0.36620     1 2pz  -0.49790     2 1s    1.03665
                                    2 1s   -1.74710     2 2pz  -0.36620     2 2pz   0.49790     3 1s   -0.44202     3 1s    0.87549
                                    4 1s   -0.44202     4 1s    0.87549     5 1s   -0.44202     5 1s    0.87549     6 1s   -0.44202
                                    6 1s    0.87549
   25.1    -0.00000     1.29805     1 1s   -1.67561     1 1s    5.05849     1 2pz  -1.37528     2 1s    1.67561     2 1s   -5.05849
                                    2 2pz  -1.37528     3 1s   -0.61466     4 1s   -0.61466     5 1s    0.61466     6 1s    0.61466
   26.1    -0.00000     1.46172     1 2py   2.40344     2 2py  -2.40344     3 1s   -0.69552     3 1s   -0.64961     4 1s    0.69552
                                    4 1s    0.64961     5 1s    0.69552     5 1s    0.64961     6 1s   -0.69552     6 1s   -0.64961
   27.1    -0.00000     1.70153     1 3d1+  0.62603     2 3d1+ -0.62603
   28.1    -0.00000     1.82400     1 3d2-  0.68574     2 3d2-  0.68574
   29.1    -0.00000     2.08303     1 3d2-  0.73061     2 3d2- -0.73061
   30.1    -0.00000     2.21884     1 1s    0.30636     1 1s   -0.61989     1 3d0  -0.29187     1 3d2+  0.66174     2 1s    0.30636
                                    2 1s   -0.61989     2 3d0  -0.29187     2 3d2+  0.66174     3 1s    0.33384     4 1s    0.33384
                                    5 1s    0.33384     6 1s    0.33384
   31.1    -0.00000     2.32830     1 2py   0.28163     1 3d1-  0.70415     2 2py   0.28163     2 3d1- -0.70415     3 1s   -0.53679
                                    4 1s    0.53679     5 1s   -0.53679     6 1s    0.53679
   32.1    -0.00000     2.34527     1 1s   -0.43274     1 2pz  -0.45766     1 3d0   0.62132     1 3d2+  0.33679     2 1s   -0.43274
                                    2 2pz   0.45766     2 3d0   0.62132     2 3d2+  0.33679     3 1s    0.26546     4 1s    0.26546
                                    5 1s    0.26546     6 1s    0.26546
   33.1    -0.00000     2.61016     1 1s    0.27229     1 1s   -1.30277     1 2pz   0.26350     1 3d2+  0.79895     2 1s   -0.27229
                                    2 1s    1.30277     2 2pz   0.26350     2 3d2+ -0.79895     3 1s    0.46448     4 1s    0.46448
                                    5 1s   -0.46448     6 1s   -0.46448
   34.1    -0.00000     2.63244     1 2px  -0.25563     1 3d1+  0.87304     2 2px   0.25563     2 3d1+  0.87304
   35.1    -0.00000     2.99300     1 1s    1.95395     1 2pz  -0.65790     1 2pz  -1.16367     1 3d0   1.07929     2 1s   -1.95395
                                    2 2pz  -0.65790     2 2pz  -1.16367     2 3d0  -1.07929
   36.1    -0.00000     3.01287     1 2py   0.62232     1 3d1-  0.94320     2 2py  -0.62232     2 3d1-  0.94320     3 1s   -0.50173
                                    4 1s    0.50173     5 1s    0.50173     6 1s   -0.50173


 Natural orbital dump (state averaged) at molpro section  2140.2    (Orbital set 2)



 **********************************************************************************************************************************
 DATASETS  * FILE   NREC   LENGTH (MB)   RECORD NAMES
              1      20       31.36       500      610      700      900      950      970     1000      129      960     1100   
                                          VAR    BASINP    GEOM    SYMINP    ZMAT    AOBASIS   BASIS     P2S    ABASIS      S 
                                         1400     1410     1200     1210     1080     1600     1650     1300     1700     1380   
                                           T        V       H0       H01     AOSYM     SMH    MOLCAS    ERIS     OPER     JKOP   

              2       5        5.42       700     1000      520     2100     2140   
                                         GEOM     BASIS   MCVARS     RHF     MCSCF   

 PROGRAMS   *        TOTAL     MULTI    HF-SCF       INT
 CPU TIMES  *         0.56      0.16      0.10      0.21
 REAL TIME  *         0.82 SEC
 DISK USED  *        38.54 MB
 **********************************************************************************************************************************
 Molecular orbitals read from record     2140.2  Type=MCSCF/NATURAL (state averaged)
 Occupation numbers read from record     2140.2  Type=MCSCF/NATURAL (state averaged)
 Orbital energies read from record       2140.2  Type=MCSCF/NATURAL (state averaged)
 Redundancy group numbers read from rec  2140.2  Type=MCSCF/NATURAL (state averaged)

 MULTI/6-31G* energy=    -77.517064324222

           MULTI          HF-SCF
    -77.51706432    -78.02456241
 **********************************************************************************************************************************
 Molpro calculation terminated
