
 Primary working directories    : /scratch.local/johan406.molpro_temp/molpro.i58MJz4WvG
 Secondary working directories  : /scratch.local/johan406.molpro_temp/molpro.i58MJz4WvG
 Wavefunction directory         : /home/goodpast/johan406/wfu/
 Main file repository           : /scratch.local/johan406.molpro_temp/molpro.i58MJz4WvG/

 id        : roweumn

 Nodes     nprocs
 cn0416       1

 Using customized tuning parameters: mindgm=1; mindgv=20; mindgc=4; mindgr=1; noblas=0; minvec=7
 default implementation of scratch files=df  


 Variables initialized (934), CPU time= 0.00 sec
                                                                                 !leave this line blank
 
 gprint, orbitals=30
 memory, 125., m
 symmetry, nosym
 nelect=16
 basis=6-31g*
 
 geometry={
 C 0.000 0.000 0.690
 C 0.000 -0.000 -0.690
 H 0.000 0.910 1.237
 H 0.000 -0.910 1.237
 H 0.000 0.910 -1.237
 H 0.000 -0.910 -1.237
 }
 
 hf
 {multi,
 closed 7
 occ 9
 wf,spin=0;STATE,3
 }
 
 Commands  initialized (763), CPU time= 0.01 sec, 617 directives.
 Default parameters read. Elapsed time= 0.05 sec

 Checking input...
 Passed
1


                                         ***  PROGRAM SYSTEM MOLPRO  ***
                                       Copyright, TTI GmbH Stuttgart, 2015
                                    Version 2019.2 linked Oct 25 2019 22:50:27


 **********************************************************************************************************************************
 LABEL *                                                                                 
  64 bit serial version                                                                  DATE: 15-Mar-23          TIME: 16:49:24  
 **********************************************************************************************************************************

 SHA1:             8dbd9ae1082e4ce945b0f27595c9eb2d4aa09004
 **********************************************************************************************************************************


 Variable memory set to  125000000 words,  buffer space 

 SETTING NELECT         =        16.00000000                                  
 SETTING BASIS          =    6-31G*
 ZSYMEL=NOSYM


Geometry recognized as XYZ



 Recomputing integrals since basis changed


 Using spherical harmonics

 Library entry C      S 6-31G                selected for orbital group  1
 Library entry C      P 6-31G                selected for orbital group  1
 Library entry C      D 6-31G*               selected for orbital group  1
 Library entry H      S 6-31G                selected for orbital group  2


 PROGRAM * SEWARD (Integral evaluation for generally contracted gaussian basis sets)     Author: Roland Lindh, 1990

 Geometry written to block  1 of record 700


 Point group  C1  



 ATOMIC COORDINATES

 NR  ATOM    CHARGE       X              Y              Z

   1  C       6.00    0.000000000    0.000000000    1.303911026
   2  C       6.00    0.000000000   -0.000000000   -1.303911026
   3  H       1.00    0.000000000    1.719650773    2.337591216
   4  H       1.00    0.000000000   -1.719650773    2.337591216
   5  H       1.00    0.000000000    1.719650773   -2.337591216
   6  H       1.00    0.000000000   -1.719650773   -2.337591216

 Bond lengths in Bohr (Angstrom)

 1-2  2.607822052  1-3  2.006413097  1-4  2.006413097  2-5  2.006413097  2-6  2.006413097
     ( 1.380000000)     ( 1.061748087)     ( 1.061748087)     ( 1.061748087)     ( 1.061748087)

 Bond angles

  1-2-5  121.01002997   1-2-6  121.01002997   2-1-3  121.01002997   2-1-4  121.01002997

  3-1-4  117.97994007   5-2-6  117.97994007

 NUCLEAR CHARGE:                   16
 NUMBER OF PRIMITIVE AOS:          72
 NUMBER OF SYMMETRY AOS:           70
 NUMBER OF CONTRACTIONS:           36   (   36A   )
 NUMBER OF CORE ORBITALS:           2   (    2A   )
 NUMBER OF VALENCE ORBITALS:       12   (   12A   )


 NUCLEAR REPULSION ENERGY   33.07974919

 EXTRA SYMMETRY OF AOS IN SYMMETRY 1:   1 1 1 2 1 1 2 1 1 1   3 2 1 1 1 1 1 2 1 1   2 1 1 1 3 2 1 1 1 1   1 1 1 1 1 1

 Eigenvalues of metric

         1 0.944E-02 0.171E-01 0.369E-01 0.457E-01 0.679E-01 0.210E+00 0.220E+00 0.232E+00


 Contracted 2-electron integrals neglected if value below      1.0D-11
 AO integral compression algorithm  1   Integral accuracy      1.0D-11

     0.786 MB (compressed) written to integral file ( 37.6%)


 NUMBER OF SORTED TWO-ELECTRON INTEGRALS:     222111.     BUFFER LENGTH:  32768
 NUMBER OF SEGMENTS:   1  SEGMENT LENGTH:     222111      RECORD LENGTH: 524288

 Memory used in sort:       0.78 MW

 SORT1 READ      284735. AND WROTE       98263. INTEGRALS IN      1 RECORDS. CPU TIME:     0.00 SEC, REAL TIME:     0.00 SEC
 SORT2 READ       98263. AND WROTE      222111. INTEGRALS IN      3 RECORDS. CPU TIME:     0.01 SEC, REAL TIME:     0.02 SEC

 FILE SIZES:   FILE 1:    30.9 MBYTE,  FILE 4:     4.2 MBYTE,   TOTAL:     35.1 MBYTE

 OPERATOR DM      FOR CENTER  0  COORDINATES:    0.000000    0.000000    0.000000


 **********************************************************************************************************************************
 DATASETS  * FILE   NREC   LENGTH (MB)   RECORD NAMES
              1      19       30.63       500      610      700      900      950      970     1000      129      960     1100   
                                          VAR    BASINP    GEOM    SYMINP    ZMAT    AOBASIS   BASIS     P2S    ABASIS      S 
                                         1400     1410     1200     1210     1080     1600     1650     1300     1700   
                                           T        V       H0       H01     AOSYM     SMH    MOLCAS    ERIS     OPER   

 PROGRAMS   *        TOTAL       INT
 CPU TIMES  *         0.30      0.22
 REAL TIME  *         0.47 SEC
 DISK USED  *        35.45 MB
 **********************************************************************************************************************************


 PROGRAM * RHF-SCF (CLOSED SHELL)       Authors: W. Meyer, H.-J. Werner


 NUMBER OF ELECTRONS:       8+    8-    SPACE SYMMETRY=1    SPIN SYMMETRY: Singlet 
 CONVERGENCE THRESHOLDS:    1.00E-05 (Density)    1.00E-07 (Energy)
 MAX. NUMBER OF ITERATIONS:       60
 INTERPOLATION TYPE:            DIIS
 INTERPOLATION STEPS:              2 (START)      1 (STEP)
 LEVEL SHIFTS:                  0.00 (CLOSED)  0.00 (OPEN) 



 Orbital guess generated from atomic densities. Full valence occupancy:    8

 Molecular orbital dump at record        2100.2

 Initial occupancy:   8

 ITERATION    DDIFF          GRAD             ENERGY        2-EL.EN.            DIPOLE MOMENTS         DIIS   ORB.
    1      0.000D+00      0.000D+00       -78.00340504    117.899109   -0.00000   -0.00000   -0.00000    0    start
    2      0.000D+00      0.821D-02       -78.02418379    116.286331   -0.00000    0.00000    0.00000    1    diag
    3      0.794D-02      0.268D-02       -78.02604425    116.847427    0.00000   -0.00000   -0.00000    2    diag
    4      0.244D-02      0.689D-03       -78.02623674    116.747959    0.00000    0.00000    0.00000    3    diag
    5      0.101D-02      0.635D-04       -78.02623856    116.750618   -0.00000    0.00000    0.00000    4    diag
    6      0.134D-03      0.661D-05       -78.02623858    116.750256   -0.00000   -0.00000   -0.00000    5    diag
    7      0.115D-04      0.101D-05       -78.02623858    116.750264   -0.00000   -0.00000    0.00000    6    diag
    8      0.138D-05      0.105D-06       -78.02623858    116.750260    0.00000   -0.00000   -0.00000    0    orth

 Final occupancy:   8

 !RHF STATE  1.1 Energy               -78.026238578928
 Nuclear energy                        33.07974919
 One-electron energy                 -169.48111764
 Two-electron energy                   58.37512987
 Virial quotient                       -1.00051945
 !RHF STATE  1.1 Dipole moment          0.00000000    -0.00000000    -0.00000000
 Dipole moment /Debye                   0.00000000    -0.00000000    -0.00000000

 ELECTRON ORBITALS
 =================

  Orbital  Occupation    Energy     Coefficients
    1.1     2.00000   -11.22787     1 1s    0.70424     2 1s    0.70424
    2.1     2.00000   -11.22657     1 1s    0.70451     2 1s   -0.70451
    3.1     2.00000    -1.01742     1 1s    0.30028     2 1s    0.30028
    4.1     2.00000    -0.80076     1 1s    0.24332
    5.1     2.00000    -0.64130     1 2py   0.32233     2 2py   0.32233
    6.1     2.00000    -0.57415     1 2pz   0.40779     2 2pz  -0.40779
    7.1     2.00000    -0.51841     1 2py   0.31089     2 2py  -0.31089
    8.1     2.00000    -0.35894     1 2px   0.36913     1 2px   0.31621     2 2px   0.36913     2 2px   0.31621
    9.1     0.00000     0.16900     1 2px   0.34574     1 2px   0.70843     2 2px  -0.34574     2 2px  -0.70843
   10.1     0.00000     0.26769     1 1s   -1.52240     1 2pz  -0.63470     2 1s   -1.52240     2 2pz   0.63470     3 1s    1.05510
                                    4 1s    1.05510     5 1s    1.05510     6 1s    1.05510
   11.1     0.00000     0.30214     1 2py  -0.84618     2 2py  -0.84618     3 1s    1.14106     4 1s   -1.14106     5 1s    1.14106
                                    6 1s   -1.14106
   12.1     0.00000     0.31185     1 1s    1.98648     2 1s   -1.98648     3 1s   -1.08516     4 1s   -1.08516     5 1s    1.08516
                                    6 1s    1.08516
   13.1     0.00000     0.38890     1 2py  -1.85849     2 2py   1.85849     3 1s    1.65694     4 1s   -1.65694     5 1s   -1.65694
                                    6 1s    1.65694
   14.1     0.00000     0.47898     1 1s   -2.50905     1 2pz   2.74302     2 1s    2.50905     2 2pz   2.74302     3 1s   -0.60033
                                    4 1s   -0.60033     5 1s    0.60033     6 1s    0.60033
   15.1     0.00000     0.68088     1 1s    0.32750     1 2pz  -0.56485     1 2pz   1.02920     2 1s    0.32750     2 2pz   0.56485
                                    2 2pz  -1.02920
   16.1     0.00000     0.75229     1 2py  -0.39700     1 2py   0.79860     2 2py  -0.39700     2 2py   0.79860     3 1s   -0.37847
                                    4 1s    0.37847     5 1s   -0.37847     6 1s    0.37847
   17.1     0.00000     0.78616     1 2px  -0.74985     1 2px   0.63968     2 2px  -0.74985     2 2px   0.63968
   18.1     0.00000     0.86120     1 1s   -0.90258     1 1s    1.47442     1 2pz   0.27100     2 1s   -0.90258     2 1s    1.47442
                                    2 2pz  -0.27100     3 1s   -0.38466     4 1s   -0.38466     5 1s   -0.38466     6 1s   -0.38466
   19.1     0.00000     0.88560     1 2px  -0.81443     1 2px   1.05885     2 2px   0.81443     2 2px  -1.05885
   20.1     0.00000     0.92515     1 1s   -0.62590     1 2pz   0.63230     1 2pz  -0.65886     2 1s    0.62590     2 2pz   0.63230
                                    2 2pz  -0.65886     3 1s    0.35897     4 1s    0.35897     5 1s   -0.35897     6 1s   -0.35897
   21.1     0.00000     1.14108     1 2py   0.70114     1 2py  -1.10712     2 2py   0.70114     2 2py  -1.10712     3 1s   -0.38851
                                    3 1s    1.06966     4 1s    0.38851     4 1s   -1.06966     5 1s   -0.38851     5 1s    1.06966
                                    6 1s    0.38851     6 1s   -1.06966
   22.1     0.00000     1.16349     1 2py   0.92466     1 2py  -3.00423     2 2py  -0.92466     2 2py   3.00423     3 1s    1.56726
                                    4 1s   -1.56726     5 1s   -1.56726     6 1s    1.56726
   23.1     0.00000     1.22557     1 1s    1.04066     1 1s   -1.74771     1 2pz   0.36297     1 2pz  -0.49297     2 1s    1.04066
                                    2 1s   -1.74771     2 2pz  -0.36297     2 2pz   0.49297     3 1s   -0.44138     3 1s    0.87478
                                    4 1s   -0.44138     4 1s    0.87478     5 1s   -0.44138     5 1s    0.87478     6 1s   -0.44138
                                    6 1s    0.87478
   24.1     0.00000     1.22628     1 1s   -0.29287     1 2pz  -0.63116     1 2pz   1.45565     2 1s    0.29287     2 2pz  -0.63116
                                    2 2pz   1.45565     3 1s    0.49838     3 1s   -0.91019     4 1s    0.49838     4 1s   -0.91019
                                    5 1s   -0.49838     5 1s    0.91019     6 1s   -0.49838     6 1s    0.91019
   25.1     0.00000     1.31776     1 1s   -1.65175     1 1s    5.17208     1 2pz  -1.59912     2 1s    1.65175     2 1s   -5.17208
                                    2 2pz  -1.59912     3 1s   -0.49831     4 1s   -0.49831     5 1s    0.49831     6 1s    0.49831
   26.1     0.00000     1.47234     1 2py   2.42996     2 2py  -2.42996     3 1s   -0.69752     3 1s   -0.65546     4 1s    0.69752
                                    4 1s    0.65546     5 1s    0.69752     5 1s    0.65546     6 1s   -0.69752     6 1s   -0.65546
   27.1     0.00000     1.72648     1 3d1+  0.62477     2 3d1+ -0.62477
   28.1     0.00000     1.83294     1 3d2-  0.68491     2 3d2-  0.68491
   29.1     0.00000     2.10814     1 3d2-  0.73161     2 3d2- -0.73161
   30.1     0.00000     2.23024     1 1s    0.28256     1 1s   -0.62399     1 3d2+  0.68250     2 1s    0.28256     2 1s   -0.62399
                                    2 3d2+  0.68250     3 1s    0.34865     4 1s    0.34865     5 1s    0.34865     6 1s    0.34865
   31.1     0.00000     2.34112     1 2py   0.27601     1 3d1-  0.70334     2 2py   0.27601     2 3d1- -0.70334     3 1s   -0.53154
                                    4 1s    0.53154     5 1s   -0.53154     6 1s    0.53154
   32.1     0.00000     2.37110     1 1s   -0.45680     1 2pz   0.25514     1 2pz  -0.45249     1 3d0   0.64315     1 3d2+  0.28832
                                    2 1s   -0.45680     2 2pz  -0.25514     2 2pz   0.45249     2 3d0   0.64315     2 3d2+  0.28832
   33.1     0.00000     2.62901     1 1s    0.27507     1 1s   -1.31259     1 2pz   0.26960     1 3d2+  0.79989     2 1s   -0.27507
                                    2 1s    1.31259     2 2pz   0.26960     2 3d2+ -0.79989     3 1s    0.45945     4 1s    0.45945
                                    5 1s   -0.45945     6 1s   -0.45945
   34.1     0.00000     2.66387     1 2px  -0.25702     1 3d1+  0.87816     2 2px   0.25702     2 3d1+  0.87816
   35.1     0.00000     3.01788     1 1s    1.94959     1 2pz  -0.68895     1 2pz  -1.15723     1 3d0   1.08447     2 1s   -1.94959
                                    2 2pz  -0.68895     2 2pz  -1.15723     2 3d0  -1.08447
   36.1     0.00000     3.03182     1 2py   0.61457     1 3d1-  0.94871     2 2py  -0.61457     2 3d1-  0.94871     3 1s   -0.49623
                                    4 1s    0.49623     5 1s    0.49623     6 1s   -0.49623


 HOMO      8.1    -0.358943 =      -9.7673eV
 LUMO      9.1     0.169004 =       4.5988eV
 LUMO-HOMO         0.527946 =      14.3662eV


 **********************************************************************************************************************************
 DATASETS  * FILE   NREC   LENGTH (MB)   RECORD NAMES
              1      19       30.63       500      610      700      900      950      970     1000      129      960     1100   
                                          VAR    BASINP    GEOM    SYMINP    ZMAT    AOBASIS   BASIS     P2S    ABASIS      S 
                                         1400     1410     1200     1210     1080     1600     1650     1300     1700   
                                           T        V       H0       H01     AOSYM     SMH    MOLCAS    ERIS     OPER   

              2       4        2.86       700     1000      520     2100   
                                         GEOM     BASIS   MCVARS     RHF  

 PROGRAMS   *        TOTAL    HF-SCF       INT
 CPU TIMES  *         0.39      0.09      0.22
 REAL TIME  *         0.59 SEC
 DISK USED  *        35.45 MB
 **********************************************************************************************************************************


 PROGRAM * MULTI (Direct Multiconfiguration SCF)       Authors: P.J. Knowles, H.-J. Werner (1984)


 Number of closed-shell orbitals:   7 (   7 )
 Number of active  orbitals:        2 (   2 )
 Number of external orbitals:      27 (  27 )

 State symmetry 1

 Number of electrons:     2    Spin symmetry=Singlet   Space symmetry=1
 Number of states:        3
 Number of CSFs:          3   (4 determinants, 4 intermediate states)

 Molecular orbitals read from record     2100.2  Type=RHF/CANONICAL (state 1.1)

 EXTRA SYMMETRY OF MOS IN SYMMETRY 1:   1 1 1 1 1 1 1 2 2 1   1 1 1 1 1 1 2 1 2 1   1 1 1 1 1 1 2 3 3 1   1 1 1 2 1 1

 Wavefunction dump at record             2140.2

 Convergence thresholds  0.10E-01 (gradient)  0.10E-05 (energy)  0.10E-02 (step length)

 Weight factors for state symmetry  1:    0.33333   0.33333   0.33333

 Number of orbital rotations:      257   (    14 Core/Active    189 Core/Virtual   0 Active/Active     54 Active/Virtual)
 Total number of variables:        269

 Micro-Iterations solved by the two-step solver

 ITER. MIC  NCI  NEG     ENERGY(VAR)     ENERGY(PROJ)   ENERGY CHANGE     GRAD(0)  GRAD(ORB)   GRAD(CI)     STEP       TIME

   1    3    3    0     -77.74096678     -77.74648992   -0.00552314    0.12411622 0.00000111 0.00000000  0.59D-01      0.05
   2    2    3    0     -77.74641228     -77.74641500   -0.00000273    0.00259863 0.00000134 0.00000000  0.14D-02      0.08
   3    2    3    0     -77.74641500     -77.74641500   -0.00000000    0.00000154 0.00000000 0.00000000  0.94D-06      0.11

 ** WVFN ****  CONVERGENCE REACHED, FINAL GRADIENT:  0.63D-12



 Results for state 1.1
 =====================

 !MCSCF STATE  1.1 Energy             -78.046427612112
 Nuclear energy                        33.07974919
 Kinetic energy                        78.03734030
 One electron energy                 -169.57171118
 Two electron energy                   58.44553438
 Virial ratio                           2.00011645

 !MCSCF STATE  1.1 Dipole moment        0.00000000    -0.00000000    -0.00000000
 Dipole moment /Debye                   0.00000000    -0.00000000    -0.00000000

 Results for state 2.1
 =====================

 !MCSCF STATE  2.1 Energy             -77.680928767167
 Nuclear energy                        33.07974919
 Kinetic energy                        78.23118296
 One electron energy                 -169.08067985
 Two electron energy                   58.32000189
 Virial ratio                           1.99296631

 !MCSCF STATE  2.1 Dipole moment        0.00000000    -0.00000000    -0.00000000
 Dipole moment /Debye                   0.00000000    -0.00000000    -0.00000000

 Results for state 3.1
 =====================

 !MCSCF STATE  3.1 Energy             -77.511888635215
 Nuclear energy                        33.07974919
 Kinetic energy                        78.42502562
 One electron energy                 -168.58964851
 Two electron energy                   57.99801068
 Virial ratio                           1.98835656

 !MCSCF STATE  3.1 Dipole moment        0.00000000    -0.00000000    -0.00000000
 Dipole moment /Debye                   0.00000000    -0.00000000    -0.00000000

 State-averaged charge density matrix saved on record  2140.2 (density set 1)

 !MCSCF trans         <2.1|DMZ|1.1>    -1.512799902514 au =    -3.844901976230 Debye
 !MCSCF trans         <3.1|DMZ|2.1>    -2.353908490228 au =    -5.982646740593 Debye


 NATURAL ORBITALS (state averaged)
 =================================

  Orbital  Occupation    Energy     Coefficients
    1.1     2.00000   -11.24077     1 1s    0.70425     2 1s    0.70425
    2.1     2.00000   -11.23972     1 1s    0.70447     2 1s   -0.70447
    3.1     2.00000    -1.02952     1 1s    0.30794     2 1s    0.30794
    4.1     2.00000    -0.80772     1 1s    0.27996     2 1s   -0.27996
    5.1     2.00000    -0.65254     1 2py   0.32712     2 2py   0.32712
    6.1     2.00000    -0.58840     1 2pz   0.40985     2 2pz  -0.40985
    7.1     2.00000    -0.52434     1 2py   0.31649     2 2py  -0.31649
    8.1     1.00000    -0.21709     1 2px   0.35293     1 2px   0.32829     2 2px   0.35293     2 2px   0.32829
    9.1     1.00000     0.02603     1 2px   0.38072     1 2px   0.66554     2 2px  -0.38072     2 2px  -0.66554
   10.1    -0.00000     0.26521     1 1s   -1.51891     1 2pz  -0.64092     2 1s   -1.51891     2 2pz   0.64092     3 1s    1.05473
                                    4 1s    1.05473     5 1s    1.05473     6 1s    1.05473
   11.1    -0.00000     0.29463     1 2py  -0.83880     2 2py  -0.83880     3 1s    1.13374     4 1s   -1.13374     5 1s    1.13374
                                    6 1s   -1.13374
   12.1    -0.00000     0.30897     1 1s    2.01259     2 1s   -2.01259     3 1s   -1.07855     4 1s   -1.07855     5 1s    1.07855
                                    6 1s    1.07855
   13.1    -0.00000     0.38542     1 2py  -1.84650     2 2py   1.84650     3 1s    1.65103     4 1s   -1.65103     5 1s   -1.65103
                                    6 1s    1.65103
   14.1    -0.00000     0.47584     1 1s   -2.47948     1 2pz   2.72204     2 1s    2.47948     2 2pz   2.72204     3 1s   -0.61212
                                    4 1s   -0.61212     5 1s    0.61212     6 1s    0.61212
   15.1    -0.00000     0.67117     1 2pz  -0.56007     1 2pz   1.00720     2 2pz   0.56007     2 2pz  -1.00720
   16.1    -0.00000     0.74220     1 2py  -0.40723     1 2py   0.80278     2 2py  -0.40723     2 2py   0.80278     3 1s   -0.37467
                                    4 1s    0.37467     5 1s   -0.37467     6 1s    0.37467
   17.1    -0.00000     0.78059     1 2px  -0.75698     1 2px   0.63384     2 2px  -0.75698     2 2px   0.63384
   18.1    -0.00000     0.85806     1 1s   -0.89782     1 1s    1.50502     1 2pz   0.32269     2 1s   -0.89782     2 1s    1.50502
                                    2 2pz  -0.32269     3 1s   -0.38803     3 1s   -0.25358     4 1s   -0.38803     4 1s   -0.25358
                                    5 1s   -0.38803     5 1s   -0.25358     6 1s   -0.38803     6 1s   -0.25358
   19.1    -0.00000     0.86943     1 2px  -0.79967     1 2px   1.08620     2 2px   0.79967     2 2px  -1.08620
   20.1    -0.00000     0.90800     1 1s   -0.48558     1 2pz   0.63355     1 2pz  -0.73408     2 1s    0.48558     2 2pz   0.63355
                                    2 2pz  -0.73408     3 1s    0.36050     4 1s    0.36050     5 1s   -0.36050     6 1s   -0.36050
   21.1    -0.00000     1.12692     1 2py   0.69100     1 2py  -1.10956     2 2py   0.69100     2 2py  -1.10956     3 1s   -0.38844
                                    3 1s    1.07783     4 1s    0.38844     4 1s   -1.07783     5 1s   -0.38844     5 1s    1.07783
                                    6 1s    0.38844     6 1s   -1.07783
   22.1    -0.00000     1.15238     1 2py   0.92211     1 2py  -3.00840     2 2py  -0.92211     2 2py   3.00840     3 1s    1.57423
                                    4 1s   -1.57423     5 1s   -1.57423     6 1s    1.57423
   23.1    -0.00000     1.22271     1 1s   -0.62776     1 2pz  -0.64521     1 2pz   1.57784     2 1s    0.62776     2 2pz  -0.64521
                                    2 2pz   1.57784     3 1s    0.49907     3 1s   -0.86776     4 1s    0.49907     4 1s   -0.86776
                                    5 1s   -0.49907     5 1s    0.86776     6 1s   -0.49907     6 1s    0.86776
   24.1    -0.00000     1.22308     1 1s    1.03576     1 1s   -1.74334     1 2pz   0.36710     1 2pz  -0.49864     2 1s    1.03576
                                    2 1s   -1.74334     2 2pz  -0.36710     2 2pz   0.49864     3 1s   -0.44180     3 1s    0.87403
                                    4 1s   -0.44180     4 1s    0.87403     5 1s   -0.44180     5 1s    0.87403     6 1s   -0.44180
                                    6 1s    0.87403
   25.1    -0.00000     1.30116     1 1s   -1.67077     1 1s    5.14630     1 2pz  -1.47529     2 1s    1.67077     2 1s   -5.14630
                                    2 2pz  -1.47529     3 1s   -0.57071     4 1s   -0.57071     5 1s    0.57071     6 1s    0.57071
   26.1    -0.00000     1.46403     1 2py   2.43269     2 2py  -2.43269     3 1s   -0.69638     3 1s   -0.65628     4 1s    0.69638
                                    4 1s    0.65628     5 1s    0.69638     5 1s    0.65628     6 1s   -0.69638     6 1s   -0.65628
   27.1    -0.00000     1.70337     1 3d1+  0.62458     2 3d1+ -0.62458
   28.1    -0.00000     1.82088     1 3d2-  0.68491     2 3d2-  0.68491
   29.1    -0.00000     2.08696     1 3d2-  0.73161     2 3d2- -0.73161
   30.1    -0.00000     2.21625     1 1s    0.28190     1 1s   -0.61938     1 3d0  -0.25384     1 3d2+  0.67981     2 1s    0.28190
                                    2 1s   -0.61938     2 3d0  -0.25384     2 3d2+  0.67981     3 1s    0.34853     4 1s    0.34853
                                    5 1s    0.34853     6 1s    0.34853
   31.1    -0.00000     2.32658     1 2py   0.28278     1 3d1-  0.70162     2 2py   0.28278     2 3d1- -0.70162     3 1s   -0.53478
                                    4 1s    0.53478     5 1s   -0.53478     6 1s    0.53478
   32.1    -0.00000     2.35259     1 1s   -0.45331     1 2pz   0.25928     1 2pz  -0.45625     1 3d0   0.64095     1 3d2+  0.29368
                                    2 1s   -0.45331     2 2pz  -0.25928     2 2pz   0.45625     2 3d0   0.64095     2 3d2+  0.29368
   33.1    -0.00000     2.61113     1 1s    0.27571     1 1s   -1.31744     1 2pz   0.26830     1 3d2+  0.79918     2 1s   -0.27571
                                    2 1s    1.31744     2 2pz   0.26830     2 3d2+ -0.79918     3 1s    0.46237     4 1s    0.46237
                                    5 1s   -0.46237     6 1s   -0.46237
   34.1    -0.00000     2.64270     1 2px  -0.25748     1 3d1+  0.87850     2 2px   0.25748     2 3d1+  0.87850
   35.1    -0.00000     3.00188     1 1s    1.97218     1 2pz  -0.68186     1 2pz  -1.16899     1 3d0   1.08582     2 1s   -1.97218
                                    2 2pz  -0.68186     2 2pz  -1.16899     2 3d0  -1.08582
   36.1    -0.00000     3.02022     1 2py   0.61484     1 3d1-  0.94828     2 2py  -0.61484     2 3d1-  0.94828     3 1s   -0.49849
                                    4 1s    0.49849     5 1s    0.49849     6 1s   -0.49849


 Natural orbital dump (state averaged) at molpro section  2140.2    (Orbital set 2)



 **********************************************************************************************************************************
 DATASETS  * FILE   NREC   LENGTH (MB)   RECORD NAMES
              1      20       31.36       500      610      700      900      950      970     1000      129      960     1100   
                                          VAR    BASINP    GEOM    SYMINP    ZMAT    AOBASIS   BASIS     P2S    ABASIS      S 
                                         1400     1410     1200     1210     1080     1600     1650     1300     1700     1380   
                                           T        V       H0       H01     AOSYM     SMH    MOLCAS    ERIS     OPER     JKOP   

              2       5        5.42       700     1000      520     2100     2140   
                                         GEOM     BASIS   MCVARS     RHF     MCSCF   

 PROGRAMS   *        TOTAL     MULTI    HF-SCF       INT
 CPU TIMES  *         0.54      0.15      0.09      0.22
 REAL TIME  *         0.77 SEC
 DISK USED  *        38.54 MB
 **********************************************************************************************************************************
 Molecular orbitals read from record     2140.2  Type=MCSCF/NATURAL (state averaged)
 Occupation numbers read from record     2140.2  Type=MCSCF/NATURAL (state averaged)
 Orbital energies read from record       2140.2  Type=MCSCF/NATURAL (state averaged)
 Redundancy group numbers read from rec  2140.2  Type=MCSCF/NATURAL (state averaged)

 MULTI/6-31G* energy=    -77.511888635215

           MULTI          HF-SCF
    -77.51188864    -78.02623858
 **********************************************************************************************************************************
 Molpro calculation terminated
