
 Primary working directories    : /scratch.local/johan406.molpro_temp/molpro.6BkWIVUurl
 Secondary working directories  : /scratch.local/johan406.molpro_temp/molpro.6BkWIVUurl
 Wavefunction directory         : /home/goodpast/johan406/wfu/
 Main file repository           : /scratch.local/johan406.molpro_temp/molpro.6BkWIVUurl/

 id        : roweumn

 Nodes     nprocs
 cn0416       1

 Using customized tuning parameters: mindgm=1; mindgv=20; mindgc=4; mindgr=1; noblas=0; minvec=7
 default implementation of scratch files=df  


 Variables initialized (934), CPU time= 0.01 sec
                                                                                 !leave this line blank
 
 gprint, orbitals=30
 memory, 125., m
 symmetry, nosym
 nelect=16
 basis=6-31g*
 
 geometry={
 C 0.000 0.000 0.675
 C 0.000 -0.000 -0.675
 H 0.000 0.910 1.244
 H 0.000 -0.910 1.244
 H 0.000 0.910 -1.244
 H 0.000 -0.910 -1.244
 }
 
 hf
 {multi,
 closed 7
 occ 9
 wf,spin=0;STATE,3
 }
 
 Commands  initialized (763), CPU time= 0.01 sec, 617 directives.
 Default parameters read. Elapsed time= 0.05 sec

 Checking input...
 Passed
1


                                         ***  PROGRAM SYSTEM MOLPRO  ***
                                       Copyright, TTI GmbH Stuttgart, 2015
                                    Version 2019.2 linked Oct 25 2019 22:50:27


 **********************************************************************************************************************************
 LABEL *                                                                                 
  64 bit serial version                                                                  DATE: 15-Mar-23          TIME: 16:52:26  
 **********************************************************************************************************************************

 SHA1:             8dbd9ae1082e4ce945b0f27595c9eb2d4aa09004
 **********************************************************************************************************************************


 Variable memory set to  125000000 words,  buffer space 

 SETTING NELECT         =        16.00000000                                  
 SETTING BASIS          =    6-31G*
 ZSYMEL=NOSYM


Geometry recognized as XYZ



 Recomputing integrals since basis changed


 Using spherical harmonics

 Library entry C      S 6-31G                selected for orbital group  1
 Library entry C      P 6-31G                selected for orbital group  1
 Library entry C      D 6-31G*               selected for orbital group  1
 Library entry H      S 6-31G                selected for orbital group  2


 PROGRAM * SEWARD (Integral evaluation for generally contracted gaussian basis sets)     Author: Roland Lindh, 1990

 Geometry written to block  1 of record 700


 Point group  C1  



 ATOMIC COORDINATES

 NR  ATOM    CHARGE       X              Y              Z

   1  C       6.00    0.000000000    0.000000000    1.275565134
   2  C       6.00    0.000000000   -0.000000000   -1.275565134
   3  H       1.00    0.000000000    1.719650773    2.350819299
   4  H       1.00    0.000000000   -1.719650773    2.350819299
   5  H       1.00    0.000000000    1.719650773   -2.350819299
   6  H       1.00    0.000000000   -1.719650773   -2.350819299

 Bond lengths in Bohr (Angstrom)

 1-2  2.551130268  1-3  2.028144546  1-4  2.028144546  2-5  2.028144546  2-6  2.028144546
     ( 1.350000000)     ( 1.073247874)     ( 1.073247874)     ( 1.073247874)     ( 1.073247874)

 Bond angles

  1-2-5  122.01670089   1-2-6  122.01670089   2-1-3  122.01670089   2-1-4  122.01670089

  3-1-4  115.96659821   5-2-6  115.96659821

 NUCLEAR CHARGE:                   16
 NUMBER OF PRIMITIVE AOS:          72
 NUMBER OF SYMMETRY AOS:           70
 NUMBER OF CONTRACTIONS:           36   (   36A   )
 NUMBER OF CORE ORBITALS:           2   (    2A   )
 NUMBER OF VALENCE ORBITALS:       12   (   12A   )


 NUCLEAR REPULSION ENERGY   33.27497236

 EXTRA SYMMETRY OF AOS IN SYMMETRY 1:   1 1 1 2 1 1 2 1 1 1   3 2 1 1 1 1 1 2 1 1   2 1 1 1 3 2 1 1 1 1   1 1 1 1 1 1

 Eigenvalues of metric

         1 0.868E-02 0.176E-01 0.371E-01 0.454E-01 0.711E-01 0.201E+00 0.210E+00 0.226E+00


 Contracted 2-electron integrals neglected if value below      1.0D-11
 AO integral compression algorithm  1   Integral accuracy      1.0D-11

     0.786 MB (compressed) written to integral file ( 37.8%)


 NUMBER OF SORTED TWO-ELECTRON INTEGRALS:     222111.     BUFFER LENGTH:  32768
 NUMBER OF SEGMENTS:   1  SEGMENT LENGTH:     222111      RECORD LENGTH: 524288

 Memory used in sort:       0.78 MW

 SORT1 READ      284735. AND WROTE       98271. INTEGRALS IN      1 RECORDS. CPU TIME:     0.00 SEC, REAL TIME:     0.01 SEC
 SORT2 READ       98271. AND WROTE      222111. INTEGRALS IN      3 RECORDS. CPU TIME:     0.02 SEC, REAL TIME:     0.02 SEC

 FILE SIZES:   FILE 1:    30.9 MBYTE,  FILE 4:     4.2 MBYTE,   TOTAL:     35.1 MBYTE

 OPERATOR DM      FOR CENTER  0  COORDINATES:    0.000000    0.000000    0.000000


 **********************************************************************************************************************************
 DATASETS  * FILE   NREC   LENGTH (MB)   RECORD NAMES
              1      19       30.63       500      610      700      900      950      970     1000      129      960     1100   
                                          VAR    BASINP    GEOM    SYMINP    ZMAT    AOBASIS   BASIS     P2S    ABASIS      S 
                                         1400     1410     1200     1210     1080     1600     1650     1300     1700   
                                           T        V       H0       H01     AOSYM     SMH    MOLCAS    ERIS     OPER   

 PROGRAMS   *        TOTAL       INT
 CPU TIMES  *         0.30      0.22
 REAL TIME  *         0.49 SEC
 DISK USED  *        35.45 MB
 **********************************************************************************************************************************


 PROGRAM * RHF-SCF (CLOSED SHELL)       Authors: W. Meyer, H.-J. Werner


 NUMBER OF ELECTRONS:       8+    8-    SPACE SYMMETRY=1    SPIN SYMMETRY: Singlet 
 CONVERGENCE THRESHOLDS:    1.00E-05 (Density)    1.00E-07 (Energy)
 MAX. NUMBER OF ITERATIONS:       60
 INTERPOLATION TYPE:            DIIS
 INTERPOLATION STEPS:              2 (START)      1 (STEP)
 LEVEL SHIFTS:                  0.00 (CLOSED)  0.00 (OPEN) 



 Orbital guess generated from atomic densities. Full valence occupancy:    8

 Molecular orbital dump at record        2100.2

 Initial occupancy:   8

 ITERATION    DDIFF          GRAD             ENERGY        2-EL.EN.            DIPOLE MOMENTS         DIIS   ORB.
    1      0.000D+00      0.000D+00       -78.00612665    118.407602   -0.00000    0.00000    0.00000    0    start
    2      0.000D+00      0.846D-02       -78.02770280    116.637915   -0.00000    0.00000    0.00000    1    diag
    3      0.812D-02      0.285D-02       -78.02975067    117.248396   -0.00000    0.00000    0.00000    2    diag
    4      0.258D-02      0.707D-03       -78.02995658    117.149001   -0.00000   -0.00000   -0.00000    3    diag
    5      0.105D-02      0.669D-04       -78.02995862    117.151886   -0.00000   -0.00000    0.00000    4    diag
    6      0.142D-03      0.789D-05       -78.02995865    117.151468   -0.00000   -0.00000   -0.00000    5    diag
    7      0.147D-04      0.117D-05       -78.02995865    117.151476    0.00000   -0.00000    0.00000    6    diag
    8      0.177D-05      0.136D-06       -78.02995865    117.151470   -0.00000   -0.00000   -0.00000    0    orth

 Final occupancy:   8

 !RHF STATE  1.1 Energy               -78.029958647110
 Nuclear energy                        33.27497236
 One-electron energy                 -169.88066590
 Two-electron energy                   58.57573489
 Virial quotient                       -1.00039435
 !RHF STATE  1.1 Dipole moment         -0.00000000    -0.00000000    -0.00000000
 Dipole moment /Debye                  -0.00000000    -0.00000000    -0.00000000

 ELECTRON ORBITALS
 =================

  Orbital  Occupation    Energy     Coefficients
    1.1     2.00000   -11.22664     1 1s    0.70420     2 1s    0.70420
    2.1     2.00000   -11.22514     1 1s    0.70453     2 1s   -0.70453
    3.1     2.00000    -1.02355     1 1s    0.30186     2 1s    0.30186
    4.1     2.00000    -0.79540     1 1s    0.24080
    5.1     2.00000    -0.63699     1 2py   0.32195     2 2py   0.32195
    6.1     2.00000    -0.58274     1 2pz   0.40700     2 2pz  -0.40700
    7.1     2.00000    -0.50768     1 2py   0.30649     2 2py  -0.30649
    8.1     2.00000    -0.36645     1 2px   0.37227     1 2px   0.31015     2 2px   0.37227     2 2px   0.31015
    9.1     0.00000     0.17562     1 2px   0.34317     1 2px   0.72640     2 2px  -0.34317     2 2px  -0.72640
   10.1     0.00000     0.26762     1 1s   -1.50922     1 2pz  -0.65203     2 1s   -1.50922     2 2pz   0.65203     3 1s    1.05041
                                    4 1s    1.05041     5 1s    1.05041     6 1s    1.05041
   11.1     0.00000     0.29598     1 2py  -0.25117     1 2py  -0.81161     2 2py  -0.25117     2 2py  -0.81161     3 1s    1.10508
                                    4 1s   -1.10508     5 1s    1.10508     6 1s   -1.10508
   12.1     0.00000     0.30887     1 1s    1.93670     2 1s   -1.93670     3 1s   -1.07675     4 1s   -1.07675     5 1s    1.07675
                                    6 1s    1.07675
   13.1     0.00000     0.39085     1 2py  -1.85757     2 2py   1.85757     3 1s    1.62851     4 1s   -1.62851     5 1s   -1.62851
                                    6 1s    1.62851
   14.1     0.00000     0.48923     1 1s   -2.86710     1 2pz   2.92248     2 1s    2.86710     2 2pz   2.92248     3 1s   -0.60734
                                    4 1s   -0.60734     5 1s    0.60734     6 1s    0.60734
   15.1     0.00000     0.67387     1 1s    0.26254     1 2pz  -0.56051     1 2pz   1.04048     2 1s    0.26254     2 2pz   0.56051
                                    2 2pz  -1.04048
   16.1     0.00000     0.75607     1 2py  -0.39919     1 2py   0.76487     2 2py  -0.39919     2 2py   0.76487     3 1s   -0.38375
                                    4 1s    0.38375     5 1s   -0.38375     6 1s    0.38375
   17.1     0.00000     0.77967     1 2px  -0.74320     1 2px   0.63966     2 2px  -0.74320     2 2px   0.63966
   18.1     0.00000     0.86368     1 1s   -0.89177     1 1s    1.49041     1 2pz   0.35421     2 1s   -0.89177     2 1s    1.49041
                                    2 2pz  -0.35421     3 1s   -0.39429     4 1s   -0.39429     5 1s   -0.39429     6 1s   -0.39429
   19.1     0.00000     0.88870     1 2px  -0.81734     1 2px   1.06957     2 2px   0.81734     2 2px  -1.06957
   20.1     0.00000     0.94435     1 1s   -0.74528     1 2pz   0.60902     1 2pz  -0.56605     2 1s    0.74528     2 2pz   0.60902
                                    2 2pz  -0.56605     3 1s    0.37846     4 1s    0.37846     5 1s   -0.37846     6 1s   -0.37846
   21.1     0.00000     1.12158     1 2py  -0.69060     1 2py   1.09601     2 2py  -0.69060     2 2py   1.09601     3 1s    0.38372
                                    3 1s   -1.06278     4 1s   -0.38372     4 1s    1.06278     5 1s    0.38372     5 1s   -1.06278
                                    6 1s   -0.38372     6 1s    1.06278
   22.1     0.00000     1.16014     1 2py   0.92389     1 2py  -2.93470     2 2py  -0.92389     2 2py   2.93470     3 1s    1.51347
                                    4 1s   -1.51347     5 1s   -1.51347     6 1s    1.51347
   23.1     0.00000     1.22011     1 1s    1.03489     1 1s   -1.72832     1 2pz   0.36575     1 2pz  -0.49803     2 1s    1.03489
                                    2 1s   -1.72832     2 2pz  -0.36575     2 2pz   0.49803     3 1s   -0.44273     3 1s    0.86912
                                    4 1s   -0.44273     4 1s    0.86912     5 1s   -0.44273     5 1s    0.86912     6 1s   -0.44273
                                    6 1s    0.86912
   24.1     0.00000     1.22539     1 1s   -0.49423     1 1s    0.40295     1 2pz  -0.62911     1 2pz   1.26143     2 1s    0.49423
                                    2 1s   -0.40295     2 2pz  -0.62911     2 2pz   1.26143     3 1s    0.47643     3 1s   -0.96057
                                    4 1s    0.47643     4 1s   -0.96057     5 1s   -0.47643     5 1s    0.96057     6 1s   -0.47643
                                    6 1s    0.96057
   25.1     0.00000     1.33133     1 1s   -1.60115     1 1s    5.30040     1 2pz  -1.83722     2 1s    1.60115     2 1s   -5.30040
                                    2 2pz  -1.83722     3 1s   -0.35832     4 1s   -0.35832     5 1s    0.35832     6 1s    0.35832
   26.1     0.00000     1.46041     1 2py   2.47330     2 2py  -2.47330     3 1s   -0.69269     3 1s   -0.64641     4 1s    0.69269
                                    4 1s    0.64641     5 1s    0.69269     5 1s    0.64641     6 1s   -0.69269     6 1s   -0.64641
   27.1     0.00000     1.73446     1 3d1+  0.62061     2 3d1+ -0.62061
   28.1     0.00000     1.82545     1 3d2-  0.68230     2 3d2-  0.68230
   29.1     0.00000     2.12271     1 3d2-  0.73483     2 3d2- -0.73483
   30.1     0.00000     2.21261     1 1s   -0.61681     1 3d2+  0.71182     2 1s   -0.61681     2 3d2+  0.71182     3 1s    0.37387
                                    4 1s    0.37387     5 1s    0.37387     6 1s    0.37387
   31.1     0.00000     2.33575     1 2py   0.27787     1 3d1-  0.69545     2 2py   0.27787     2 3d1- -0.69545     3 1s   -0.52206
                                    4 1s    0.52206     5 1s   -0.52206     6 1s    0.52206
   32.1     0.00000     2.39272     1 1s   -0.49802     1 2pz   0.28156     1 2pz  -0.44937     1 3d0   0.68269     2 1s   -0.49802
                                    2 2pz  -0.28156     2 2pz   0.44937     2 3d0   0.68269
   33.1     0.00000     2.61819     1 1s    0.28559     1 1s   -1.28332     1 3d2+  0.79748     2 1s   -0.28559     2 1s    1.28332
                                    2 3d2+ -0.79748     3 1s    0.44470     4 1s    0.44470     5 1s   -0.44470     6 1s   -0.44470
   34.1     0.00000     2.69488     1 2px  -0.26253     1 3d1+  0.89548     2 2px   0.26253     2 3d1+  0.89548
   35.1     0.00000     3.04825     1 1s    0.27708     1 1s    2.01968     1 2pz  -0.76265     1 2pz  -1.18398     1 3d0   1.10437
                                    2 1s   -0.27708     2 1s   -2.01968     2 2pz  -0.76265     2 2pz  -1.18398     2 3d0  -1.10437
   36.1     0.00000     3.06596     1 2py   0.56888     1 3d1-  0.96668     2 2py  -0.56888     2 3d1-  0.96668     3 1s   -0.48488
                                    4 1s    0.48488     5 1s    0.48488     6 1s   -0.48488


 HOMO      8.1    -0.366453 =      -9.9717eV
 LUMO      9.1     0.175617 =       4.7788eV
 LUMO-HOMO         0.542070 =      14.7505eV


 **********************************************************************************************************************************
 DATASETS  * FILE   NREC   LENGTH (MB)   RECORD NAMES
              1      19       30.63       500      610      700      900      950      970     1000      129      960     1100   
                                          VAR    BASINP    GEOM    SYMINP    ZMAT    AOBASIS   BASIS     P2S    ABASIS      S 
                                         1400     1410     1200     1210     1080     1600     1650     1300     1700   
                                           T        V       H0       H01     AOSYM     SMH    MOLCAS    ERIS     OPER   

              2       4        2.86       700     1000      520     2100   
                                         GEOM     BASIS   MCVARS     RHF  

 PROGRAMS   *        TOTAL    HF-SCF       INT
 CPU TIMES  *         0.39      0.09      0.22
 REAL TIME  *         0.61 SEC
 DISK USED  *        35.45 MB
 **********************************************************************************************************************************


 PROGRAM * MULTI (Direct Multiconfiguration SCF)       Authors: P.J. Knowles, H.-J. Werner (1984)


 Number of closed-shell orbitals:   7 (   7 )
 Number of active  orbitals:        2 (   2 )
 Number of external orbitals:      27 (  27 )

 State symmetry 1

 Number of electrons:     2    Spin symmetry=Singlet   Space symmetry=1
 Number of states:        3
 Number of CSFs:          3   (4 determinants, 4 intermediate states)

 Molecular orbitals read from record     2100.2  Type=RHF/CANONICAL (state 1.1)

 EXTRA SYMMETRY OF MOS IN SYMMETRY 1:   1 1 1 1 1 1 1 2 2 1   1 1 1 1 1 1 2 1 2 1   1 1 1 1 1 1 2 3 3 1   1 1 1 2 1 1

 Wavefunction dump at record             2140.2

 Convergence thresholds  0.10E-01 (gradient)  0.10E-05 (energy)  0.10E-02 (step length)

 Weight factors for state symmetry  1:    0.33333   0.33333   0.33333

 Number of orbital rotations:      257   (    14 Core/Active    189 Core/Virtual   0 Active/Active     54 Active/Virtual)
 Total number of variables:        269

 Micro-Iterations solved by the two-step solver

 ITER. MIC  NCI  NEG     ENERGY(VAR)     ENERGY(PROJ)   ENERGY CHANGE     GRAD(0)  GRAD(ORB)   GRAD(CI)     STEP       TIME

   1    3    3    0     -77.73344847     -77.73949051   -0.00604204    0.13024026 0.00000141 0.00000000  0.62D-01      0.06
   2    2    3    0     -77.73939794     -77.73940140   -0.00000346    0.00291988 0.00000170 0.00000000  0.16D-02      0.09
   3    2    3    0     -77.73940140     -77.73940140   -0.00000000    0.00000198 0.00000000 0.00000000  0.12D-05      0.12

 ** WVFN ****  CONVERGENCE REACHED, FINAL GRADIENT:  0.11D-11



 Results for state 1.1
 =====================

 !MCSCF STATE  1.1 Energy             -78.048336822523
 Nuclear energy                        33.27497236
 Kinetic energy                        78.06237082
 One electron energy                 -170.00155646
 Two electron energy                   58.67824727
 Virial ratio                           1.99982022

 !MCSCF STATE  1.1 Dipole moment        0.00000000    -0.00000000     0.00000000
 Dipole moment /Debye                   0.00000000    -0.00000000     0.00000000

 Results for state 2.1
 =====================

 !MCSCF STATE  2.1 Energy             -77.675492187966
 Nuclear energy                        33.27497236
 Kinetic energy                        78.24629989
 One electron energy                 -169.45259351
 Two electron energy                   58.50212895
 Virial ratio                           1.99270499

 !MCSCF STATE  2.1 Dipole moment        0.00000000    -0.00000000     0.00000000
 Dipole moment /Debye                   0.00000000    -0.00000000     0.00000000

 Results for state 3.1
 =====================

 !MCSCF STATE  3.1 Energy             -77.494375194566
 Nuclear energy                        33.27497236
 Kinetic energy                        78.43022897
 One electron energy                 -168.90363055
 Two electron energy                   58.13428300
 Virial ratio                           1.98806769

 !MCSCF STATE  3.1 Dipole moment        0.00000000    -0.00000000    -0.00000000
 Dipole moment /Debye                   0.00000000    -0.00000000    -0.00000000

 State-averaged charge density matrix saved on record  2140.2 (density set 1)

 !MCSCF trans         <2.1|DMZ|1.1>    -1.511225460693 au =    -3.840900406388 Debye
 !MCSCF trans         <3.1|DMZ|2.1>    -2.296192908302 au =    -5.835957971881 Debye


 NATURAL ORBITALS (state averaged)
 =================================

  Orbital  Occupation    Energy     Coefficients
    1.1     2.00000   -11.24149     1 1s    0.70422     2 1s    0.70422
    2.1     2.00000   -11.24025     1 1s    0.70449     2 1s   -0.70449
    3.1     2.00000    -1.03745     1 1s    0.30979     2 1s    0.30979
    4.1     2.00000    -0.80287     1 1s    0.28468     2 1s   -0.28468
    5.1     2.00000    -0.64928     1 2py   0.32744     2 2py   0.32744
    6.1     2.00000    -0.59756     1 2pz   0.40880     2 2pz  -0.40880
    7.1     2.00000    -0.51399     1 2py   0.31275     2 2py  -0.31275
    8.1     1.00000    -0.22309     1 2px   0.35664     1 2px   0.32176     2 2px   0.35664     2 2px   0.32176
    9.1     1.00000     0.03131     1 2px   0.38023     1 2px   0.68066     2 2px  -0.38023     2 2px  -0.68066
   10.1    -0.00000     0.26504     1 1s   -1.50558     1 2pz  -0.65800     2 1s   -1.50558     2 2pz   0.65800     3 1s    1.05007
                                    4 1s    1.05007     5 1s    1.05007     6 1s    1.05007
   11.1    -0.00000     0.28779     1 2py  -0.80258     2 2py  -0.80258     3 1s    1.09691     4 1s   -1.09691     5 1s    1.09691
                                    6 1s   -1.09691
   12.1    -0.00000     0.30587     1 1s    1.96149     2 1s   -1.96149     3 1s   -1.07085     4 1s   -1.07085     5 1s    1.07085
                                    6 1s    1.07085
   13.1    -0.00000     0.38689     1 2py  -0.25196     1 2py  -1.84388     2 2py   0.25196     2 2py   1.84388     3 1s    1.62194
                                    4 1s   -1.62194     5 1s   -1.62194     6 1s    1.62194
   14.1    -0.00000     0.48619     1 1s   -2.84198     1 2pz   2.90251     2 1s    2.84198     2 2pz   2.90251     3 1s   -0.61720
                                    4 1s   -0.61720     5 1s    0.61720     6 1s    0.61720
   15.1    -0.00000     0.66256     1 1s    0.25529     1 2pz  -0.55277     1 2pz   1.01604     2 1s    0.25529     2 2pz   0.55277
                                    2 2pz  -1.01604
   16.1    -0.00000     0.74584     1 2py  -0.41032     1 2py   0.77154     2 2py  -0.41032     2 2py   0.77154     3 1s   -0.37923
                                    4 1s    0.37923     5 1s   -0.37923     6 1s    0.37923
   17.1    -0.00000     0.77383     1 2px  -0.74998     1 2px   0.63423     2 2px  -0.74998     2 2px   0.63423
   18.1    -0.00000     0.86112     1 1s   -0.88503     1 1s    1.51529     1 2pz   0.40165     2 1s   -0.88503     2 1s    1.51529
                                    2 2pz  -0.40165     3 1s   -0.39607     3 1s   -0.25671     4 1s   -0.39607     4 1s   -0.25671
                                    5 1s   -0.39607     5 1s   -0.25671     6 1s   -0.39607     6 1s   -0.25671
   19.1    -0.00000     0.87154     1 2px  -0.80202     1 2px   1.09908     2 2px   0.80202     2 2px  -1.09908
   20.1    -0.00000     0.92615     1 1s   -0.59143     1 2pz   0.61281     1 2pz  -0.64969     2 1s    0.59143     2 2pz   0.61281
                                    2 2pz  -0.64969     3 1s    0.37872     4 1s    0.37872     5 1s   -0.37872     6 1s   -0.37872
   21.1    -0.00000     1.10654     1 2py  -0.67930     1 2py   1.09769     2 2py  -0.67930     2 2py   1.09769     3 1s    0.38429
                                    3 1s   -1.07154     4 1s   -0.38429     4 1s    1.07154     5 1s    0.38429     5 1s   -1.07154
                                    6 1s   -0.38429     6 1s    1.07154
   22.1    -0.00000     1.14801     1 2py   0.92099     1 2py  -2.93956     2 2py  -0.92099     2 2py   2.93956     3 1s    1.52124
                                    4 1s   -1.52124     5 1s   -1.52124     6 1s    1.52124
   23.1    -0.00000     1.21714     1 1s    1.03008     1 1s   -1.72440     1 2pz   0.36938     1 2pz  -0.50357     2 1s    1.03008
                                    2 1s   -1.72440     2 2pz  -0.36938     2 2pz   0.50357     3 1s   -0.44323     3 1s    0.86868
                                    4 1s   -0.44323     4 1s    0.86868     5 1s   -0.44323     5 1s    0.86868     6 1s   -0.44323
                                    6 1s    0.86868
   24.1    -0.00000     1.22299     1 1s   -0.41574     1 2pz  -0.64384     1 2pz   1.35074     2 1s    0.41574     2 2pz  -0.64384
                                    2 2pz   1.35074     3 1s    0.47966     3 1s   -0.94186     4 1s    0.47966     4 1s   -0.94186
                                    5 1s   -0.47966     5 1s    0.94186     6 1s   -0.47966     6 1s    0.94186
   25.1    -0.00000     1.31224     1 1s   -1.62505     1 1s    5.32448     1 2pz  -1.77064     2 1s    1.62505     2 1s   -5.32448
                                    2 2pz  -1.77064     3 1s   -0.40703     4 1s   -0.40703     5 1s    0.40703     6 1s    0.40703
   26.1    -0.00000     1.45199     1 2py   2.47653     2 2py  -2.47653     3 1s   -0.69157     3 1s   -0.64750     4 1s    0.69157
                                    4 1s    0.64750     5 1s    0.69157     5 1s    0.64750     6 1s   -0.69157     6 1s   -0.64750
   27.1    -0.00000     1.70952     1 3d1+  0.62036     2 3d1+ -0.62036
   28.1    -0.00000     1.81215     1 3d2-  0.68230     2 3d2-  0.68230
   29.1    -0.00000     2.10019     1 3d2-  0.73483     2 3d2- -0.73483
   30.1    -0.00000     2.19777     1 1s   -0.61274     1 3d2+  0.71118     2 1s   -0.61274     2 3d2+  0.71118     3 1s    0.37560
                                    4 1s    0.37560     5 1s    0.37560     6 1s    0.37560
   31.1    -0.00000     2.31996     1 2py   0.28471     1 3d1-  0.69369     2 2py   0.28471     2 3d1- -0.69369     3 1s   -0.52543
                                    4 1s    0.52543     5 1s   -0.52543     6 1s    0.52543
   32.1    -0.00000     2.37305     1 1s   -0.49589     1 2pz   0.28729     1 2pz  -0.45233     1 3d0   0.68234     2 1s   -0.49589
                                    2 2pz  -0.28729     2 2pz   0.45233     2 3d0   0.68234
   33.1    -0.00000     2.59898     1 1s    0.28630     1 1s   -1.28877     1 3d2+  0.79673     2 1s   -0.28630     2 1s    1.28877
                                    2 3d2+ -0.79673     3 1s    0.44774     4 1s    0.44774     5 1s   -0.44774     6 1s   -0.44774
   34.1    -0.00000     2.67276     1 2px  -0.26321     1 3d1+  0.89585     2 2px   0.26321     2 3d1+  0.89585
   35.1    -0.00000     3.03088     1 1s    0.27017     1 1s    2.04420     1 2pz  -0.75523     1 2pz  -1.19683     1 3d0   1.10591
                                    2 1s   -0.27017     2 1s   -2.04420     2 2pz  -0.75523     2 2pz  -1.19683     2 3d0  -1.10591
   36.1    -0.00000     3.05345     1 2py   0.56881     1 3d1-  0.96629     2 2py  -0.56881     2 3d1-  0.96629     3 1s   -0.48712
                                    4 1s    0.48712     5 1s    0.48712     6 1s   -0.48712


 Natural orbital dump (state averaged) at molpro section  2140.2    (Orbital set 2)



 **********************************************************************************************************************************
 DATASETS  * FILE   NREC   LENGTH (MB)   RECORD NAMES
              1      20       31.36       500      610      700      900      950      970     1000      129      960     1100   
                                          VAR    BASINP    GEOM    SYMINP    ZMAT    AOBASIS   BASIS     P2S    ABASIS      S 
                                         1400     1410     1200     1210     1080     1600     1650     1300     1700     1380   
                                           T        V       H0       H01     AOSYM     SMH    MOLCAS    ERIS     OPER     JKOP   

              2       5        5.42       700     1000      520     2100     2140   
                                         GEOM     BASIS   MCVARS     RHF     MCSCF   

 PROGRAMS   *        TOTAL     MULTI    HF-SCF       INT
 CPU TIMES  *         0.54      0.15      0.09      0.22
 REAL TIME  *         0.83 SEC
 DISK USED  *        38.54 MB
 **********************************************************************************************************************************
 Molecular orbitals read from record     2140.2  Type=MCSCF/NATURAL (state averaged)
 Occupation numbers read from record     2140.2  Type=MCSCF/NATURAL (state averaged)
 Orbital energies read from record       2140.2  Type=MCSCF/NATURAL (state averaged)
 Redundancy group numbers read from rec  2140.2  Type=MCSCF/NATURAL (state averaged)

 MULTI/6-31G* energy=    -77.494375194566

           MULTI          HF-SCF
    -77.49437519    -78.02995865
 **********************************************************************************************************************************
 Molpro calculation terminated
