
 Primary working directories    : /scratch.local/johan406.molpro_temp/molpro.sicVJ1HnSx
 Secondary working directories  : /scratch.local/johan406.molpro_temp/molpro.sicVJ1HnSx
 Wavefunction directory         : /home/goodpast/johan406/wfu/
 Main file repository           : /scratch.local/johan406.molpro_temp/molpro.sicVJ1HnSx/

 id        : roweumn

 Nodes     nprocs
 cn0416       1

 Using customized tuning parameters: mindgm=1; mindgv=20; mindgc=4; mindgr=1; noblas=0; minvec=7
 default implementation of scratch files=df  


 Variables initialized (934), CPU time= 0.00 sec
                                                                                 !leave this line blank
 
 gprint, orbitals=30
 memory, 125., m
 symmetry, nosym
 nelect=16
 basis=6-31g*
 
 geometry={
 C 0.000 0.000 0.674
 C 0.000 -0.000 -0.674
 H 0.000 0.911 1.241
 H 0.000 -0.911 1.241
 H 0.000 0.911 -1.241
 H 0.000 -0.911 -1.241
 }
 
 hf
 {multi,
 closed 7
 occ 9
 wf,spin=0;STATE,3
 }
 
 Commands  initialized (763), CPU time= 0.01 sec, 617 directives.
 Default parameters read. Elapsed time= 0.04 sec

 Checking input...
 Passed
1


                                         ***  PROGRAM SYSTEM MOLPRO  ***
                                       Copyright, TTI GmbH Stuttgart, 2015
                                    Version 2019.2 linked Oct 25 2019 22:50:27


 **********************************************************************************************************************************
 LABEL *                                                                                 
  64 bit serial version                                                                  DATE: 15-Mar-23          TIME: 16:53:01  
 **********************************************************************************************************************************

 SHA1:             8dbd9ae1082e4ce945b0f27595c9eb2d4aa09004
 **********************************************************************************************************************************


 Variable memory set to  125000000 words,  buffer space 

 SETTING NELECT         =        16.00000000                                  
 SETTING BASIS          =    6-31G*
 ZSYMEL=NOSYM


Geometry recognized as XYZ



 Recomputing integrals since basis changed


 Using spherical harmonics

 Library entry C      S 6-31G                selected for orbital group  1
 Library entry C      P 6-31G                selected for orbital group  1
 Library entry C      D 6-31G*               selected for orbital group  1
 Library entry H      S 6-31G                selected for orbital group  2


 PROGRAM * SEWARD (Integral evaluation for generally contracted gaussian basis sets)     Author: Roland Lindh, 1990

 Geometry written to block  1 of record 700


 Point group  C1  



 ATOMIC COORDINATES

 NR  ATOM    CHARGE       X              Y              Z

   1  C       6.00    0.000000000    0.000000000    1.273675408
   2  C       6.00    0.000000000   -0.000000000   -1.273675408
   3  H       1.00    0.000000000    1.721540499    2.345150121
   4  H       1.00    0.000000000   -1.721540499    2.345150121
   5  H       1.00    0.000000000    1.721540499   -2.345150121
   6  H       1.00    0.000000000   -1.721540499   -2.345150121

 Bond lengths in Bohr (Angstrom)

 1-2  2.547350816  1-3  2.027747457  1-4  2.027747457  2-5  2.027747457  2-6  2.027747457
     ( 1.348000000)     ( 1.073037744)     ( 1.073037744)     ( 1.073037744)     ( 1.073037744)

 Bond angles

  1-2-5  121.89784409   1-2-6  121.89784409   2-1-3  121.89784409   2-1-4  121.89784409

  3-1-4  116.20431183   5-2-6  116.20431183

 NUCLEAR CHARGE:                   16
 NUMBER OF PRIMITIVE AOS:          72
 NUMBER OF SYMMETRY AOS:           70
 NUMBER OF CONTRACTIONS:           36   (   36A   )
 NUMBER OF CORE ORBITALS:           2   (    2A   )
 NUMBER OF VALENCE ORBITALS:       12   (   12A   )


 NUCLEAR REPULSION ENERGY   33.30800305

 EXTRA SYMMETRY OF AOS IN SYMMETRY 1:   1 1 1 2 1 1 2 1 1 1   3 2 1 1 1 1 1 2 1 1   2 1 1 1 3 2 1 1 1 1   1 1 1 1 1 1

 Eigenvalues of metric

         1 0.861E-02 0.174E-01 0.372E-01 0.455E-01 0.708E-01 0.199E+00 0.210E+00 0.226E+00


 Contracted 2-electron integrals neglected if value below      1.0D-11
 AO integral compression algorithm  1   Integral accuracy      1.0D-11

     0.786 MB (compressed) written to integral file ( 37.8%)


 NUMBER OF SORTED TWO-ELECTRON INTEGRALS:     222111.     BUFFER LENGTH:  32768
 NUMBER OF SEGMENTS:   1  SEGMENT LENGTH:     222111      RECORD LENGTH: 524288

 Memory used in sort:       0.78 MW

 SORT1 READ      284735. AND WROTE       98271. INTEGRALS IN      1 RECORDS. CPU TIME:     0.00 SEC, REAL TIME:     0.00 SEC
 SORT2 READ       98271. AND WROTE      222111. INTEGRALS IN      3 RECORDS. CPU TIME:     0.01 SEC, REAL TIME:     0.01 SEC

 FILE SIZES:   FILE 1:    30.9 MBYTE,  FILE 4:     4.2 MBYTE,   TOTAL:     35.1 MBYTE

 OPERATOR DM      FOR CENTER  0  COORDINATES:    0.000000    0.000000    0.000000


 **********************************************************************************************************************************
 DATASETS  * FILE   NREC   LENGTH (MB)   RECORD NAMES
              1      19       30.63       500      610      700      900      950      970     1000      129      960     1100   
                                          VAR    BASINP    GEOM    SYMINP    ZMAT    AOBASIS   BASIS     P2S    ABASIS      S 
                                         1400     1410     1200     1210     1080     1600     1650     1300     1700   
                                           T        V       H0       H01     AOSYM     SMH    MOLCAS    ERIS     OPER   

 PROGRAMS   *        TOTAL       INT
 CPU TIMES  *         0.31      0.22
 REAL TIME  *         0.48 SEC
 DISK USED  *        35.45 MB
 **********************************************************************************************************************************


 PROGRAM * RHF-SCF (CLOSED SHELL)       Authors: W. Meyer, H.-J. Werner


 NUMBER OF ELECTRONS:       8+    8-    SPACE SYMMETRY=1    SPIN SYMMETRY: Singlet 
 CONVERGENCE THRESHOLDS:    1.00E-05 (Density)    1.00E-07 (Energy)
 MAX. NUMBER OF ITERATIONS:       60
 INTERPOLATION TYPE:            DIIS
 INTERPOLATION STEPS:              2 (START)      1 (STEP)
 LEVEL SHIFTS:                  0.00 (CLOSED)  0.00 (OPEN) 



 Orbital guess generated from atomic densities. Full valence occupancy:    8

 Molecular orbital dump at record        2100.2

 Initial occupancy:   8

 ITERATION    DDIFF          GRAD             ENERGY        2-EL.EN.            DIPOLE MOMENTS         DIIS   ORB.
    1      0.000D+00      0.000D+00       -78.00622030    118.481986   -0.00000   -0.00000   -0.00000    0    start
    2      0.000D+00      0.849D-02       -78.02787058    116.700294    0.00000    0.00000   -0.00000    1    diag
    3      0.814D-02      0.286D-02       -78.02993044    117.313888   -0.00000    0.00000   -0.00000    2    diag
    4      0.259D-02      0.708D-03       -78.03013666    117.214716   -0.00000   -0.00000   -0.00000    3    diag
    5      0.106D-02      0.670D-04       -78.03013870    117.217591    0.00000    0.00000   -0.00000    4    diag
    6      0.143D-03      0.787D-05       -78.03013873    117.217172    0.00000   -0.00000    0.00000    5    diag
    7      0.147D-04      0.116D-05       -78.03013873    117.217180   -0.00000    0.00000   -0.00000    6    diag
    8      0.175D-05      0.135D-06       -78.03013873    117.217174   -0.00000    0.00000   -0.00000    0    orth

 Final occupancy:   8

 !RHF STATE  1.1 Energy               -78.030138730925
 Nuclear energy                        33.30800305
 One-electron energy                 -169.94672876
 Two-electron energy                   58.60858698
 Virial quotient                       -1.00029526
 !RHF STATE  1.1 Dipole moment         -0.00000000     0.00000000    -0.00000000
 Dipole moment /Debye                  -0.00000000     0.00000000    -0.00000000

 ELECTRON ORBITALS
 =================

  Orbital  Occupation    Energy     Coefficients
    1.1     2.00000   -11.22616     1 1s    0.70420     2 1s    0.70420
    2.1     2.00000   -11.22464     1 1s    0.70453     2 1s   -0.70453
    3.1     2.00000    -1.02424     1 1s    0.30187     2 1s    0.30187
    4.1     2.00000    -0.79491     1 1s    0.24088
    5.1     2.00000    -0.63773     1 2py   0.32195     2 2py   0.32195
    6.1     2.00000    -0.58248     1 2pz   0.40716     2 2pz  -0.40716
    7.1     2.00000    -0.50773     1 2py   0.30646     2 2py  -0.30646
    8.1     2.00000    -0.36688     1 2px   0.37240     1 2px   0.30981     2 2px   0.37240     2 2px   0.30981
    9.1     0.00000     0.17616     1 2px   0.34297     1 2px   0.72769     2 2px  -0.34297     2 2px  -0.72769
   10.1     0.00000     0.26742     1 1s   -1.50769     1 2pz  -0.65037     2 1s   -1.50769     2 2pz   0.65037     3 1s    1.04890
                                    4 1s    1.04890     5 1s    1.04890     6 1s    1.04890
   11.1     0.00000     0.29602     1 2py  -0.25126     1 2py  -0.81310     2 2py  -0.25126     2 2py  -0.81310     3 1s    1.10671
                                    4 1s   -1.10671     5 1s    1.10671     6 1s   -1.10671
   12.1     0.00000     0.30934     1 1s    1.94110     2 1s   -1.94110     3 1s   -1.07781     4 1s   -1.07781     5 1s    1.07781
                                    6 1s    1.07781
   13.1     0.00000     0.39093     1 2py  -1.86473     2 2py   1.86473     3 1s    1.63219     4 1s   -1.63219     5 1s   -1.63219
                                    6 1s    1.63219
   14.1     0.00000     0.48927     1 1s   -2.88380     1 2pz   2.92462     2 1s    2.88380     2 2pz   2.92462     3 1s   -0.60363
                                    4 1s   -0.60363     5 1s    0.60363     6 1s    0.60363
   15.1     0.00000     0.67291     1 1s    0.26183     1 2pz  -0.55945     1 2pz   1.03980     2 1s    0.26183     2 2pz   0.55945
                                    2 2pz  -1.03980
   16.1     0.00000     0.75750     1 2py  -0.39884     1 2py   0.76874     2 2py  -0.39884     2 2py   0.76874     3 1s   -0.38418
                                    4 1s    0.38418     5 1s   -0.38418     6 1s    0.38418
   17.1     0.00000     0.77933     1 2px  -0.74279     1 2px   0.63962     2 2px  -0.74279     2 2px   0.63962
   18.1     0.00000     0.86320     1 1s   -0.89151     1 1s    1.48438     1 2pz   0.34664     2 1s   -0.89151     2 1s    1.48438
                                    2 2pz  -0.34664     3 1s   -0.39404     4 1s   -0.39404     5 1s   -0.39404     6 1s   -0.39404
   19.1     0.00000     0.88908     1 2px  -0.81755     1 2px   1.07027     2 2px   0.81755     2 2px  -1.07027
   20.1     0.00000     0.94627     1 1s   -0.77461     1 2pz   0.60855     1 2pz  -0.54438     2 1s    0.77461     2 2pz   0.60855
                                    2 2pz  -0.54438     3 1s    0.37897     4 1s    0.37897     5 1s   -0.37897     6 1s   -0.37897
   21.1     0.00000     1.12137     1 2py  -0.69092     1 2py   1.09835     2 2py  -0.69092     2 2py   1.09835     3 1s    0.38340
                                    3 1s   -1.06378     4 1s   -0.38340     4 1s    1.06378     5 1s    0.38340     5 1s   -1.06378
                                    6 1s   -0.38340     6 1s    1.06378
   22.1     0.00000     1.16070     1 2py   0.92449     1 2py  -2.94445     2 2py  -0.92449     2 2py   2.94445     3 1s    1.51702
                                    4 1s   -1.51702     5 1s   -1.51702     6 1s    1.51702
   23.1     0.00000     1.21983     1 1s    1.03547     1 1s   -1.72922     1 2pz   0.36592     1 2pz  -0.49754     2 1s    1.03547
                                    2 1s   -1.72922     2 2pz  -0.36592     2 2pz   0.49754     3 1s   -0.44214     3 1s    0.86899
                                    4 1s   -0.44214     4 1s    0.86899     5 1s   -0.44214     5 1s    0.86899     6 1s   -0.44214
                                    6 1s    0.86899
   24.1     0.00000     1.22519     1 1s   -0.49460     1 1s    0.39951     1 2pz  -0.62879     1 2pz   1.26396     2 1s    0.49460
                                    2 1s   -0.39951     2 2pz  -0.62879     2 2pz   1.26396     3 1s    0.47593     3 1s   -0.96176
                                    4 1s    0.47593     4 1s   -0.96176     5 1s   -0.47593     5 1s    0.96176     6 1s   -0.47593
                                    6 1s    0.96176
   25.1     0.00000     1.33259     1 1s   -1.60163     1 1s    5.32062     1 2pz  -1.84813     2 1s    1.60163     2 1s   -5.32062
                                    2 2pz  -1.84813     3 1s   -0.35810     4 1s   -0.35810     5 1s    0.35810     6 1s    0.35810
   26.1     0.00000     1.46484     1 2py   2.48847     2 2py  -2.48847     3 1s   -0.69433     3 1s   -0.65321     4 1s    0.69433
                                    4 1s    0.65321     5 1s    0.69433     5 1s    0.65321     6 1s   -0.69433     6 1s   -0.65321
   27.1     0.00000     1.73533     1 3d1+  0.62034     2 3d1+ -0.62034
   28.1     0.00000     1.82472     1 3d2-  0.68212     2 3d2-  0.68212
   29.1     0.00000     2.12344     1 3d2-  0.73506     2 3d2- -0.73506
   30.1     0.00000     2.21267     1 1s   -0.61530     1 3d2+  0.71186     2 1s   -0.61530     2 3d2+  0.71186     3 1s    0.37399
                                    4 1s    0.37399     5 1s    0.37399     6 1s    0.37399
   31.1     0.00000     2.33593     1 2py   0.27830     1 3d1-  0.69504     2 2py   0.27830     2 3d1- -0.69504     3 1s   -0.52211
                                    4 1s    0.52211     5 1s   -0.52211     6 1s    0.52211
   32.1     0.00000     2.39586     1 1s   -0.49980     1 2pz   0.28089     1 2pz  -0.44892     1 3d0   0.68347     2 1s   -0.49980
                                    2 2pz  -0.28089     2 2pz   0.44892     2 3d0   0.68347
   33.1     0.00000     2.62154     1 1s    0.28635     1 1s   -1.30254     1 3d2+  0.79820     2 1s   -0.28635     2 1s    1.30254
                                    2 3d2+ -0.79820     3 1s    0.44585     4 1s    0.44585     5 1s   -0.44585     6 1s   -0.44585
   34.1     0.00000     2.69724     1 2px  -0.26284     1 3d1+  0.89668     2 2px   0.26284     2 3d1+  0.89668
   35.1     0.00000     3.05061     1 1s    0.28381     1 1s    2.01838     1 2pz  -0.76866     1 2pz  -1.18167     1 3d0   1.10562
                                    2 1s   -0.28381     2 1s   -2.01838     2 2pz  -0.76866     2 2pz  -1.18167     2 3d0  -1.10562
   36.1     0.00000     3.06499     1 2py   0.57200     1 3d1-  0.96735     2 2py  -0.57200     2 3d1-  0.96735     3 1s   -0.48439
                                    4 1s    0.48439     5 1s    0.48439     6 1s   -0.48439


 HOMO      8.1    -0.366877 =      -9.9832eV
 LUMO      9.1     0.176162 =       4.7936eV
 LUMO-HOMO         0.543039 =      14.7768eV


 **********************************************************************************************************************************
 DATASETS  * FILE   NREC   LENGTH (MB)   RECORD NAMES
              1      19       30.63       500      610      700      900      950      970     1000      129      960     1100   
                                          VAR    BASINP    GEOM    SYMINP    ZMAT    AOBASIS   BASIS     P2S    ABASIS      S 
                                         1400     1410     1200     1210     1080     1600     1650     1300     1700   
                                           T        V       H0       H01     AOSYM     SMH    MOLCAS    ERIS     OPER   

              2       4        2.86       700     1000      520     2100   
                                         GEOM     BASIS   MCVARS     RHF  

 PROGRAMS   *        TOTAL    HF-SCF       INT
 CPU TIMES  *         0.40      0.09      0.22
 REAL TIME  *         0.60 SEC
 DISK USED  *        35.45 MB
 **********************************************************************************************************************************


 PROGRAM * MULTI (Direct Multiconfiguration SCF)       Authors: P.J. Knowles, H.-J. Werner (1984)


 Number of closed-shell orbitals:   7 (   7 )
 Number of active  orbitals:        2 (   2 )
 Number of external orbitals:      27 (  27 )

 State symmetry 1

 Number of electrons:     2    Spin symmetry=Singlet   Space symmetry=1
 Number of states:        3
 Number of CSFs:          3   (4 determinants, 4 intermediate states)

 Molecular orbitals read from record     2100.2  Type=RHF/CANONICAL (state 1.1)

 EXTRA SYMMETRY OF MOS IN SYMMETRY 1:   1 1 1 1 1 1 1 2 2 1   1 1 1 1 1 1 2 1 2 1   1 1 1 1 1 1 2 3 3 1   1 1 1 2 1 1

 Wavefunction dump at record             2140.2

 Convergence thresholds  0.10E-01 (gradient)  0.10E-05 (energy)  0.10E-02 (step length)

 Weight factors for state symmetry  1:    0.33333   0.33333   0.33333

 Number of orbital rotations:      257   (    14 Core/Active    189 Core/Virtual   0 Active/Active     54 Active/Virtual)
 Total number of variables:        269

 Micro-Iterations solved by the two-step solver

 ITER. MIC  NCI  NEG     ENERGY(VAR)     ENERGY(PROJ)   ENERGY CHANGE     GRAD(0)  GRAD(ORB)   GRAD(CI)     STEP       TIME

   1    3    3    0     -77.73284655     -77.73892005   -0.00607350    0.13062823 0.00000143 0.00000000  0.62D-01      0.05
   2    2    3    0     -77.73882659     -77.73883009   -0.00000351    0.00293841 0.00000173 0.00000000  0.16D-02      0.08
   3    2    3    0     -77.73883010     -77.73883010   -0.00000000    0.00000200 0.00000000 0.00000000  0.12D-05      0.11

 ** WVFN ****  CONVERGENCE REACHED, FINAL GRADIENT:  0.11D-11



 Results for state 1.1
 =====================

 !MCSCF STATE  1.1 Energy             -78.048396998600
 Nuclear energy                        33.30800305
 Kinetic energy                        78.07116085
 One electron energy                 -170.06930047
 Two electron energy                   58.71290042
 Virial ratio                           1.99970842

 !MCSCF STATE  1.1 Dipole moment        0.00000000    -0.00000000     0.00000000
 Dipole moment /Debye                   0.00000000    -0.00000000     0.00000000

 Results for state 2.1
 =====================

 !MCSCF STATE  2.1 Energy             -77.675033033959
 Nuclear energy                        33.30800305
 Kinetic energy                        78.25453744
 One electron energy                 -169.51616100
 Two electron energy                   58.53312491
 Virial ratio                           1.99259462

 !MCSCF STATE  2.1 Dipole moment        0.00000000    -0.00000000    -0.00000000
 Dipole moment /Debye                   0.00000000    -0.00000000    -0.00000000

 Results for state 3.1
 =====================

 !MCSCF STATE  3.1 Energy             -77.493060253388
 Nuclear energy                        33.30800305
 Kinetic energy                        78.43791403
 One electron energy                 -168.96302152
 Two electron energy                   58.16195822
 Virial ratio                           1.98795412

 !MCSCF STATE  3.1 Dipole moment        0.00000000    -0.00000000     0.00000000
 Dipole moment /Debye                   0.00000000    -0.00000000     0.00000000

 State-averaged charge density matrix saved on record  2140.2 (density set 1)

 !MCSCF trans         <2.1|DMZ|1.1>    -1.511157681578 au =    -3.840728140346 Debye
 !MCSCF trans         <3.1|DMZ|2.1>    -2.292363436055 au =    -5.826225061808 Debye


 NATURAL ORBITALS (state averaged)
 =================================

  Orbital  Occupation    Energy     Coefficients
    1.1     2.00000   -11.24117     1 1s    0.70421     2 1s    0.70421
    2.1     2.00000   -11.23992     1 1s    0.70449     2 1s   -0.70449
    3.1     2.00000    -1.03830     1 1s    0.30983     2 1s    0.30983
    4.1     2.00000    -0.80245     1 1s    0.28504     2 1s   -0.28504
    5.1     2.00000    -0.65013     1 2py   0.32747     2 2py   0.32747
    6.1     2.00000    -0.59738     1 2pz   0.40895     2 2pz  -0.40895
    7.1     2.00000    -0.51411     1 2py   0.31277     2 2py  -0.31277
    8.1     1.00000     0.03175     1 2px   0.38019     1 2px   0.68173     2 2px  -0.38019     2 2px  -0.68173
    9.1     1.00000    -0.22344     1 2px   0.35681     1 2px   0.32139     2 2px   0.35681     2 2px   0.32139
   10.1    -0.00000     0.26479     1 1s   -1.50395     1 2pz  -0.65632     2 1s   -1.50395     2 2pz   0.65632     3 1s    1.04852
                                    4 1s    1.04852     5 1s    1.04852     6 1s    1.04852
   11.1    -0.00000     0.28779     1 2py  -0.80397     2 2py  -0.80397     3 1s    1.09847     4 1s   -1.09847     5 1s    1.09847
                                    6 1s   -1.09847
   12.1    -0.00000     0.30631     1 1s    1.96570     2 1s   -1.96570     3 1s   -1.07200     4 1s   -1.07200     5 1s    1.07200
                                    6 1s    1.07200
   13.1    -0.00000     0.38694     1 2py  -0.25147     1 2py  -1.85092     2 2py   0.25147     2 2py   1.85092     3 1s    1.62558
                                    4 1s   -1.62558     5 1s   -1.62558     6 1s    1.62558
   14.1    -0.00000     0.48630     1 1s   -2.85928     1 2pz   2.90505     2 1s    2.85928     2 2pz   2.90505     3 1s   -0.61339
                                    4 1s   -0.61339     5 1s    0.61339     6 1s    0.61339
   15.1    -0.00000     0.66164     1 1s    0.25314     1 2pz  -0.55177     1 2pz   1.01566     2 1s    0.25314     2 2pz   0.55177
                                    2 2pz  -1.01566
   16.1    -0.00000     0.74719     1 2py  -0.40998     1 2py   0.77545     2 2py  -0.40998     2 2py   0.77545     3 1s   -0.37966
                                    4 1s    0.37966     5 1s   -0.37966     6 1s    0.37966
   17.1    -0.00000     0.77344     1 2px  -0.74954     1 2px   0.63422     2 2px  -0.74954     2 2px   0.63422
   18.1    -0.00000     0.86054     1 1s   -0.88486     1 1s    1.50940     1 2pz   0.39420     2 1s   -0.88486     2 1s    1.50940
                                    2 2pz  -0.39420     3 1s   -0.39587     3 1s   -0.25369     4 1s   -0.39587     4 1s   -0.25369
                                    5 1s   -0.39587     5 1s   -0.25369     6 1s   -0.39587     6 1s   -0.25369
   19.1    -0.00000     0.87183     1 2px  -0.80218     1 2px   1.09996     2 2px   0.80218     2 2px  -1.09996
   20.1    -0.00000     0.92790     1 1s   -0.62008     1 2pz   0.61244     1 2pz  -0.62790     2 1s    0.62008     2 2pz   0.61244
                                    2 2pz  -0.62790     3 1s    0.37927     4 1s    0.37927     5 1s   -0.37927     6 1s   -0.37927
   21.1    -0.00000     1.10621     1 2py  -0.67958     1 2py   1.10007     2 2py  -0.67958     2 2py   1.10007     3 1s    0.38397
                                    3 1s   -1.07259     4 1s   -0.38397     4 1s    1.07259     5 1s    0.38397     5 1s   -1.07259
                                    6 1s   -0.38397     6 1s    1.07259
   22.1    -0.00000     1.14849     1 2py   0.92159     1 2py  -2.94923     2 2py  -0.92159     2 2py   2.94923     3 1s    1.52480
                                    4 1s   -1.52480     5 1s   -1.52480     6 1s    1.52480
   23.1    -0.00000     1.21680     1 1s    1.03064     1 1s   -1.72528     1 2pz   0.36957     1 2pz  -0.50310     2 1s    1.03064
                                    2 1s   -1.72528     2 2pz  -0.36957     2 2pz   0.50310     3 1s   -0.44264     3 1s    0.86855
                                    4 1s   -0.44264     4 1s    0.86855     5 1s   -0.44264     5 1s    0.86855     6 1s   -0.44264
                                    6 1s    0.86855
   24.1    -0.00000     1.22275     1 1s   -0.41746     1 2pz  -0.64346     1 2pz   1.35235     2 1s    0.41746     2 2pz  -0.64346
                                    2 2pz   1.35235     3 1s    0.47902     3 1s   -0.94343     4 1s    0.47902     4 1s   -0.94343
                                    5 1s   -0.47902     5 1s    0.94343     6 1s   -0.47902     6 1s    0.94343
   25.1    -0.00000     1.31342     1 1s   -1.62526     1 1s    5.34493     1 2pz  -1.78285     2 1s    1.62526     2 1s   -5.34493
                                    2 2pz  -1.78285     3 1s   -0.40606     4 1s   -0.40606     5 1s    0.40606     6 1s    0.40606
   26.1    -0.00000     1.45636     1 2py   2.49186     2 2py  -2.49186     3 1s   -0.69319     3 1s   -0.65438     4 1s    0.69319
                                    4 1s    0.65438     5 1s    0.69319     5 1s    0.65438     6 1s   -0.69319     6 1s   -0.65438
   27.1    -0.00000     1.71025     1 3d1+  0.62009     2 3d1+ -0.62009
   28.1    -0.00000     1.81131     1 3d2-  0.68212     2 3d2-  0.68212
   29.1    -0.00000     2.10081     1 3d2-  0.73506     2 3d2- -0.73506
   30.1    -0.00000     2.19771     1 1s   -0.61120     1 3d2+  0.71124     2 1s   -0.61120     2 3d2+  0.71124     3 1s    0.37574
                                    4 1s    0.37574     5 1s    0.37574     6 1s    0.37574
   31.1    -0.00000     2.32007     1 2py   0.28515     1 3d1-  0.69328     2 2py   0.28515     2 3d1- -0.69328     3 1s   -0.52549
                                    4 1s    0.52549     5 1s   -0.52549     6 1s    0.52549
   32.1    -0.00000     2.37610     1 1s   -0.49771     1 2pz   0.28664     1 2pz  -0.45186     1 3d0   0.68312     2 1s   -0.49771
                                    2 2pz  -0.28664     2 2pz   0.45186     2 3d0   0.68312
   33.1    -0.00000     2.60224     1 1s    0.28709     1 1s   -1.30808     1 3d2+  0.79745     2 1s   -0.28709     2 1s    1.30808
                                    2 3d2+ -0.79745     3 1s    0.44890     4 1s    0.44890     5 1s   -0.44890     6 1s   -0.44890
   34.1    -0.00000     2.67504     1 2px  -0.26353     1 3d1+  0.89706     2 2px   0.26353     2 3d1+  0.89706
   35.1    -0.00000     3.03310     1 1s    0.27686     1 1s    2.04315     1 2pz  -0.76122     1 2pz  -1.19463     1 3d0   1.10718
                                    2 1s   -0.27686     2 1s   -2.04315     2 2pz  -0.76122     2 2pz  -1.19463     2 3d0  -1.10718
   36.1    -0.00000     3.05244     1 2py   0.57199     1 3d1-  0.96695     2 2py  -0.57199     2 3d1-  0.96695     3 1s   -0.48664
                                    4 1s    0.48664     5 1s    0.48664     6 1s   -0.48664


 Natural orbital dump (state averaged) at molpro section  2140.2    (Orbital set 2)



 **********************************************************************************************************************************
 DATASETS  * FILE   NREC   LENGTH (MB)   RECORD NAMES
              1      20       31.36       500      610      700      900      950      970     1000      129      960     1100   
                                          VAR    BASINP    GEOM    SYMINP    ZMAT    AOBASIS   BASIS     P2S    ABASIS      S 
                                         1400     1410     1200     1210     1080     1600     1650     1300     1700     1380   
                                           T        V       H0       H01     AOSYM     SMH    MOLCAS    ERIS     OPER     JKOP   

              2       5        5.42       700     1000      520     2100     2140   
                                         GEOM     BASIS   MCVARS     RHF     MCSCF   

 PROGRAMS   *        TOTAL     MULTI    HF-SCF       INT
 CPU TIMES  *         0.55      0.15      0.09      0.22
 REAL TIME  *         0.78 SEC
 DISK USED  *        38.54 MB
 **********************************************************************************************************************************
 Molecular orbitals read from record     2140.2  Type=MCSCF/NATURAL (state averaged)
 Occupation numbers read from record     2140.2  Type=MCSCF/NATURAL (state averaged)
 Orbital energies read from record       2140.2  Type=MCSCF/NATURAL (state averaged)
 Redundancy group numbers read from rec  2140.2  Type=MCSCF/NATURAL (state averaged)

 MULTI/6-31G* energy=    -77.493060253388

           MULTI          HF-SCF
    -77.49306025    -78.03013873
 **********************************************************************************************************************************
 Molpro calculation terminated
