
 Primary working directories    : /scratch.local/johan406.molpro_temp/molpro.aJdPi5Gv4v
 Secondary working directories  : /scratch.local/johan406.molpro_temp/molpro.aJdPi5Gv4v
 Wavefunction directory         : /home/goodpast/johan406/wfu/
 Main file repository           : /scratch.local/johan406.molpro_temp/molpro.aJdPi5Gv4v/

 id        : roweumn

 Nodes     nprocs
 cn0416       1

 Using customized tuning parameters: mindgm=1; mindgv=20; mindgc=4; mindgr=1; noblas=0; minvec=7
 default implementation of scratch files=df  


 Variables initialized (934), CPU time= 0.01 sec
                                                                                 !leave this line blank
 
 gprint, orbitals=30
 memory, 125., m
 symmetry, nosym
 nelect=16
 basis=6-31g*
 
 geometry={
 C 0.000 0.000 0.674
 C 0.000 -0.000 -0.674
 H 0.000 0.911 1.240
 H 0.000 -0.911 1.240
 H 0.000 0.911 -1.240
 H 0.000 -0.911 -1.240
 }
 
 hf
 {multi,
 closed 7
 occ 9
 wf,spin=0;STATE,3
 }
 
 Commands  initialized (763), CPU time= 0.00 sec, 617 directives.
 Default parameters read. Elapsed time= 0.05 sec

 Checking input...
 Passed
1


                                         ***  PROGRAM SYSTEM MOLPRO  ***
                                       Copyright, TTI GmbH Stuttgart, 2015
                                    Version 2019.2 linked Oct 25 2019 22:50:27


 **********************************************************************************************************************************
 LABEL *                                                                                 
  64 bit serial version                                                                  DATE: 15-Mar-23          TIME: 16:53:13  
 **********************************************************************************************************************************

 SHA1:             8dbd9ae1082e4ce945b0f27595c9eb2d4aa09004
 **********************************************************************************************************************************


 Variable memory set to  125000000 words,  buffer space 

 SETTING NELECT         =        16.00000000                                  
 SETTING BASIS          =    6-31G*
 ZSYMEL=NOSYM


Geometry recognized as XYZ



 Recomputing integrals since basis changed


 Using spherical harmonics

 Library entry C      S 6-31G                selected for orbital group  1
 Library entry C      P 6-31G                selected for orbital group  1
 Library entry C      D 6-31G*               selected for orbital group  1
 Library entry H      S 6-31G                selected for orbital group  2


 PROGRAM * SEWARD (Integral evaluation for generally contracted gaussian basis sets)     Author: Roland Lindh, 1990

 Geometry written to block  1 of record 700


 Point group  C1  



 ATOMIC COORDINATES

 NR  ATOM    CHARGE       X              Y              Z

   1  C       6.00    0.000000000    0.000000000    1.273675408
   2  C       6.00    0.000000000   -0.000000000   -1.273675408
   3  H       1.00    0.000000000    1.721540499    2.343260394
   4  H       1.00    0.000000000   -1.721540499    2.343260394
   5  H       1.00    0.000000000    1.721540499   -2.343260394
   6  H       1.00    0.000000000   -1.721540499   -2.343260394

 Bond lengths in Bohr (Angstrom)

 1-2  2.547350816  1-3  2.026749549  1-4  2.026749549  2-5  2.026749549  2-6  2.026749549
     ( 1.348000000)     ( 1.072509674)     ( 1.072509674)     ( 1.072509674)     ( 1.072509674)

 Bond angles

  1-2-5  121.85248912   1-2-6  121.85248912   2-1-3  121.85248912   2-1-4  121.85248912

  3-1-4  116.29502176   5-2-6  116.29502176

 NUCLEAR CHARGE:                   16
 NUMBER OF PRIMITIVE AOS:          72
 NUMBER OF SYMMETRY AOS:           70
 NUMBER OF CONTRACTIONS:           36   (   36A   )
 NUMBER OF CORE ORBITALS:           2   (    2A   )
 NUMBER OF VALENCE ORBITALS:       12   (   12A   )


 NUCLEAR REPULSION ENERGY   33.31690574

 EXTRA SYMMETRY OF AOS IN SYMMETRY 1:   1 1 1 2 1 1 2 1 1 1   3 2 1 1 1 1 1 2 1 1   2 1 1 1 3 2 1 1 1 1   1 1 1 1 1 1

 Eigenvalues of metric

         1 0.861E-02 0.174E-01 0.372E-01 0.455E-01 0.707E-01 0.199E+00 0.210E+00 0.226E+00


 Contracted 2-electron integrals neglected if value below      1.0D-11
 AO integral compression algorithm  1   Integral accuracy      1.0D-11

     0.786 MB (compressed) written to integral file ( 37.8%)


 NUMBER OF SORTED TWO-ELECTRON INTEGRALS:     222111.     BUFFER LENGTH:  32768
 NUMBER OF SEGMENTS:   1  SEGMENT LENGTH:     222111      RECORD LENGTH: 524288

 Memory used in sort:       0.78 MW

 SORT1 READ      284735. AND WROTE       98271. INTEGRALS IN      1 RECORDS. CPU TIME:     0.00 SEC, REAL TIME:     0.00 SEC
 SORT2 READ       98271. AND WROTE      222111. INTEGRALS IN      3 RECORDS. CPU TIME:     0.02 SEC, REAL TIME:     0.01 SEC

 FILE SIZES:   FILE 1:    30.9 MBYTE,  FILE 4:     4.2 MBYTE,   TOTAL:     35.1 MBYTE

 OPERATOR DM      FOR CENTER  0  COORDINATES:    0.000000    0.000000    0.000000


 **********************************************************************************************************************************
 DATASETS  * FILE   NREC   LENGTH (MB)   RECORD NAMES
              1      19       30.63       500      610      700      900      950      970     1000      129      960     1100   
                                          VAR    BASINP    GEOM    SYMINP    ZMAT    AOBASIS   BASIS     P2S    ABASIS      S 
                                         1400     1410     1200     1210     1080     1600     1650     1300     1700   
                                           T        V       H0       H01     AOSYM     SMH    MOLCAS    ERIS     OPER   

 PROGRAMS   *        TOTAL       INT
 CPU TIMES  *         0.30      0.21
 REAL TIME  *         0.47 SEC
 DISK USED  *        35.45 MB
 **********************************************************************************************************************************


 PROGRAM * RHF-SCF (CLOSED SHELL)       Authors: W. Meyer, H.-J. Werner


 NUMBER OF ELECTRONS:       8+    8-    SPACE SYMMETRY=1    SPIN SYMMETRY: Singlet 
 CONVERGENCE THRESHOLDS:    1.00E-05 (Density)    1.00E-07 (Energy)
 MAX. NUMBER OF ITERATIONS:       60
 INTERPOLATION TYPE:            DIIS
 INTERPOLATION STEPS:              2 (START)      1 (STEP)
 LEVEL SHIFTS:                  0.00 (CLOSED)  0.00 (OPEN) 



 Orbital guess generated from atomic densities. Full valence occupancy:    8

 Molecular orbital dump at record        2100.2

 Initial occupancy:   8

 ITERATION    DDIFF          GRAD             ENERGY        2-EL.EN.            DIPOLE MOMENTS         DIIS   ORB.
    1      0.000D+00      0.000D+00       -78.00621092    118.499142   -0.00000   -0.00000   -0.00000    0    start
    2      0.000D+00      0.849D-02       -78.02787132    116.717160    0.00000   -0.00000    0.00000    1    diag
    3      0.814D-02      0.286D-02       -78.02993061    117.330556    0.00000   -0.00000   -0.00000    2    diag
    4      0.259D-02      0.708D-03       -78.03013666    117.231470    0.00000   -0.00000    0.00000    3    diag
    5      0.106D-02      0.669D-04       -78.03013869    117.234334   -0.00000    0.00000   -0.00000    4    diag
    6      0.143D-03      0.783D-05       -78.03013872    117.233916    0.00000   -0.00000   -0.00000    5    diag
    7      0.146D-04      0.115D-05       -78.03013872    117.233924    0.00000   -0.00000    0.00000    6    diag
    8      0.173D-05      0.134D-06       -78.03013872    117.233918   -0.00000   -0.00000   -0.00000    0    orth

 Final occupancy:   8

 !RHF STATE  1.1 Energy               -78.030138722788
 Nuclear energy                        33.31690574
 One-electron energy                 -169.96400361
 Two-electron energy                   58.61695915
 Virial quotient                       -1.00025175
 !RHF STATE  1.1 Dipole moment         -0.00000000    -0.00000000    -0.00000000
 Dipole moment /Debye                  -0.00000000    -0.00000000    -0.00000000

 ELECTRON ORBITALS
 =================

  Orbital  Occupation    Energy     Coefficients
    1.1     2.00000   -11.22599     1 1s    0.70420     2 1s    0.70420
    2.1     2.00000   -11.22447     1 1s    0.70453     2 1s   -0.70453
    3.1     2.00000    -1.02435     1 1s    0.30185     2 1s    0.30185
    4.1     2.00000    -0.79500     2 1s   -0.24079
    5.1     2.00000    -0.63807     1 2py   0.32199     2 2py   0.32199
    6.1     2.00000    -0.58232     1 2pz   0.40725     2 2pz  -0.40725
    7.1     2.00000    -0.50801     1 2py   0.30659     2 2py  -0.30659
    8.1     2.00000    -0.36684     1 2px   0.37237     1 2px   0.30984     2 2px   0.37237     2 2px   0.30984
    9.1     0.00000     0.17619     1 2px   0.34295     1 2px   0.72771     2 2px  -0.34295     2 2px  -0.72771
   10.1     0.00000     0.26743     1 1s   -1.50833     1 2pz  -0.64986     2 1s   -1.50833     2 2pz   0.64986     3 1s    1.04905
                                    4 1s    1.04905     5 1s    1.04905     6 1s    1.04905
   11.1     0.00000     0.29623     1 2py  -0.25120     1 2py  -0.81436     2 2py  -0.25120     2 2py  -0.81436     3 1s    1.10826
                                    4 1s   -1.10826     5 1s    1.10826     6 1s   -1.10826
   12.1     0.00000     0.30959     1 1s    1.94429     2 1s   -1.94429     3 1s   -1.07864     4 1s   -1.07864     5 1s    1.07864
                                    6 1s    1.07864
   13.1     0.00000     0.39095     1 2py  -1.86711     2 2py   1.86711     3 1s    1.63438     4 1s   -1.63438     5 1s   -1.63438
                                    6 1s    1.63438
   14.1     0.00000     0.48912     1 1s   -2.88077     1 2pz   2.92232     2 1s    2.88077     2 2pz   2.92232     3 1s   -0.60313
                                    4 1s   -0.60313     5 1s    0.60313     6 1s    0.60313
   15.1     0.00000     0.67278     1 1s    0.26316     1 2pz  -0.55923     1 2pz   1.03956     2 1s    0.26316     2 2pz   0.55923
                                    2 2pz  -1.03956
   16.1     0.00000     0.75769     1 2py  -0.39865     1 2py   0.77058     2 2py  -0.39865     2 2py   0.77058     3 1s   -0.38414
                                    4 1s    0.38414     5 1s   -0.38414     6 1s    0.38414
   17.1     0.00000     0.77937     1 2px  -0.74281     1 2px   0.63961     2 2px  -0.74281     2 2px   0.63961
   18.1     0.00000     0.86302     1 1s   -0.89187     1 1s    1.48368     1 2pz   0.34344     2 1s   -0.89187     2 1s    1.48368
                                    2 2pz  -0.34344     3 1s   -0.39369     4 1s   -0.39369     5 1s   -0.39369     6 1s   -0.39369
   19.1     0.00000     0.88914     1 2px  -0.81756     1 2px   1.07027     2 2px   0.81756     2 2px  -1.07027
   20.1     0.00000     0.94643     1 1s   -0.78124     1 2pz   0.60893     1 2pz  -0.54103     2 1s    0.78124     2 2pz   0.60893
                                    2 2pz  -0.54103     3 1s    0.37864     4 1s    0.37864     5 1s   -0.37864     6 1s   -0.37864
   21.1     0.00000     1.12185     1 2py  -0.69122     1 2py   1.09927     2 2py  -0.69122     2 2py   1.09927     3 1s    0.38341
                                    3 1s   -1.06441     4 1s   -0.38341     4 1s    1.06441     5 1s    0.38341     5 1s   -1.06441
                                    6 1s   -0.38341     6 1s    1.06441
   22.1     0.00000     1.16104     1 2py   0.92471     1 2py  -2.95071     2 2py  -0.92471     2 2py   2.95071     3 1s    1.52006
                                    4 1s   -1.52006     5 1s   -1.52006     6 1s    1.52006
   23.1     0.00000     1.22015     1 1s    1.03568     1 1s   -1.72997     1 2pz   0.36605     1 2pz  -0.49743     2 1s    1.03568
                                    2 1s   -1.72997     2 2pz  -0.36605     2 2pz   0.49743     3 1s   -0.44206     3 1s    0.86918
                                    4 1s   -0.44206     4 1s    0.86918     5 1s   -0.44206     5 1s    0.86918     6 1s   -0.44206
                                    6 1s    0.86918
   24.1     0.00000     1.22545     1 1s   -0.49100     1 1s    0.38607     1 2pz  -0.62883     1 2pz   1.26885     2 1s    0.49100
                                    2 1s   -0.38607     2 2pz  -0.62883     2 2pz   1.26885     3 1s    0.47642     3 1s   -0.96141
                                    4 1s    0.47642     4 1s   -0.96141     5 1s   -0.47642     5 1s    0.96141     6 1s   -0.47642
                                    6 1s    0.96141
   25.1     0.00000     1.33263     1 1s   -1.60296     1 1s    5.32453     1 2pz  -1.84652     2 1s    1.60296     2 1s   -5.32453
                                    2 2pz  -1.84652     3 1s   -0.36101     4 1s   -0.36101     5 1s    0.36101     6 1s    0.36101
   26.1     0.00000     1.46622     1 2py   2.49025     2 2py  -2.49025     3 1s   -0.69493     3 1s   -0.65480     4 1s    0.69493
                                    4 1s    0.65480     5 1s    0.69493     5 1s    0.65480     6 1s   -0.69493     6 1s   -0.65480
   27.1     0.00000     1.73539     1 3d1+  0.62034     2 3d1+ -0.62034
   28.1     0.00000     1.82465     1 3d2-  0.68212     2 3d2-  0.68212
   29.1     0.00000     2.12334     1 3d2-  0.73506     2 3d2- -0.73506
   30.1     0.00000     2.21328     1 1s   -0.61535     1 3d2+  0.71165     2 1s   -0.61535     2 3d2+  0.71165     3 1s    0.37400
                                    4 1s    0.37400     5 1s    0.37400     6 1s    0.37400
   31.1     0.00000     2.33648     1 2py   0.27869     1 3d1-  0.69516     2 2py   0.27869     2 3d1- -0.69516     3 1s   -0.52256
                                    4 1s    0.52256     5 1s   -0.52256     6 1s    0.52256
   32.1     0.00000     2.39624     1 1s   -0.49981     1 2pz   0.28034     1 2pz  -0.44893     1 3d0   0.68316     2 1s   -0.49981
                                    2 2pz  -0.28034     2 2pz   0.44893     2 3d0   0.68316
   33.1     0.00000     2.62287     1 1s    0.28617     1 1s   -1.30812     1 3d2+  0.79851     2 1s   -0.28617     2 1s    1.30812
                                    2 3d2+ -0.79851     3 1s    0.44663     4 1s    0.44663     5 1s   -0.44663     6 1s   -0.44663
   34.1     0.00000     2.69730     1 2px  -0.26282     1 3d1+  0.89668     2 2px   0.26282     2 3d1+  0.89668
   35.1     0.00000     3.05064     1 1s    0.28401     1 1s    2.01685     1 2pz  -0.76888     1 2pz  -1.18070     1 3d0   1.10559
                                    2 1s   -0.28401     2 1s   -2.01685     2 2pz  -0.76888     2 2pz  -1.18070     2 3d0  -1.10559
   36.1     0.00000     3.06464     1 2py   0.57430     1 3d1-  0.96735     2 2py  -0.57430     2 3d1-  0.96735     3 1s   -0.48481
                                    4 1s    0.48481     5 1s    0.48481     6 1s   -0.48481


 HOMO      8.1    -0.366843 =      -9.9823eV
 LUMO      9.1     0.176188 =       4.7943eV
 LUMO-HOMO         0.543031 =      14.7766eV


 **********************************************************************************************************************************
 DATASETS  * FILE   NREC   LENGTH (MB)   RECORD NAMES
              1      19       30.63       500      610      700      900      950      970     1000      129      960     1100   
                                          VAR    BASINP    GEOM    SYMINP    ZMAT    AOBASIS   BASIS     P2S    ABASIS      S 
                                         1400     1410     1200     1210     1080     1600     1650     1300     1700   
                                           T        V       H0       H01     AOSYM     SMH    MOLCAS    ERIS     OPER   

              2       4        2.86       700     1000      520     2100   
                                         GEOM     BASIS   MCVARS     RHF  

 PROGRAMS   *        TOTAL    HF-SCF       INT
 CPU TIMES  *         0.39      0.10      0.21
 REAL TIME  *         0.60 SEC
 DISK USED  *        35.45 MB
 **********************************************************************************************************************************


 PROGRAM * MULTI (Direct Multiconfiguration SCF)       Authors: P.J. Knowles, H.-J. Werner (1984)


 Number of closed-shell orbitals:   7 (   7 )
 Number of active  orbitals:        2 (   2 )
 Number of external orbitals:      27 (  27 )

 State symmetry 1

 Number of electrons:     2    Spin symmetry=Singlet   Space symmetry=1
 Number of states:        3
 Number of CSFs:          3   (4 determinants, 4 intermediate states)

 Molecular orbitals read from record     2100.2  Type=RHF/CANONICAL (state 1.1)

 EXTRA SYMMETRY OF MOS IN SYMMETRY 1:   1 1 1 1 1 1 1 2 2 1   1 1 1 1 1 1 2 1 2 1   1 1 1 1 1 1 2 3 3 1   1 1 1 2 1 1

 Wavefunction dump at record             2140.2

 Convergence thresholds  0.10E-01 (gradient)  0.10E-05 (energy)  0.10E-02 (step length)

 Weight factors for state symmetry  1:    0.33333   0.33333   0.33333

 Number of orbital rotations:      257   (    14 Core/Active    189 Core/Virtual   0 Active/Active     54 Active/Virtual)
 Total number of variables:        269

 Micro-Iterations solved by the two-step solver

 ITER. MIC  NCI  NEG     ENERGY(VAR)     ENERGY(PROJ)   ENERGY CHANGE     GRAD(0)  GRAD(ORB)   GRAD(CI)     STEP       TIME

   1    3    3    0     -77.73285128     -77.73892290   -0.00607162    0.13061840 0.00000143 0.00000000  0.62D-01      0.06
   2    2    3    0     -77.73882952     -77.73883302   -0.00000350    0.00293669 0.00000172 0.00000000  0.16D-02      0.09
   3    2    3    0     -77.73883302     -77.73883302   -0.00000000    0.00000200 0.00000000 0.00000000  0.12D-05      0.12

 ** WVFN ****  CONVERGENCE REACHED, FINAL GRADIENT:  0.11D-11



 Results for state 1.1
 =====================

 !MCSCF STATE  1.1 Energy             -78.048397583954
 Nuclear energy                        33.31690574
 Kinetic energy                        78.07456792
 One electron energy                 -170.08641859
 Two electron energy                   58.72111527
 Virial ratio                           1.99966480

 !MCSCF STATE  1.1 Dipole moment        0.00000000     0.00000000     0.00000000
 Dipole moment /Debye                   0.00000000     0.00000000     0.00000000

 Results for state 2.1
 =====================

 !MCSCF STATE  2.1 Energy             -77.675037074276
 Nuclear energy                        33.31690574
 Kinetic energy                        78.25798951
 One electron energy                 -169.53324937
 Two electron energy                   58.54130656
 Virial ratio                           1.99255089

 !MCSCF STATE  2.1 Dipole moment        0.00000000     0.00000000     0.00000000
 Dipole moment /Debye                   0.00000000     0.00000000     0.00000000

 Results for state 3.1
 =====================

 !MCSCF STATE  3.1 Energy             -77.493064398484
 Nuclear energy                        33.31690574
 Kinetic energy                        78.44141111
 One electron energy                 -168.98008015
 Two electron energy                   58.17011001
 Virial ratio                           1.98791013

 !MCSCF STATE  3.1 Dipole moment        0.00000000     0.00000000     0.00000000
 Dipole moment /Debye                   0.00000000     0.00000000     0.00000000

 State-averaged charge density matrix saved on record  2140.2 (density set 1)

 !MCSCF trans         <2.1|DMZ|1.1>    -1.511188427153 au =    -3.840806282683 Debye
 !MCSCF trans         <3.1|DMZ|2.1>    -2.292389376883 au =    -5.826290992497 Debye


 NATURAL ORBITALS (state averaged)
 =================================

  Orbital  Occupation    Energy     Coefficients
    1.1     2.00000   -11.24101     1 1s    0.70421     2 1s    0.70421
    2.1     2.00000   -11.23976     1 1s    0.70449     2 1s   -0.70449
    3.1     2.00000    -1.03841     1 1s    0.30981     2 1s    0.30981
    4.1     2.00000    -0.80255     1 1s    0.28495     2 1s   -0.28495
    5.1     2.00000    -0.65048     1 2py   0.32750     2 2py   0.32750
    6.1     2.00000    -0.59724     1 2pz   0.40904     2 2pz  -0.40904
    7.1     2.00000    -0.51440     1 2py   0.31289     2 2py  -0.31289
    8.1     1.00000     0.03177     1 2px   0.38018     1 2px   0.68174     2 2px  -0.38018     2 2px  -0.68174
    9.1     1.00000    -0.22342     1 2px   0.35679     1 2px   0.32141     2 2px   0.35679     2 2px   0.32141
   10.1    -0.00000     0.26479     1 1s   -1.50457     1 2pz  -0.65581     2 1s   -1.50457     2 2pz   0.65581     3 1s    1.04866
                                    4 1s    1.04866     5 1s    1.04866     6 1s    1.04866
   11.1    -0.00000     0.28800     1 2py  -0.80524     2 2py  -0.80524     3 1s    1.10002     4 1s   -1.10002     5 1s    1.10002
                                    6 1s   -1.10002
   12.1    -0.00000     0.30656     1 1s    1.96884     2 1s   -1.96884     3 1s   -1.07285     4 1s   -1.07285     5 1s    1.07285
                                    6 1s    1.07285
   13.1    -0.00000     0.38696     1 2py  -0.25121     1 2py  -1.85329     2 2py   0.25121     2 2py   1.85329     3 1s    1.62777
                                    4 1s   -1.62777     5 1s   -1.62777     6 1s    1.62777
   14.1    -0.00000     0.48617     1 1s   -2.85635     1 2pz   2.90283     2 1s    2.85635     2 2pz   2.90283     3 1s   -0.61288
                                    4 1s   -0.61288     5 1s    0.61288     6 1s    0.61288
   15.1    -0.00000     0.66156     1 1s    0.25161     1 2pz  -0.55163     1 2pz   1.01553     2 1s    0.25161     2 2pz   0.55163
                                    2 2pz  -1.01553
   16.1    -0.00000     0.74736     1 2py  -0.40977     1 2py   0.77724     2 2py  -0.40977     2 2py   0.77724     3 1s   -0.37963
                                    4 1s    0.37963     5 1s   -0.37963     6 1s    0.37963
   17.1    -0.00000     0.77348     1 2px  -0.74955     1 2px   0.63421     2 2px  -0.74955     2 2px   0.63421
   18.1    -0.00000     0.86031     1 1s   -0.88527     1 1s    1.50886     1 2pz   0.39114     2 1s   -0.88527     2 1s    1.50886
                                    2 2pz  -0.39114     3 1s   -0.39557     3 1s   -0.25348     4 1s   -0.39557     4 1s   -0.25348
                                    5 1s   -0.39557     5 1s   -0.25348     6 1s   -0.39557     6 1s   -0.25348
   19.1    -0.00000     0.87189     1 2px  -0.80219     1 2px   1.09995     2 2px   0.80219     2 2px  -1.09995
   20.1    -0.00000     0.92802     1 1s   -0.62673     1 2pz   0.61279     1 2pz  -0.62437     2 1s    0.62673     2 2pz   0.61279
                                    2 2pz  -0.62437     3 1s    0.37897     4 1s    0.37897     5 1s   -0.37897     6 1s   -0.37897
   21.1    -0.00000     1.10667     1 2py  -0.67989     1 2py   1.10102     2 2py  -0.67989     2 2py   1.10102     3 1s    0.38396
                                    3 1s   -1.07323     4 1s   -0.38396     4 1s    1.07323     5 1s    0.38396     5 1s   -1.07323
                                    6 1s   -0.38396     6 1s    1.07323
   22.1    -0.00000     1.14882     1 2py   0.92183     1 2py  -2.95542     2 2py  -0.92183     2 2py   2.95542     3 1s    1.52782
                                    4 1s   -1.52782     5 1s   -1.52782     6 1s    1.52782
   23.1    -0.00000     1.21711     1 1s    1.03085     1 1s   -1.72603     1 2pz   0.36970     1 2pz  -0.50300     2 1s    1.03085
                                    2 1s   -1.72603     2 2pz  -0.36970     2 2pz   0.50300     3 1s   -0.44256     3 1s    0.86873
                                    4 1s   -0.44256     4 1s    0.86873     5 1s   -0.44256     5 1s    0.86873     6 1s   -0.44256
                                    6 1s    0.86873
   24.1    -0.00000     1.22298     1 1s   -0.41300     1 2pz  -0.64357     1 2pz   1.35805     2 1s    0.41300     2 2pz  -0.64357
                                    2 2pz   1.35805     3 1s    0.47946     3 1s   -0.94275     4 1s    0.47946     4 1s   -0.94275
                                    5 1s   -0.47946     5 1s    0.94275     6 1s   -0.47946     6 1s    0.94275
   25.1    -0.00000     1.31347     1 1s   -1.62663     1 1s    5.34837     1 2pz  -1.78038     2 1s    1.62663     2 1s   -5.34837
                                    2 2pz  -1.78038     3 1s   -0.40943     4 1s   -0.40943     5 1s    0.40943     6 1s    0.40943
   26.1    -0.00000     1.45773     1 2py   2.49372     2 2py  -2.49372     3 1s   -0.69378     3 1s   -0.65601     4 1s    0.69378
                                    4 1s    0.65601     5 1s    0.69378     5 1s    0.65601     6 1s   -0.69378     6 1s   -0.65601
   27.1    -0.00000     1.71030     1 3d1+  0.62009     2 3d1+ -0.62009
   28.1    -0.00000     1.81123     1 3d2-  0.68212     2 3d2-  0.68212
   29.1    -0.00000     2.10070     1 3d2-  0.73506     2 3d2- -0.73506
   30.1    -0.00000     2.19830     1 1s   -0.61124     1 3d2+  0.71102     2 1s   -0.61124     2 3d2+  0.71102     3 1s    0.37574
                                    4 1s    0.37574     5 1s    0.37574     6 1s    0.37574
   31.1    -0.00000     2.32062     1 2py   0.28553     1 3d1-  0.69340     2 2py   0.28553     2 3d1- -0.69340     3 1s   -0.52593
                                    4 1s    0.52593     5 1s   -0.52593     6 1s    0.52593
   32.1    -0.00000     2.37647     1 1s   -0.49772     1 2pz   0.28607     1 2pz  -0.45188     1 3d0   0.68281     2 1s   -0.49772
                                    2 2pz  -0.28607     2 2pz   0.45188     2 3d0   0.68281
   33.1    -0.00000     2.60356     1 1s    0.28691     1 1s   -1.31367     1 3d2+  0.79776     2 1s   -0.28691     2 1s    1.31367
                                    2 3d2+ -0.79776     3 1s    0.44967     4 1s    0.44967     5 1s   -0.44967     6 1s   -0.44967
   34.1    -0.00000     2.67509     1 2px  -0.26352     1 3d1+  0.89706     2 2px   0.26352     2 3d1+  0.89706
   35.1    -0.00000     3.03312     1 1s    0.27705     1 1s    2.04166     1 2pz  -0.76144     1 2pz  -1.19367     1 3d0   1.10716
                                    2 1s   -0.27705     2 1s   -2.04166     2 2pz  -0.76144     2 2pz  -1.19367     2 3d0  -1.10716
   36.1    -0.00000     3.05209     1 2py   0.57432     1 3d1-  0.96695     2 2py  -0.57432     2 3d1-  0.96695     3 1s   -0.48707
                                    4 1s    0.48707     5 1s    0.48707     6 1s   -0.48707


 Natural orbital dump (state averaged) at molpro section  2140.2    (Orbital set 2)



 **********************************************************************************************************************************
 DATASETS  * FILE   NREC   LENGTH (MB)   RECORD NAMES
              1      20       31.36       500      610      700      900      950      970     1000      129      960     1100   
                                          VAR    BASINP    GEOM    SYMINP    ZMAT    AOBASIS   BASIS     P2S    ABASIS      S 
                                         1400     1410     1200     1210     1080     1600     1650     1300     1700     1380   
                                           T        V       H0       H01     AOSYM     SMH    MOLCAS    ERIS     OPER     JKOP   

              2       5        5.42       700     1000      520     2100     2140   
                                         GEOM     BASIS   MCVARS     RHF     MCSCF   

 PROGRAMS   *        TOTAL     MULTI    HF-SCF       INT
 CPU TIMES  *         0.54      0.15      0.10      0.21
 REAL TIME  *         0.78 SEC
 DISK USED  *        38.54 MB
 **********************************************************************************************************************************
 Molecular orbitals read from record     2140.2  Type=MCSCF/NATURAL (state averaged)
 Occupation numbers read from record     2140.2  Type=MCSCF/NATURAL (state averaged)
 Orbital energies read from record       2140.2  Type=MCSCF/NATURAL (state averaged)
 Redundancy group numbers read from rec  2140.2  Type=MCSCF/NATURAL (state averaged)

 MULTI/6-31G* energy=    -77.493064398484

           MULTI          HF-SCF
    -77.49306440    -78.03013872
 **********************************************************************************************************************************
 Molpro calculation terminated
