
 Primary working directories    : /scratch.local/johan406.molpro_temp/molpro.7Z1dZRU17j
 Secondary working directories  : /scratch.local/johan406.molpro_temp/molpro.7Z1dZRU17j
 Wavefunction directory         : /home/goodpast/johan406/wfu/
 Main file repository           : /scratch.local/johan406.molpro_temp/molpro.7Z1dZRU17j/

 id        : roweumn

 Nodes     nprocs
 cn0416       1

 Using customized tuning parameters: mindgm=1; mindgv=20; mindgc=4; mindgr=1; noblas=0; minvec=7
 default implementation of scratch files=df  


 Variables initialized (934), CPU time= 0.01 sec
                                                                                 !leave this line blank
 
 gprint, orbitals=30
 memory, 125., m
 symmetry, nosym
 nelect=16
 basis=6-31g*
 
 geometry={
 C 0.000 0.000 0.673
 C 0.000 -0.000 -0.673
 H 0.000 0.914 1.233
 H 0.000 -0.915 1.233
 H 0.000 0.915 -1.233
 H 0.000 -0.914 -1.233
 }
 
 hf
 {multi,
 closed 7
 occ 9
 wf,spin=0;STATE,3
 }
 
 Commands  initialized (763), CPU time= 0.01 sec, 617 directives.
 Default parameters read. Elapsed time= 0.05 sec

 Checking input...
 Passed
1


                                         ***  PROGRAM SYSTEM MOLPRO  ***
                                       Copyright, TTI GmbH Stuttgart, 2015
                                    Version 2019.2 linked Oct 25 2019 22:50:27


 **********************************************************************************************************************************
 LABEL *                                                                                 
  64 bit serial version                                                                  DATE: 15-Mar-23          TIME: 16:54:06  
 **********************************************************************************************************************************

 SHA1:             8dbd9ae1082e4ce945b0f27595c9eb2d4aa09004
 **********************************************************************************************************************************


 Variable memory set to  125000000 words,  buffer space 

 SETTING NELECT         =        16.00000000                                  
 SETTING BASIS          =    6-31G*
 ZSYMEL=NOSYM


Geometry recognized as XYZ



 Recomputing integrals since basis changed


 Using spherical harmonics

 Library entry C      S 6-31G                selected for orbital group  1
 Library entry C      P 6-31G                selected for orbital group  1
 Library entry C      D 6-31G*               selected for orbital group  1
 Library entry H      S 6-31G                selected for orbital group  2


 PROGRAM * SEWARD (Integral evaluation for generally contracted gaussian basis sets)     Author: Roland Lindh, 1990

 Geometry written to block  1 of record 700


 Point group  C1  



 ATOMIC COORDINATES

 NR  ATOM    CHARGE       X              Y              Z

   1  C       6.00    0.000000000    0.000000000    1.271785682
   2  C       6.00    0.000000000   -0.000000000   -1.271785682
   3  H       1.00    0.000000000    1.727209678    2.330032312
   4  H       1.00    0.000000000   -1.729099404    2.330032312
   5  H       1.00    0.000000000    1.729099404   -2.330032312
   6  H       1.00    0.000000000   -1.727209678   -2.330032312

 Bond lengths in Bohr (Angstrom)

 1-2  2.543571364  1-3  2.025620695  1-4  2.027232270  2-5  2.027232270  2-6  2.025620695
     ( 1.346000000)     ( 1.071912310)     ( 1.072765119)     ( 1.072765119)     ( 1.071912310)

 Bond angles

  1-2-5  121.46754337   1-2-6  121.49544610   2-1-3  121.49544610   2-1-4  121.46754337

  3-1-4  117.03701053   5-2-6  117.03701053

 NUCLEAR CHARGE:                   16
 NUMBER OF PRIMITIVE AOS:          72
 NUMBER OF SYMMETRY AOS:           70
 NUMBER OF CONTRACTIONS:           36   (   36A   )
 NUMBER OF CORE ORBITALS:           2   (    2A   )
 NUMBER OF VALENCE ORBITALS:       12   (   12A   )


 NUCLEAR REPULSION ENERGY   33.35697004

 EXTRA SYMMETRY OF AOS IN SYMMETRY 1:   1 1 1 2 1 1 2 1 1 1   2 2 1 1 1 1 1 2 1 1   2 1 1 1 2 2 1 1 1 1   1 1 1 1 1 1

 Eigenvalues of metric

         1 0.851E-02 0.171E-01 0.376E-01 0.460E-01 0.700E-01 0.197E+00 0.210E+00 0.227E+00


 Contracted 2-electron integrals neglected if value below      1.0D-11
 AO integral compression algorithm  1   Integral accuracy      1.0D-11

     0.786 MB (compressed) written to integral file ( 38.0%)


 NUMBER OF SORTED TWO-ELECTRON INTEGRALS:     222111.     BUFFER LENGTH:  32768
 NUMBER OF SEGMENTS:   1  SEGMENT LENGTH:     222111      RECORD LENGTH: 524288

 Memory used in sort:       0.78 MW

 SORT1 READ      284735. AND WROTE       98699. INTEGRALS IN      1 RECORDS. CPU TIME:     0.00 SEC, REAL TIME:     0.01 SEC
 SORT2 READ       98699. AND WROTE      222111. INTEGRALS IN      3 RECORDS. CPU TIME:     0.02 SEC, REAL TIME:     0.02 SEC

 FILE SIZES:   FILE 1:    30.9 MBYTE,  FILE 4:     4.2 MBYTE,   TOTAL:     35.1 MBYTE

 OPERATOR DM      FOR CENTER  0  COORDINATES:    0.000000    0.000000    0.000000


 **********************************************************************************************************************************
 DATASETS  * FILE   NREC   LENGTH (MB)   RECORD NAMES
              1      19       30.63       500      610      700      900      950      970     1000      129      960     1100   
                                          VAR    BASINP    GEOM    SYMINP    ZMAT    AOBASIS   BASIS     P2S    ABASIS      S 
                                         1400     1410     1200     1210     1080     1600     1650     1300     1700   
                                           T        V       H0       H01     AOSYM     SMH    MOLCAS    ERIS     OPER   

 PROGRAMS   *        TOTAL       INT
 CPU TIMES  *         0.29      0.21
 REAL TIME  *         0.48 SEC
 DISK USED  *        35.45 MB
 **********************************************************************************************************************************


 PROGRAM * RHF-SCF (CLOSED SHELL)       Authors: W. Meyer, H.-J. Werner


 NUMBER OF ELECTRONS:       8+    8-    SPACE SYMMETRY=1    SPIN SYMMETRY: Singlet 
 CONVERGENCE THRESHOLDS:    1.00E-05 (Density)    1.00E-07 (Energy)
 MAX. NUMBER OF ITERATIONS:       60
 INTERPOLATION TYPE:            DIIS
 INTERPOLATION STEPS:              2 (START)      1 (STEP)
 LEVEL SHIFTS:                  0.00 (CLOSED)  0.00 (OPEN) 



 Orbital guess generated from atomic densities. Full valence occupancy:    8

 Molecular orbital dump at record        2100.2

 Initial occupancy:   8

 ITERATION    DDIFF          GRAD             ENERGY        2-EL.EN.            DIPOLE MOMENTS         DIIS   ORB.
    1      0.000D+00      0.000D+00       -78.00630738    118.591407   -0.00000   -0.00000   -0.00000    0    start
    2      0.000D+00      0.852D-02       -78.02803217    116.796434   -0.00000   -0.00000   -0.00000    1    diag
    3      0.816D-02      0.287D-02       -78.03010053    117.412917    0.00000   -0.00000   -0.00000    2    diag
    4      0.259D-02      0.708D-03       -78.03030620    117.314156    0.00000   -0.00000    0.00000    3    diag
    5      0.105D-02      0.668D-04       -78.03030823    117.316988   -0.00000   -0.00000   -0.00000    4    diag
    6      0.143D-03      0.771D-05       -78.03030826    117.316573   -0.00000   -0.00000    0.00000    5    diag
    7      0.144D-04      0.113D-05       -78.03030826    117.316581    0.00000   -0.00000   -0.00000    6    diag
    8      0.166D-05      0.130D-06       -78.03030826    117.316575    0.00000   -0.00000    0.00000    0    orth

 Final occupancy:   8

 !RHF STATE  1.1 Energy               -78.030308259014
 Nuclear energy                        33.35697004
 One-electron energy                 -170.04556590
 Two-electron energy                   58.65828760
 Virial quotient                       -1.00014321
 !RHF STATE  1.1 Dipole moment          0.00000000    -0.00000000     0.00000000
 Dipole moment /Debye                   0.00000000    -0.00000000     0.00000000

 ELECTRON ORBITALS
 =================

  Orbital  Occupation    Energy     Coefficients
    1.1     2.00000   -11.22532     1 1s    0.70420     2 1s    0.70420
    2.1     2.00000   -11.22378     1 1s    0.70454     2 1s   -0.70454
    3.1     2.00000    -1.02522     1 1s    0.30175     2 1s    0.30175
    4.1     2.00000    -0.79378     1 1s    0.24125
    5.1     2.00000    -0.63976     1 2py   0.32185     2 2py   0.32185
    6.1     2.00000    -0.58077     1 2pz   0.40754     2 2pz  -0.40754
    7.1     2.00000    -0.50865     1 2py   0.30667     2 2py  -0.30667
    8.1     2.00000    -0.36721     1 2px   0.37242     1 2px   0.30957     2 2px   0.37242     2 2px   0.30957
    9.1     0.00000     0.17685     1 2px   0.34274     1 2px   0.72905     2 2px  -0.34274     2 2px  -0.72905
   10.1     0.00000     0.26665     1 1s   -1.50206     1 2pz  -0.64356     2 1s   -1.50206     2 2pz   0.64356     3 1s    1.04383
                                    4 1s    1.04368     5 1s    1.04368     6 1s    1.04383
   11.1     0.00000     0.29641     1 2py   0.25128     1 2py   0.81945     2 2py   0.25128     2 2py   0.81945     3 1s   -1.10494
                                    4 1s    1.12017     5 1s   -1.12017     6 1s    1.10494
   12.1     0.00000     0.31052     1 1s    1.95309     2 1s   -1.95309     3 1s   -1.08913     4 1s   -1.07069     5 1s    1.07069
                                    6 1s    1.08913
   13.1     0.00000     0.39084     1 2py  -1.88090     2 2py   1.88090     3 1s    1.64328     4 1s   -1.64006     5 1s   -1.64006
                                    6 1s    1.64328
   14.1     0.00000     0.48824     1 1s   -2.89117     1 2pz   2.90974     2 1s    2.89117     2 2pz   2.90974     3 1s   -0.59222
                                    4 1s   -0.58989     5 1s    0.58989     6 1s    0.59222
   15.1     0.00000     0.67126     1 1s    0.26366     1 2pz  -0.55754     1 2pz   1.03615     2 1s    0.26366     2 2pz   0.55754
                                    2 2pz  -1.03615
   16.1     0.00000     0.76125     1 2py  -0.39802     1 2py   0.78110     2 2py  -0.39802     2 2py   0.78110     3 1s   -0.38531
                                    4 1s    0.38474     5 1s   -0.38474     6 1s    0.38531
   17.1     0.00000     0.77908     1 2px  -0.74244     1 2px   0.63954     2 2px  -0.74244     2 2px   0.63954
   18.1     0.00000     0.86175     1 1s   -0.89125     1 1s    1.46403     1 2pz   0.31901     2 1s   -0.89125     2 1s    1.46403
                                    2 2pz  -0.31901     3 1s   -0.39287     4 1s   -0.39306     5 1s   -0.39306     6 1s   -0.39287
   19.1     0.00000     0.88965     1 2px  -0.81778     1 2px   1.07096     2 2px   0.81778     2 2px  -1.07096
   20.1     0.00000     0.94928     1 1s   -0.83154     1 2pz   0.60995     1 2pz  -0.49815     2 1s    0.83154     2 2pz   0.60995
                                    2 2pz  -0.49815     3 1s    0.37798     4 1s    0.37904     5 1s   -0.37904     6 1s   -0.37798
   21.1     0.00000     1.12206     1 2py  -0.69274     1 2py   1.10506     2 2py  -0.69274     2 2py   1.10506     3 1s    0.38144
                                    3 1s   -1.06287     4 1s   -0.38453     4 1s    1.06926     5 1s    0.38453     5 1s   -1.06926
                                    6 1s   -0.38144     6 1s    1.06287
   22.1     0.00000     1.16194     1 2py   0.92586     1 2py  -2.96698     2 2py  -0.92586     2 2py   2.96698     3 1s    1.52298
                                    4 1s   -1.53119     5 1s   -1.53119     6 1s    1.52298
   23.1     0.00000     1.21852     1 1s    1.03757     1 1s   -1.73249     1 2pz   0.36560     1 2pz  -0.49527     2 1s    1.03757
                                    2 1s   -1.73249     2 2pz  -0.36560     2 2pz   0.49527     3 1s   -0.44019     3 1s    0.87890
                                    4 1s   -0.44013     4 1s    0.85838     5 1s   -0.44013     5 1s    0.85838     6 1s   -0.44019
                                    6 1s    0.87890
   24.1     0.00000     1.22380     1 1s   -0.47974     1 1s    0.33991     1 2pz  -0.62817     1 2pz   1.28644     2 1s    0.47974
                                    2 1s   -0.33991     2 2pz  -0.62817     2 2pz   1.28644     3 1s    0.47798     3 1s   -0.96541
                                    4 1s    0.47522     4 1s   -0.95730     5 1s   -0.47522     5 1s    0.95730     6 1s   -0.47798
                                    6 1s    0.96541
   25.1     0.00000     1.33419     1 1s   -1.60776     1 1s    5.35947     1 2pz  -1.85691     2 1s    1.60776     2 1s   -5.35947
                                    2 2pz  -1.85691     3 1s   -0.36862     4 1s   -0.36763     5 1s    0.36763     6 1s    0.36862
   26.1     0.00000     1.47719     1 2py   2.52802     2 2py  -2.52802     3 1s   -0.69932     3 1s   -0.67294     4 1s    0.69822
                                    4 1s    0.67272     5 1s    0.69822     5 1s    0.67272     6 1s   -0.69932     6 1s   -0.67294
   27.1     0.00000     1.73664     1 3d1+  0.62008     2 3d1+ -0.62008
   28.1     0.00000     1.82375     1 3d2-  0.68194     2 3d2-  0.68194
   29.1     0.00000     2.12387     1 3d2-  0.73529     2 3d2- -0.73529
   30.1     0.00000     2.21424     1 1s   -0.61131     1 3d2+  0.71067     2 1s   -0.61131     2 3d2+  0.71067     3 1s    0.37263
                                    4 1s    0.37237     5 1s    0.37237     6 1s    0.37263
   31.1     0.00000     2.33516     1 2py   0.27792     1 3d1-  0.69439     2 2py   0.27792     2 3d1- -0.69439     3 1s   -0.52209
                                    4 1s    0.52242     5 1s   -0.52242     6 1s    0.52209
   32.1     0.00000     2.40136     1 1s   -0.50130     1 2pz   0.27793     1 2pz  -0.44757     1 3d0   0.68293     2 1s   -0.50130
                                    2 2pz  -0.27793     2 2pz   0.44757     2 3d0   0.68293
   33.1     0.00000     2.63015     1 1s    0.28774     1 1s   -1.35424     1 2pz   0.28086     1 3d2+  0.79998     2 1s   -0.28774
                                    2 1s    1.35424     2 2pz   0.28086     2 3d2+ -0.79998     3 1s    0.45047     4 1s    0.44839
                                    5 1s   -0.44839     6 1s   -0.45047
   34.1     0.00000     2.70005     1 2px  -0.26307     1 3d1+  0.89790     2 2px   0.26307     2 3d1+  0.89790
   35.1     0.00000     3.05331     1 1s    0.29173     1 1s    2.00758     1 2pz  -0.77593     1 2pz  -1.17278     1 3d0   1.10674
                                    2 1s   -0.29173     2 1s   -2.00758     2 2pz  -0.77593     2 2pz  -1.17278     2 3d0  -1.10674
   36.1     0.00000     3.05694     1 2py   0.58098     1 3d1-  0.96654     2 2py  -0.58098     2 3d1-  0.96654     3 1s   -0.48353
                                    4 1s    0.48196     5 1s    0.48196     6 1s   -0.48353


 HOMO      8.1    -0.367205 =      -9.9922eV
 LUMO      9.1     0.176854 =       4.8124eV
 LUMO-HOMO         0.544059 =      14.8046eV


 **********************************************************************************************************************************
 DATASETS  * FILE   NREC   LENGTH (MB)   RECORD NAMES
              1      19       30.63       500      610      700      900      950      970     1000      129      960     1100   
                                          VAR    BASINP    GEOM    SYMINP    ZMAT    AOBASIS   BASIS     P2S    ABASIS      S 
                                         1400     1410     1200     1210     1080     1600     1650     1300     1700   
                                           T        V       H0       H01     AOSYM     SMH    MOLCAS    ERIS     OPER   

              2       4        2.86       700     1000      520     2100   
                                         GEOM     BASIS   MCVARS     RHF  

 PROGRAMS   *        TOTAL    HF-SCF       INT
 CPU TIMES  *         0.38      0.09      0.21
 REAL TIME  *         0.63 SEC
 DISK USED  *        35.45 MB
 **********************************************************************************************************************************


 PROGRAM * MULTI (Direct Multiconfiguration SCF)       Authors: P.J. Knowles, H.-J. Werner (1984)


 Number of closed-shell orbitals:   7 (   7 )
 Number of active  orbitals:        2 (   2 )
 Number of external orbitals:      27 (  27 )

 State symmetry 1

 Number of electrons:     2    Spin symmetry=Singlet   Space symmetry=1
 Number of states:        3
 Number of CSFs:          3   (4 determinants, 4 intermediate states)

 Molecular orbitals read from record     2100.2  Type=RHF/CANONICAL (state 1.1)

 EXTRA SYMMETRY OF MOS IN SYMMETRY 1:   1 1 1 1 1 1 1 2 2 1   1 1 1 1 1 1 2 1 2 1   1 1 1 1 1 1 2 2 2 1   1 1 1 2 1 1

 Wavefunction dump at record             2140.2

 Convergence thresholds  0.10E-01 (gradient)  0.10E-05 (energy)  0.10E-02 (step length)

 Weight factors for state symmetry  1:    0.33333   0.33333   0.33333

 Number of orbital rotations:      257   (    14 Core/Active    189 Core/Virtual   0 Active/Active     54 Active/Virtual)
 Total number of variables:        269

 Micro-Iterations solved by the two-step solver

 ITER. MIC  NCI  NEG     ENERGY(VAR)     ENERGY(PROJ)   ENERGY CHANGE     GRAD(0)  GRAD(ORB)   GRAD(CI)     STEP       TIME

   1    3    3    0     -77.73218399     -77.73828216   -0.00609816    0.13095942 0.00000144 0.00000000  0.62D-01      0.06
   2    2    3    0     -77.73818803     -77.73819157   -0.00000354    0.00295216 0.00000174 0.00000000  0.16D-02      0.09
   3    2    3    0     -77.73819157     -77.73819157   -0.00000000    0.00000202 0.00000000 0.00000000  0.12D-05      0.12

 ** WVFN ****  CONVERGENCE REACHED, FINAL GRADIENT:  0.11D-11



 Results for state 1.1
 =====================

 !MCSCF STATE  1.1 Energy             -78.048444645355
 Nuclear energy                        33.35697004
 Kinetic energy                        78.08419779
 One electron energy                 -170.16932122
 Two electron energy                   58.76390653
 Virial ratio                           1.99954212

 !MCSCF STATE  1.1 Dipole moment        0.00000000    -0.00000000     0.00000000
 Dipole moment /Debye                   0.00000000    -0.00000000     0.00000000

 Results for state 2.1
 =====================

 !MCSCF STATE  2.1 Energy             -77.674511650092
 Nuclear energy                        33.35697004
 Kinetic energy                        78.26727906
 One electron energy                 -169.61169627
 Two electron energy                   58.58021458
 Virial ratio                           1.99242637

 !MCSCF STATE  2.1 Dipole moment        0.00000000    -0.00000000     0.00000000
 Dipole moment /Debye                   0.00000000    -0.00000000     0.00000000

 Results for state 3.1
 =====================

 !MCSCF STATE  3.1 Energy             -77.491618414843
 Nuclear energy                        33.35697004
 Kinetic energy                        78.45036034
 One electron energy                 -169.05407131
 Two electron energy                   58.20548286
 Virial ratio                           1.98777900

 !MCSCF STATE  3.1 Dipole moment        0.00000000    -0.00000000    -0.00000000
 Dipole moment /Debye                   0.00000000    -0.00000000    -0.00000000

 State-averaged charge density matrix saved on record  2140.2 (density set 1)

 !MCSCF trans         <2.1|DMY|1.1>    -0.000024313220 au =    -0.000061793995 Debye
 !MCSCF trans         <3.1|DMY|2.1>    -0.000036817236 au =    -0.000093573951 Debye

 !MCSCF trans         <2.1|DMZ|1.1>    -1.511225422556 au =    -3.840900309459 Debye
 !MCSCF trans         <3.1|DMZ|2.1>    -2.288431653637 au =    -5.816232122252 Debye


 NATURAL ORBITALS (state averaged)
 =================================

  Orbital  Occupation    Energy     Coefficients
    1.1     2.00000   -11.24053     1 1s    0.70421     2 1s    0.70421
    2.1     2.00000   -11.23926     1 1s    0.70450     2 1s   -0.70450
    3.1     2.00000    -1.03947     1 1s    0.30972     2 1s    0.30972
    4.1     2.00000    -0.80146     1 1s    0.28579     2 1s   -0.28579
    5.1     2.00000    -0.65233     1 2py   0.32736     2 2py   0.32736
    6.1     2.00000    -0.59580     1 2pz   0.40932     2 2pz  -0.40932
    7.1     2.00000    -0.51517     1 2py   0.31299     2 2py  -0.31299
    8.1     1.00000     0.03231     1 2px   0.38015     1 2px   0.68283     2 2px  -0.38015     2 2px  -0.68283
    9.1     1.00000    -0.22374     1 2px   0.35689     1 2px   0.32109     2 2px   0.35689     2 2px   0.32109
   10.1    -0.00000     0.26393     1 1s   -1.49812     1 2pz  -0.64947     2 1s   -1.49812     2 2pz   0.64947     3 1s    1.04328
                                    4 1s    1.04330     5 1s    1.04330     6 1s    1.04328
   11.1    -0.00000     0.28815     1 2py   0.81023     2 2py   0.81023     3 1s   -1.09854     4 1s    1.10997     5 1s   -1.10997
                                    6 1s    1.09854
   12.1    -0.00000     0.30747     1 1s    1.97747     2 1s   -1.97747     3 1s   -1.08152     4 1s   -1.06705     5 1s    1.06705
                                    6 1s    1.08152
   13.1    -0.00000     0.38681     1 2py  -0.25008     1 2py  -1.86697     2 2py   0.25008     2 2py   1.86697     3 1s    1.63668
                                    4 1s   -1.63335     5 1s   -1.63335     6 1s    1.63668
   14.1    -0.00000     0.48544     1 1s   -2.86761     1 2pz   2.89112     2 1s    2.86761     2 2pz   2.89112     3 1s   -0.60192
                                    4 1s   -0.59963     5 1s    0.59963     6 1s    0.60192
   15.1    -0.00000     0.66026     1 2pz  -0.55025     1 2pz   1.01308     2 2pz   0.55025     2 2pz  -1.01308
   16.1    -0.00000     0.75076     1 2py  -0.40910     1 2py   0.78769     2 2py  -0.40910     2 2py   0.78769     3 1s   -0.38086
                                    4 1s    0.38025     5 1s   -0.38025     6 1s    0.38086
   17.1    -0.00000     0.77313     1 2px  -0.74915     1 2px   0.63417     2 2px  -0.74915     2 2px   0.63417
   18.1    -0.00000     0.85877     1 1s   -0.88499     1 1s    1.48980     1 2pz   0.36721     2 1s   -0.88499     2 1s    1.48980
                                    2 2pz  -0.36721     3 1s   -0.39498     4 1s   -0.39517     5 1s   -0.39517     6 1s   -0.39498
   19.1    -0.00000     0.87229     1 2px  -0.80235     1 2px   1.10084     2 2px   0.80235     2 2px  -1.10084
   20.1    -0.00000     0.93058     1 1s   -0.67673     1 2pz   0.61381     1 2pz  -0.58045     2 1s    0.67673     2 2pz   0.61381
                                    2 2pz  -0.58045     3 1s    0.37847     4 1s    0.37954     5 1s   -0.37954     6 1s   -0.37847
   21.1    -0.00000     1.10673     1 2py  -0.68143     1 2py   1.10694     2 2py  -0.68143     2 2py   1.10694     3 1s    0.38217
                                    3 1s   -1.07217     4 1s   -0.38488     4 1s    1.07771     5 1s    0.38488     5 1s   -1.07771
                                    6 1s   -0.38217     6 1s    1.07217
   22.1    -0.00000     1.14961     1 2py   0.92298     1 2py  -2.97164     2 2py  -0.92298     2 2py   2.97164     3 1s    1.53142
                                    4 1s   -1.53827     5 1s   -1.53827     6 1s    1.53142
   23.1    -0.00000     1.21539     1 1s    1.03268     1 1s   -1.72850     1 2pz   0.36935     1 2pz  -0.50093     2 1s    1.03268
                                    2 1s   -1.72850     2 2pz  -0.36935     2 2pz   0.50093     3 1s   -0.44058     3 1s    0.87728
                                    4 1s   -0.44075     4 1s    0.85906     5 1s   -0.44075     5 1s    0.85906     6 1s   -0.44058
                                    6 1s    0.87728
   24.1    -0.00000     1.22120     1 1s   -0.40262     1 2pz  -0.64276     1 2pz   1.37505     2 1s    0.40262     2 2pz  -0.64276
                                    2 2pz   1.37505     3 1s    0.48048     3 1s   -0.94626     4 1s    0.47808     4 1s   -0.93904
                                    5 1s   -0.47808     5 1s    0.93904     6 1s   -0.48048     6 1s    0.94626
   25.1    -0.00000     1.31500     1 1s   -1.63070     1 1s    5.38184     1 2pz  -1.79136     2 1s    1.63070     2 1s   -5.38184
                                    2 2pz  -1.79136     3 1s   -0.41645     4 1s   -0.41523     5 1s    0.41523     6 1s    0.41645
   26.1    -0.00000     1.46860     1 2py   2.53161     2 2py  -2.53161     3 1s   -0.69815     3 1s   -0.67420     4 1s    0.69704
                                    4 1s    0.67401     5 1s    0.69704     5 1s    0.67401     6 1s   -0.69815     6 1s   -0.67420
   27.1    -0.00000     1.71139     1 3d1+  0.61983     2 3d1+ -0.61983
   28.1    -0.00000     1.81020     1 3d2-  0.68194     2 3d2-  0.68194
   29.1    -0.00000     2.10110     1 3d2-  0.73529     2 3d2- -0.73529
   30.1    -0.00000     2.19909     1 1s   -0.60713     1 3d2+  0.71002     2 1s   -0.60713     2 3d2+  0.71002     3 1s    0.37433
                                    4 1s    0.37407     5 1s    0.37407     6 1s    0.37433
   31.1    -0.00000     2.31925     1 2py   0.28478     1 3d1-  0.69263     2 2py   0.28478     2 3d1- -0.69263     3 1s   -0.52546
                                    4 1s    0.52581     5 1s   -0.52581     6 1s    0.52546
   32.1    -0.00000     2.38147     1 1s   -0.49925     1 2pz   0.28364     1 2pz  -0.45054     1 3d0   0.68255     2 1s   -0.49925
                                    2 2pz  -0.28364     2 2pz   0.45054     2 3d0   0.68255
   33.1    -0.00000     2.61074     1 1s    0.28856     1 1s   -1.36002     1 2pz   0.27969     1 3d2+  0.79923     2 1s   -0.28856
                                    2 1s    1.36002     2 2pz   0.27969     2 3d2+ -0.79923     3 1s    0.45354     4 1s    0.45143
                                    5 1s   -0.45143     6 1s   -0.45354
   34.1    -0.00000     2.67775     1 2px  -0.26378     1 3d1+  0.89828     2 2px   0.26378     2 3d1+  0.89828
   35.1    -0.00000     3.03563     1 1s    0.28471     1 1s    2.03274     1 2pz  -0.76848     1 2pz  -1.18591     1 3d0   1.10833
                                    2 1s   -0.28471     2 1s   -2.03274     2 2pz  -0.76848     2 2pz  -1.18591     2 3d0  -1.10833
   36.1    -0.00000     3.04436     1 2py   0.58119     1 3d1-  0.96614     2 2py  -0.58119     2 3d1-  0.96614     3 1s   -0.48583
                                    4 1s    0.48426     5 1s    0.48426     6 1s   -0.48583


 Natural orbital dump (state averaged) at molpro section  2140.2    (Orbital set 2)



 **********************************************************************************************************************************
 DATASETS  * FILE   NREC   LENGTH (MB)   RECORD NAMES
              1      20       31.36       500      610      700      900      950      970     1000      129      960     1100   
                                          VAR    BASINP    GEOM    SYMINP    ZMAT    AOBASIS   BASIS     P2S    ABASIS      S 
                                         1400     1410     1200     1210     1080     1600     1650     1300     1700     1380   
                                           T        V       H0       H01     AOSYM     SMH    MOLCAS    ERIS     OPER     JKOP   

              2       5        5.42       700     1000      520     2100     2140   
                                         GEOM     BASIS   MCVARS     RHF     MCSCF   

 PROGRAMS   *        TOTAL     MULTI    HF-SCF       INT
 CPU TIMES  *         0.53      0.15      0.09      0.21
 REAL TIME  *         0.82 SEC
 DISK USED  *        38.55 MB
 **********************************************************************************************************************************
 Molecular orbitals read from record     2140.2  Type=MCSCF/NATURAL (state averaged)
 Occupation numbers read from record     2140.2  Type=MCSCF/NATURAL (state averaged)
 Orbital energies read from record       2140.2  Type=MCSCF/NATURAL (state averaged)
 Redundancy group numbers read from rec  2140.2  Type=MCSCF/NATURAL (state averaged)

 MULTI/6-31G* energy=    -77.491618414843

           MULTI          HF-SCF
    -77.49161841    -78.03030826
 **********************************************************************************************************************************
 Molpro calculation terminated
