
 Primary working directories    : /scratch.local/johan406.molpro_temp/molpro.UXt6nNzVRE
 Secondary working directories  : /scratch.local/johan406.molpro_temp/molpro.UXt6nNzVRE
 Wavefunction directory         : /home/goodpast/johan406/wfu/
 Main file repository           : /scratch.local/johan406.molpro_temp/molpro.UXt6nNzVRE/

 id        : roweumn

 Nodes     nprocs
 cn0416       1

 Using customized tuning parameters: mindgm=1; mindgv=20; mindgc=4; mindgr=1; noblas=0; minvec=7
 default implementation of scratch files=df  


 Variables initialized (934), CPU time= 0.00 sec
                                                                                 !leave this line blank
 
 gprint, orbitals=30
 memory, 125., m
 symmetry, nosym
 nelect=16
 basis=6-31g*
 
 geometry={
 C 0.000 0.000 0.681
 C 0.000 -0.000 -0.681
 H 0.000 0.917 1.228
 H 0.000 -0.917 1.228
 H 0.000 0.917 -1.228
 H 0.000 -0.917 -1.228
 }
 
 hf
 {multi,
 closed 7
 occ 9
 wf,spin=0;STATE,3
 }
 
 Commands  initialized (763), CPU time= 0.01 sec, 617 directives.
 Default parameters read. Elapsed time= 0.05 sec

 Checking input...
 Passed
1


                                         ***  PROGRAM SYSTEM MOLPRO  ***
                                       Copyright, TTI GmbH Stuttgart, 2015
                                    Version 2019.2 linked Oct 25 2019 22:50:27


 **********************************************************************************************************************************
 LABEL *                                                                                 
  64 bit serial version                                                                  DATE: 15-Mar-23          TIME: 16:17:47  
 **********************************************************************************************************************************

 SHA1:             8dbd9ae1082e4ce945b0f27595c9eb2d4aa09004
 **********************************************************************************************************************************


 Variable memory set to  125000000 words,  buffer space 

 SETTING NELECT         =        16.00000000                                  
 SETTING BASIS          =    6-31G*
 ZSYMEL=NOSYM


Geometry recognized as XYZ



 Recomputing integrals since basis changed


 Using spherical harmonics

 Library entry C      S 6-31G                selected for orbital group  1
 Library entry C      P 6-31G                selected for orbital group  1
 Library entry C      D 6-31G*               selected for orbital group  1
 Library entry H      S 6-31G                selected for orbital group  2


 PROGRAM * SEWARD (Integral evaluation for generally contracted gaussian basis sets)     Author: Roland Lindh, 1990

 Geometry written to block  1 of record 700


 Point group  C1  



 ATOMIC COORDINATES

 NR  ATOM    CHARGE       X              Y              Z

   1  C       6.00    0.000000000    0.000000000    1.286903491
   2  C       6.00    0.000000000   -0.000000000   -1.286903491
   3  H       1.00    0.000000000    1.732878856    2.320583681
   4  H       1.00    0.000000000   -1.732878856    2.320583681
   5  H       1.00    0.000000000    1.732878856   -2.320583681
   6  H       1.00    0.000000000   -1.732878856   -2.320583681

 Bond lengths in Bohr (Angstrom)

 1-2  2.573806982  1-3  2.017762093  1-4  2.017762093  2-5  2.017762093  2-6  2.017762093
     ( 1.362000000)     ( 1.067753717)     ( 1.067753717)     ( 1.067753717)     ( 1.067753717)

 Bond angles

  1-2-5  120.81651425   1-2-6  120.81651425   2-1-3  120.81651425   2-1-4  120.81651425

  3-1-4  118.36697150   5-2-6  118.36697150

 NUCLEAR CHARGE:                   16
 NUMBER OF PRIMITIVE AOS:          72
 NUMBER OF SYMMETRY AOS:           70
 NUMBER OF CONTRACTIONS:           36   (   36A   )
 NUMBER OF CORE ORBITALS:           2   (    2A   )
 NUMBER OF VALENCE ORBITALS:       12   (   12A   )


 NUCLEAR REPULSION ENERGY   33.23155517

 EXTRA SYMMETRY OF AOS IN SYMMETRY 1:   1 1 1 2 1 1 2 1 1 1   3 2 1 1 1 1 1 2 1 1   2 1 1 1 3 2 1 1 1 1   1 1 1 1 1 1

 Eigenvalues of metric

         1 0.889E-02 0.168E-01 0.378E-01 0.466E-01 0.684E-01 0.208E+00 0.211E+00 0.230E+00


 Contracted 2-electron integrals neglected if value below      1.0D-11
 AO integral compression algorithm  1   Integral accuracy      1.0D-11

     0.786 MB (compressed) written to integral file ( 37.8%)


 NUMBER OF SORTED TWO-ELECTRON INTEGRALS:     222111.     BUFFER LENGTH:  32768
 NUMBER OF SEGMENTS:   1  SEGMENT LENGTH:     222111      RECORD LENGTH: 524288

 Memory used in sort:       0.78 MW

 SORT1 READ      284735. AND WROTE       98271. INTEGRALS IN      1 RECORDS. CPU TIME:     0.00 SEC, REAL TIME:     0.01 SEC
 SORT2 READ       98271. AND WROTE      222111. INTEGRALS IN      3 RECORDS. CPU TIME:     0.02 SEC, REAL TIME:     0.02 SEC

 FILE SIZES:   FILE 1:    30.9 MBYTE,  FILE 4:     4.2 MBYTE,   TOTAL:     35.1 MBYTE

 OPERATOR DM      FOR CENTER  0  COORDINATES:    0.000000    0.000000    0.000000


 **********************************************************************************************************************************
 DATASETS  * FILE   NREC   LENGTH (MB)   RECORD NAMES
              1      19       30.63       500      610      700      900      950      970     1000      129      960     1100   
                                          VAR    BASINP    GEOM    SYMINP    ZMAT    AOBASIS   BASIS     P2S    ABASIS      S 
                                         1400     1410     1200     1210     1080     1600     1650     1300     1700   
                                           T        V       H0       H01     AOSYM     SMH    MOLCAS    ERIS     OPER   

 PROGRAMS   *        TOTAL       INT
 CPU TIMES  *         0.31      0.21
 REAL TIME  *         0.48 SEC
 DISK USED  *        35.45 MB
 **********************************************************************************************************************************


 PROGRAM * RHF-SCF (CLOSED SHELL)       Authors: W. Meyer, H.-J. Werner


 NUMBER OF ELECTRONS:       8+    8-    SPACE SYMMETRY=1    SPIN SYMMETRY: Singlet 
 CONVERGENCE THRESHOLDS:    1.00E-05 (Density)    1.00E-07 (Energy)
 MAX. NUMBER OF ITERATIONS:       60
 INTERPOLATION TYPE:            DIIS
 INTERPOLATION STEPS:              2 (START)      1 (STEP)
 LEVEL SHIFTS:                  0.00 (CLOSED)  0.00 (OPEN) 



 Orbital guess generated from atomic densities. Full valence occupancy:    8

 Molecular orbital dump at record        2100.2

 Initial occupancy:   8

 ITERATION    DDIFF          GRAD             ENERGY        2-EL.EN.            DIPOLE MOMENTS         DIIS   ORB.
    1      0.000D+00      0.000D+00       -78.00533020    118.282624   -0.00000    0.00000   -0.00000    0    start
    2      0.000D+00      0.837D-02       -78.02655807    116.574481    0.00000    0.00000    0.00000    1    diag
    3      0.805D-02      0.277D-02       -78.02851663    117.164092   -0.00000   -0.00000   -0.00000    2    diag
    4      0.252D-02      0.698D-03       -78.02871508    117.065082   -0.00000    0.00000   -0.00000    3    diag
    5      0.103D-02      0.649D-04       -78.02871700    117.067798   -0.00000   -0.00000    0.00000    4    diag
    6      0.139D-03      0.702D-05       -78.02871702    117.067411    0.00000   -0.00000   -0.00000    5    diag
    7      0.127D-04      0.104D-05       -78.02871702    117.067419   -0.00000    0.00000   -0.00000    6    diag
    8      0.143D-05      0.112D-06       -78.02871702    117.067414   -0.00000    0.00000   -0.00000    0    orth

 Final occupancy:   8

 !RHF STATE  1.1 Energy               -78.028717018897
 Nuclear energy                        33.23155517
 One-electron energy                 -169.79397935
 Two-electron energy                   58.53370717
 Virial quotient                       -1.00035553
 !RHF STATE  1.1 Dipole moment         -0.00000000     0.00000000    -0.00000000
 Dipole moment /Debye                  -0.00000000     0.00000000    -0.00000000

 ELECTRON ORBITALS
 =================

  Orbital  Occupation    Energy     Coefficients
    1.1     2.00000   -11.22629     1 1s    0.70422     2 1s    0.70422
    2.1     2.00000   -11.22487     1 1s    0.70452     2 1s   -0.70452
    3.1     2.00000    -1.02171     1 1s    0.30087     2 1s    0.30087
    4.1     2.00000    -0.79567     2 1s   -0.24174
    5.1     2.00000    -0.64199     1 2py   0.32177     2 2py   0.32177
    6.1     2.00000    -0.57540     1 2pz   0.40789     2 2pz  -0.40789
    7.1     2.00000    -0.51418     1 2py   0.30879     2 2py  -0.30879
    8.1     2.00000    -0.36316     1 2px   0.37070     1 2px   0.31284     2 2px   0.37070     2 2px   0.31284
    9.1     0.00000     0.17334     1 2px   0.34418     1 2px   0.71922     2 2px  -0.34418     2 2px  -0.71922
   10.1     0.00000     0.26604     1 1s   -1.50230     1 2pz  -0.63109     2 1s   -1.50230     2 2pz   0.63109     3 1s    1.04187
                                    4 1s    1.04187     5 1s    1.04187     6 1s    1.04187
   11.1     0.00000     0.29927     1 2py  -0.25002     1 2py  -0.83812     2 2py  -0.25002     2 2py  -0.83812     3 1s    1.13011
                                    4 1s   -1.13011     5 1s    1.13011     6 1s   -1.13011
   12.1     0.00000     0.31189     1 1s    1.97439     2 1s   -1.97439     3 1s   -1.08263     4 1s   -1.08263     5 1s    1.08263
                                    6 1s    1.08263
   13.1     0.00000     0.38955     1 2py  -1.88076     2 2py   1.88076     3 1s    1.65420     4 1s   -1.65420     5 1s   -1.65420
                                    6 1s    1.65420
   14.1     0.00000     0.48235     1 1s   -2.69993     1 2pz   2.80567     2 1s    2.69993     2 2pz   2.80567     3 1s   -0.57976
                                    4 1s   -0.57976     5 1s    0.57976     6 1s    0.57976
   15.1     0.00000     0.67479     1 1s    0.29359     1 2pz  -0.55994     1 2pz   1.02725     2 1s    0.29359     2 2pz   0.55994
                                    2 2pz  -1.02725
   16.1     0.00000     0.76091     1 2py  -0.39718     1 2py   0.80081     2 2py  -0.39718     2 2py   0.80081     3 1s   -0.38277
                                    4 1s    0.38277     5 1s   -0.38277     6 1s    0.38277
   17.1     0.00000     0.78259     1 2px  -0.74608     1 2px   0.63956     2 2px  -0.74608     2 2px   0.63956
   18.1     0.00000     0.86017     1 1s   -0.89566     1 1s    1.44481     1 2pz   0.26808     2 1s   -0.89566     2 1s    1.44481
                                    2 2pz  -0.26808     3 1s   -0.38838     4 1s   -0.38838     5 1s   -0.38838     6 1s   -0.38838
   19.1     0.00000     0.88788     1 2px  -0.81617     1 2px   1.06519     2 2px   0.81617     2 2px  -1.06519
   20.1     0.00000     0.93945     1 1s   -0.76042     1 2pz   0.62419     1 2pz  -0.54151     2 1s    0.76042     2 2pz   0.62419
                                    2 2pz  -0.54151     3 1s    0.36777     4 1s    0.36777     5 1s   -0.36777     6 1s   -0.36777
   21.1     0.00000     1.13150     1 2py   0.69879     1 2py  -1.11192     2 2py   0.69879     2 2py  -1.11192     3 1s   -0.38542
                                    3 1s    1.06861     4 1s    0.38542     4 1s   -1.06861     5 1s   -0.38542     5 1s    1.06861
                                    6 1s    0.38542     6 1s   -1.06861
   22.1     0.00000     1.16306     1 2py   0.92628     1 2py  -2.99241     2 2py  -0.92628     2 2py   2.99241     3 1s    1.55064
                                    4 1s   -1.55064     5 1s   -1.55064     6 1s    1.55064
   23.1     0.00000     1.21908     1 1s    1.04124     1 1s   -1.74186     1 2pz   0.36303     1 2pz  -0.49091     2 1s    1.04124
                                    2 1s   -1.74186     2 2pz  -0.36303     2 2pz   0.49091     3 1s   -0.43840     3 1s    0.87052
                                    4 1s   -0.43840     4 1s    0.87052     5 1s   -0.43840     5 1s    0.87052     6 1s   -0.43840
                                    6 1s    0.87052
   24.1     0.00000     1.22217     1 1s   -0.38133     1 2pz  -0.62817     1 2pz   1.38634     2 1s    0.38133     2 2pz  -0.62817
                                    2 2pz   1.38634     3 1s    0.48824     3 1s   -0.93904     4 1s    0.48824     4 1s   -0.93904
                                    5 1s   -0.48824     5 1s    0.93904     6 1s   -0.48824     6 1s    0.93904
   25.1     0.00000     1.32652     1 1s   -1.63531     1 1s    5.29725     1 2pz  -1.74382     2 1s    1.63531     2 1s   -5.29725
                                    2 2pz  -1.74382     3 1s   -0.43638     4 1s   -0.43638     5 1s    0.43638     6 1s    0.43638
   26.1     0.00000     1.48617     1 2py   2.52342     2 2py  -2.52342     3 1s   -0.70195     3 1s   -0.68534     4 1s    0.70195
                                    4 1s    0.68534     5 1s    0.70195     5 1s    0.68534     6 1s   -0.70195     6 1s   -0.68534
   27.1     0.00000     1.73214     1 3d1+  0.62224     2 3d1+ -0.62224
   28.1     0.00000     1.82785     1 3d2-  0.68337     2 3d2-  0.68337
   29.1     0.00000     2.11605     1 3d2-  0.73350     2 3d2- -0.73350
   30.1     0.00000     2.22367     1 1s    0.25523     1 1s   -0.61351     1 3d2+  0.69919     2 1s    0.25523     2 1s   -0.61351
                                    2 3d2+  0.69919     3 1s    0.36090     4 1s    0.36090     5 1s    0.36090     6 1s    0.36090
   31.1     0.00000     2.33427     1 2py   0.27435     1 3d1-  0.69774     2 2py   0.27435     2 3d1- -0.69774     3 1s   -0.52562
                                    4 1s    0.52562     5 1s   -0.52562     6 1s    0.52562
   32.1     0.00000     2.39036     1 1s   -0.48255     1 2pz   0.26648     1 2pz  -0.44691     1 3d0   0.66542     2 1s   -0.48255
                                    2 2pz  -0.26648     2 2pz   0.44691     2 3d0   0.66542
   33.1     0.00000     2.63603     1 1s    0.28373     1 1s   -1.37934     1 2pz   0.30917     1 3d2+  0.80105     2 1s   -0.28373
                                    2 1s    1.37934     2 2pz   0.30917     2 3d2+ -0.80105     3 1s    0.45668     4 1s    0.45668
                                    5 1s   -0.45668     6 1s   -0.45668
   34.1     0.00000     2.68365     1 2px  -0.26013     1 3d1+  0.88838     2 2px   0.26013     2 3d1+  0.88838
   35.1     0.00000     3.03243     1 2py   0.60135     1 3d1-  0.95511     2 2py  -0.60135     2 3d1-  0.95511     3 1s   -0.48570
                                    4 1s    0.48570     5 1s    0.48570     6 1s   -0.48570
   36.1     0.00000     3.03650     1 1s    1.96740     1 2pz  -0.73564     1 2pz  -1.15624     1 3d0   1.09604     2 1s   -1.96740
                                    2 2pz  -0.73564     2 2pz  -1.15624     2 3d0  -1.09604


 HOMO      8.1    -0.363162 =      -9.8822eV
 LUMO      9.1     0.173336 =       4.7167eV
 LUMO-HOMO         0.536499 =      14.5989eV


 **********************************************************************************************************************************
 DATASETS  * FILE   NREC   LENGTH (MB)   RECORD NAMES
              1      19       30.63       500      610      700      900      950      970     1000      129      960     1100   
                                          VAR    BASINP    GEOM    SYMINP    ZMAT    AOBASIS   BASIS     P2S    ABASIS      S 
                                         1400     1410     1200     1210     1080     1600     1650     1300     1700   
                                           T        V       H0       H01     AOSYM     SMH    MOLCAS    ERIS     OPER   

              2       4        2.86       700     1000      520     2100   
                                         GEOM     BASIS   MCVARS     RHF  

 PROGRAMS   *        TOTAL    HF-SCF       INT
 CPU TIMES  *         0.40      0.10      0.21
 REAL TIME  *         0.63 SEC
 DISK USED  *        35.45 MB
 **********************************************************************************************************************************


 PROGRAM * MULTI (Direct Multiconfiguration SCF)       Authors: P.J. Knowles, H.-J. Werner (1984)


 Number of closed-shell orbitals:   7 (   7 )
 Number of active  orbitals:        2 (   2 )
 Number of external orbitals:      27 (  27 )

 State symmetry 1

 Number of electrons:     2    Spin symmetry=Singlet   Space symmetry=1
 Number of states:        3
 Number of CSFs:          3   (4 determinants, 4 intermediate states)

 Molecular orbitals read from record     2100.2  Type=RHF/CANONICAL (state 1.1)

 EXTRA SYMMETRY OF MOS IN SYMMETRY 1:   1 1 1 1 1 1 1 2 2 1   1 1 1 1 1 1 2 1 2 1   1 1 1 1 1 1 2 3 3 1   1 1 1 2 1 1

 Wavefunction dump at record             2140.2

 Convergence thresholds  0.10E-01 (gradient)  0.10E-05 (energy)  0.10E-02 (step length)

 Weight factors for state symmetry  1:    0.33333   0.33333   0.33333

 Number of orbital rotations:      257   (    14 Core/Active    189 Core/Virtual   0 Active/Active     54 Active/Virtual)
 Total number of variables:        269

 Micro-Iterations solved by the two-step solver

 ITER. MIC  NCI  NEG     ENERGY(VAR)     ENERGY(PROJ)   ENERGY CHANGE     GRAD(0)  GRAD(ORB)   GRAD(CI)     STEP       TIME

   1    3    3    0     -77.73663858     -77.74244835   -0.00580976    0.12758696 0.00000127 0.00000000  0.61D-01      0.05
   2    2    3    0     -77.74236261     -77.74236573   -0.00000312    0.00277469 0.00000153 0.00000000  0.15D-02      0.09
   3    2    3    0     -77.74236573     -77.74236573   -0.00000000    0.00000177 0.00000000 0.00000000  0.11D-05      0.12

 ** WVFN ****  CONVERGENCE REACHED, FINAL GRADIENT:  0.84D-12



 Results for state 1.1
 =====================

 !MCSCF STATE  1.1 Energy             -78.047806978555
 Nuclear energy                        33.23155517
 Kinetic energy                        78.05970317
 One electron energy                 -169.90119925
 Two electron energy                   58.62183711
 Virial ratio                           1.99984760

 !MCSCF STATE  1.1 Dipole moment        0.00000000     0.00000000     0.00000000
 Dipole moment /Debye                   0.00000000     0.00000000     0.00000000

 Results for state 2.1
 =====================

 !MCSCF STATE  2.1 Energy             -77.677828153073
 Nuclear energy                        33.23155517
 Kinetic energy                        78.24848962
 One electron energy                 -169.37514160
 Two electron energy                   58.46575828
 Virial ratio                           1.99270706

 !MCSCF STATE  2.1 Dipole moment        0.00000000     0.00000000     0.00000000
 Dipole moment /Debye                   0.00000000     0.00000000     0.00000000

 Results for state 3.1
 =====================

 !MCSCF STATE  3.1 Energy             -77.501462063666
 Nuclear energy                        33.23155517
 Kinetic energy                        78.43727606
 One electron energy                 -168.84908394
 Two electron energy                   58.11606671
 Virial ratio                           1.98806927

 !MCSCF STATE  3.1 Dipole moment        0.00000000     0.00000000    -0.00000000
 Dipole moment /Debye                   0.00000000     0.00000000    -0.00000000

 State-averaged charge density matrix saved on record  2140.2 (density set 1)

 !MCSCF trans         <2.1|DMZ|1.1>    -1.512466388823 au =    -3.844054324504 Debye
 !MCSCF trans         <3.1|DMZ|2.1>    -2.318859484580 au =    -5.893566888820 Debye


 NATURAL ORBITALS (state averaged)
 =================================

  Orbital  Occupation    Energy     Coefficients
    1.1     2.00000   -11.24042     1 1s    0.70423     2 1s    0.70423
    2.1     2.00000   -11.23925     1 1s    0.70448     2 1s   -0.70448
    3.1     2.00000    -1.03500     1 1s    0.30868     2 1s    0.30868
    4.1     2.00000    -0.80310     1 1s    0.28390     2 1s   -0.28390
    5.1     2.00000    -0.65398     1 2py   0.32688     2 2py   0.32688
    6.1     2.00000    -0.59009     1 2pz   0.40979     2 2pz  -0.40979
    7.1     2.00000    -0.52050     1 2py   0.31474     2 2py  -0.31474
    8.1     1.00000     0.02950     1 2px   0.38048     1 2px   0.67454     2 2px  -0.38048     2 2px  -0.67454
    9.1     1.00000    -0.22049     1 2px   0.35486     1 2px   0.32462     2 2px   0.35486     2 2px   0.32462
   10.1    -0.00000     0.26337     1 1s   -1.49841     1 2pz  -0.63711     2 1s   -1.49841     2 2pz   0.63711     3 1s    1.04139
                                    4 1s    1.04139     5 1s    1.04139     6 1s    1.04139
   11.1    -0.00000     0.29137     1 2py  -0.82977     2 2py  -0.82977     3 1s    1.12227     4 1s   -1.12227     5 1s    1.12227
                                    6 1s   -1.12227
   12.1    -0.00000     0.30890     1 1s    1.99971     2 1s   -1.99971     3 1s   -1.07669     4 1s   -1.07669     5 1s    1.07669
                                    6 1s    1.07669
   13.1    -0.00000     0.38577     1 2py  -1.86778     2 2py   1.86778     3 1s    1.64791     4 1s   -1.64791     5 1s   -1.64791
                                    6 1s    1.64791
   14.1    -0.00000     0.47953     1 1s   -2.67402     1 2pz   2.78671     2 1s    2.67402     2 2pz   2.78671     3 1s   -0.59056
                                    4 1s   -0.59056     5 1s    0.59056     6 1s    0.59056
   15.1    -0.00000     0.66468     1 2pz  -0.55424     1 2pz   1.00588     2 2pz   0.55424     2 2pz  -1.00588
   16.1    -0.00000     0.75048     1 2py  -0.40777     1 2py   0.80606     2 2py  -0.40777     2 2py   0.80606     3 1s   -0.37870
                                    4 1s    0.37870     5 1s   -0.37870     6 1s    0.37870
   17.1    -0.00000     0.77679     1 2px  -0.75298     1 2px   0.63398     2 2px  -0.75298     2 2px   0.63398
   18.1    -0.00000     0.85686     1 1s   -0.89054     1 1s    1.47344     1 2pz   0.31838     2 1s   -0.89054     2 1s    1.47344
                                    2 2pz  -0.31838     3 1s   -0.39136     4 1s   -0.39136     5 1s   -0.39136     6 1s   -0.39136
   19.1    -0.00000     0.87105     1 2px  -0.80104     1 2px   1.09389     2 2px   0.80104     2 2px  -1.09389
   20.1    -0.00000     0.92127     1 1s   -0.61309     1 2pz   0.62662     1 2pz  -0.61885     2 1s    0.61309     2 2pz   0.62662
                                    2 2pz  -0.61885     3 1s    0.36902     4 1s    0.36902     5 1s   -0.36902     6 1s   -0.36902
   21.1    -0.00000     1.11667     1 2py   0.68815     1 2py  -1.11423     2 2py   0.68815     2 2py  -1.11423     3 1s   -0.38562
                                    3 1s    1.07716     4 1s    0.38562     4 1s   -1.07716     5 1s   -0.38562     5 1s    1.07716
                                    6 1s    0.38562     6 1s   -1.07716
   22.1    -0.00000     1.15129     1 2py   0.92355     1 2py  -2.99683     2 2py  -0.92355     2 2py   2.99683     3 1s    1.55799
                                    4 1s   -1.55799     5 1s   -1.55799     6 1s    1.55799
   23.1    -0.00000     1.21621     1 1s    1.03627     1 1s   -1.73761     1 2pz   0.36711     1 2pz  -0.49672     2 1s    1.03627
                                    2 1s   -1.73761     2 2pz  -0.36711     2 2pz   0.49672     3 1s   -0.43887     3 1s    0.86987
                                    4 1s   -0.43887     4 1s    0.86987     5 1s   -0.43887     5 1s    0.86987     6 1s   -0.43887
                                    6 1s    0.86987
   24.1    -0.00000     1.21910     1 1s   -0.28244     1 1s   -0.28919     1 2pz  -0.64292     1 2pz   1.49019     2 1s    0.28244
                                    2 1s    0.28919     2 2pz  -0.64292     2 2pz   1.49019     3 1s    0.49003     3 1s   -0.91086
                                    4 1s    0.49003     4 1s   -0.91086     5 1s   -0.49003     5 1s    0.91086     6 1s   -0.49003
                                    6 1s    0.91086
   25.1    -0.00000     1.30854     1 1s   -1.65679     1 1s    5.29956     1 2pz  -1.65434     2 1s    1.65679     2 1s   -5.29956
                                    2 2pz  -1.65434     3 1s   -0.49435     4 1s   -0.49435     5 1s    0.49435     6 1s    0.49435
   26.1    -0.00000     1.47766     1 2py   2.52652     2 2py  -2.52652     3 1s   -0.70076     3 1s   -0.68639     4 1s    0.70076
                                    4 1s    0.68639     5 1s    0.70076     5 1s    0.68639     6 1s   -0.70076     6 1s   -0.68639
   27.1    -0.00000     1.70790     1 3d1+  0.62202     2 3d1+ -0.62202
   28.1    -0.00000     1.81499     1 3d2-  0.68337     2 3d2-  0.68337
   29.1    -0.00000     2.09401     1 3d2-  0.73350     2 3d2- -0.73350
   30.1    -0.00000     2.20904     1 1s    0.25303     1 1s   -0.60920     1 3d2+  0.69785     2 1s    0.25303     2 1s   -0.60920
                                    2 3d2+  0.69785     3 1s    0.36189     4 1s    0.36189     5 1s    0.36189     6 1s    0.36189
   31.1    -0.00000     2.31906     1 2py   0.28120     1 3d1-  0.69599     2 2py   0.28120     2 3d1- -0.69599     3 1s   -0.52894
                                    4 1s    0.52894     5 1s   -0.52894     6 1s    0.52894
   32.1    -0.00000     2.37107     1 1s   -0.48004     1 2pz   0.27157     1 2pz  -0.45026     1 3d0   0.66441     2 1s   -0.48004
                                    2 2pz  -0.27157     2 2pz   0.45026     2 3d0   0.66441
   33.1    -0.00000     2.61736     1 1s    0.28455     1 1s   -1.38492     1 2pz   0.30818     1 3d2+  0.80032     2 1s   -0.28455
                                    2 1s    1.38492     2 2pz   0.30818     2 3d2+ -0.80032     3 1s    0.45967     4 1s    0.45967
                                    5 1s   -0.45967     6 1s   -0.45967
   34.1    -0.00000     2.66188     1 2px  -0.26071     1 3d1+  0.88874     2 2px   0.26071     2 3d1+  0.88874
   35.1    -0.00000     3.01960     1 1s    1.99151     1 2pz  -0.72837     1 2pz  -1.16878     1 3d0   1.09753     2 1s   -1.99151
                                    2 2pz  -0.72837     2 2pz  -1.16878     2 3d0  -1.09753
   36.1    -0.00000     3.02036     1 2py   0.60181     1 3d1-  0.95468     2 2py  -0.60181     2 3d1-  0.95468     3 1s   -0.48803
                                    4 1s    0.48803     5 1s    0.48803     6 1s   -0.48803


 Natural orbital dump (state averaged) at molpro section  2140.2    (Orbital set 2)



 **********************************************************************************************************************************
 DATASETS  * FILE   NREC   LENGTH (MB)   RECORD NAMES
              1      20       31.36       500      610      700      900      950      970     1000      129      960     1100   
                                          VAR    BASINP    GEOM    SYMINP    ZMAT    AOBASIS   BASIS     P2S    ABASIS      S 
                                         1400     1410     1200     1210     1080     1600     1650     1300     1700     1380   
                                           T        V       H0       H01     AOSYM     SMH    MOLCAS    ERIS     OPER     JKOP   

              2       5        5.42       700     1000      520     2100     2140   
                                         GEOM     BASIS   MCVARS     RHF     MCSCF   

 PROGRAMS   *        TOTAL     MULTI    HF-SCF       INT
 CPU TIMES  *         0.56      0.15      0.10      0.21
 REAL TIME  *         0.82 SEC
 DISK USED  *        38.54 MB
 **********************************************************************************************************************************
 Molecular orbitals read from record     2140.2  Type=MCSCF/NATURAL (state averaged)
 Occupation numbers read from record     2140.2  Type=MCSCF/NATURAL (state averaged)
 Orbital energies read from record       2140.2  Type=MCSCF/NATURAL (state averaged)
 Redundancy group numbers read from rec  2140.2  Type=MCSCF/NATURAL (state averaged)

 MULTI/6-31G* energy=    -77.501462063666

           MULTI          HF-SCF
    -77.50146206    -78.02871702
 **********************************************************************************************************************************
 Molpro calculation terminated
