
 Primary working directories    : /scratch.local/johan406.molpro_temp/molpro.uh8IWXHcMZ
 Secondary working directories  : /scratch.local/johan406.molpro_temp/molpro.uh8IWXHcMZ
 Wavefunction directory         : /home/goodpast/johan406/wfu/
 Main file repository           : /scratch.local/johan406.molpro_temp/molpro.uh8IWXHcMZ/

 id        : roweumn

 Nodes     nprocs
 cn0416       1

 Using customized tuning parameters: mindgm=1; mindgv=20; mindgc=4; mindgr=1; noblas=0; minvec=7
 default implementation of scratch files=df  


 Variables initialized (934), CPU time= 0.01 sec
                                                                                 !leave this line blank
 
 gprint, orbitals=30
 memory, 125., m
 symmetry, nosym
 nelect=16
 basis=6-31g*
 
 geometry={
 C 0.000 0.000 0.673
 C 0.000 -0.000 -0.673
 H 0.000 0.917 1.228
 H 0.000 -0.917 1.228
 H 0.000 0.917 -1.228
 H 0.000 -0.917 -1.228
 }
 
 hf
 {multi,
 closed 7
 occ 9
 wf,spin=0;STATE,3
 }
 
 Commands  initialized (763), CPU time= 0.01 sec, 617 directives.
 Default parameters read. Elapsed time= 0.05 sec

 Checking input...
 Passed
1


                                         ***  PROGRAM SYSTEM MOLPRO  ***
                                       Copyright, TTI GmbH Stuttgart, 2015
                                    Version 2019.2 linked Oct 25 2019 22:50:27


 **********************************************************************************************************************************
 LABEL *                                                                                 
  64 bit serial version                                                                  DATE: 15-Mar-23          TIME: 16:54:39  
 **********************************************************************************************************************************

 SHA1:             8dbd9ae1082e4ce945b0f27595c9eb2d4aa09004
 **********************************************************************************************************************************


 Variable memory set to  125000000 words,  buffer space 

 SETTING NELECT         =        16.00000000                                  
 SETTING BASIS          =    6-31G*
 ZSYMEL=NOSYM


Geometry recognized as XYZ



 Recomputing integrals since basis changed


 Using spherical harmonics

 Library entry C      S 6-31G                selected for orbital group  1
 Library entry C      P 6-31G                selected for orbital group  1
 Library entry C      D 6-31G*               selected for orbital group  1
 Library entry H      S 6-31G                selected for orbital group  2


 PROGRAM * SEWARD (Integral evaluation for generally contracted gaussian basis sets)     Author: Roland Lindh, 1990

 Geometry written to block  1 of record 700


 Point group  C1  



 ATOMIC COORDINATES

 NR  ATOM    CHARGE       X              Y              Z

   1  C       6.00    0.000000000    0.000000000    1.271785682
   2  C       6.00    0.000000000   -0.000000000   -1.271785682
   3  H       1.00    0.000000000    1.732878856    2.320583681
   4  H       1.00    0.000000000   -1.732878856    2.320583681
   5  H       1.00    0.000000000    1.732878856   -2.320583681
   6  H       1.00    0.000000000   -1.732878856   -2.320583681

 Bond lengths in Bohr (Angstrom)

 1-2  2.543571364  1-3  2.025548413  1-4  2.025548413  2-5  2.025548413  2-6  2.025548413
     ( 1.346000000)     ( 1.071874060)     ( 1.071874060)     ( 1.071874060)     ( 1.071874060)

 Bond angles

  1-2-5  121.18377124   1-2-6  121.18377124   2-1-3  121.18377124   2-1-4  121.18377124

  3-1-4  117.63245751   5-2-6  117.63245751

 NUCLEAR CHARGE:                   16
 NUMBER OF PRIMITIVE AOS:          72
 NUMBER OF SYMMETRY AOS:           70
 NUMBER OF CONTRACTIONS:           36   (   36A   )
 NUMBER OF CORE ORBITALS:           2   (    2A   )
 NUMBER OF VALENCE ORBITALS:       12   (   12A   )


 NUCLEAR REPULSION ENERGY   33.37257872

 EXTRA SYMMETRY OF AOS IN SYMMETRY 1:   1 1 1 2 1 1 2 1 1 1   3 2 1 1 1 1 1 2 1 1   2 1 1 1 3 2 1 1 1 1   1 1 1 1 1 1

 Eigenvalues of metric

         1 0.847E-02 0.169E-01 0.379E-01 0.464E-01 0.695E-01 0.197E+00 0.210E+00 0.227E+00


 Contracted 2-electron integrals neglected if value below      1.0D-11
 AO integral compression algorithm  1   Integral accuracy      1.0D-11

     0.786 MB (compressed) written to integral file ( 37.8%)


 NUMBER OF SORTED TWO-ELECTRON INTEGRALS:     222111.     BUFFER LENGTH:  32768
 NUMBER OF SEGMENTS:   1  SEGMENT LENGTH:     222111      RECORD LENGTH: 524288

 Memory used in sort:       0.78 MW

 SORT1 READ      284735. AND WROTE       98275. INTEGRALS IN      1 RECORDS. CPU TIME:     0.00 SEC, REAL TIME:     0.01 SEC
 SORT2 READ       98275. AND WROTE      222111. INTEGRALS IN      3 RECORDS. CPU TIME:     0.02 SEC, REAL TIME:     0.02 SEC

 FILE SIZES:   FILE 1:    30.9 MBYTE,  FILE 4:     4.2 MBYTE,   TOTAL:     35.1 MBYTE

 OPERATOR DM      FOR CENTER  0  COORDINATES:    0.000000    0.000000    0.000000


 **********************************************************************************************************************************
 DATASETS  * FILE   NREC   LENGTH (MB)   RECORD NAMES
              1      19       30.63       500      610      700      900      950      970     1000      129      960     1100   
                                          VAR    BASINP    GEOM    SYMINP    ZMAT    AOBASIS   BASIS     P2S    ABASIS      S 
                                         1400     1410     1200     1210     1080     1600     1650     1300     1700   
                                           T        V       H0       H01     AOSYM     SMH    MOLCAS    ERIS     OPER   

 PROGRAMS   *        TOTAL       INT
 CPU TIMES  *         0.29      0.21
 REAL TIME  *         0.49 SEC
 DISK USED  *        35.45 MB
 **********************************************************************************************************************************


 PROGRAM * RHF-SCF (CLOSED SHELL)       Authors: W. Meyer, H.-J. Werner


 NUMBER OF ELECTRONS:       8+    8-    SPACE SYMMETRY=1    SPIN SYMMETRY: Singlet 
 CONVERGENCE THRESHOLDS:    1.00E-05 (Density)    1.00E-07 (Energy)
 MAX. NUMBER OF ITERATIONS:       60
 INTERPOLATION TYPE:            DIIS
 INTERPOLATION STEPS:              2 (START)      1 (STEP)
 LEVEL SHIFTS:                  0.00 (CLOSED)  0.00 (OPEN) 



 Orbital guess generated from atomic densities. Full valence occupancy:    8

 Molecular orbital dump at record        2100.2

 Initial occupancy:   8

 ITERATION    DDIFF          GRAD             ENERGY        2-EL.EN.            DIPOLE MOMENTS         DIIS   ORB.
    1      0.000D+00      0.000D+00       -78.00627781    118.625816   -0.00000    0.00000   -0.00000    0    start
    2      0.000D+00      0.853D-02       -78.02800237    116.829575   -0.00000    0.00000    0.00000    1    diag
    3      0.816D-02      0.286D-02       -78.03006726    117.445848   -0.00000   -0.00000   -0.00000    2    diag
    4      0.259D-02      0.707D-03       -78.03027210    117.347270   -0.00000    0.00000    0.00000    3    diag
    5      0.105D-02      0.665D-04       -78.03027411    117.350072   -0.00000   -0.00000   -0.00000    4    diag
    6      0.143D-03      0.757D-05       -78.03027414    117.349661    0.00000    0.00000    0.00000    5    diag
    7      0.142D-04      0.110D-05       -78.03027414    117.349669    0.00000    0.00000    0.00000    6    diag
    8      0.159D-05      0.126D-06       -78.03027414    117.349663   -0.00000   -0.00000    0.00000    0    orth

 Final occupancy:   8

 !RHF STATE  1.1 Energy               -78.030274139569
 Nuclear energy                        33.37257872
 One-electron energy                 -170.07768457
 Two-electron energy                   58.67483170
 Virial quotient                       -1.00009231
 !RHF STATE  1.1 Dipole moment         -0.00000000    -0.00000000     0.00000000
 Dipole moment /Debye                  -0.00000000    -0.00000000     0.00000000

 ELECTRON ORBITALS
 =================

  Orbital  Occupation    Energy     Coefficients
    1.1     2.00000   -11.22497     1 1s    0.70419     2 1s    0.70419
    2.1     2.00000   -11.22343     1 1s    0.70454     2 1s   -0.70454
    3.1     2.00000    -1.02551     1 1s    0.30161     2 1s    0.30161
    4.1     2.00000    -0.79313     2 1s   -0.24153
    5.1     2.00000    -0.64105     1 2py   0.32175     2 2py   0.32175
    6.1     2.00000    -0.57932     1 2pz   0.40776     2 2pz  -0.40776
    7.1     2.00000    -0.50950     1 2py   0.30690     2 2py  -0.30690
    8.1     2.00000    -0.36711     1 2px   0.37230     1 2px   0.30966     2 2px   0.37230     2 2px   0.30966
    9.1     0.00000     0.17700     1 2px   0.34272     1 2px   0.72911     2 2px  -0.34272     2 2px  -0.72911
   10.1     0.00000     0.26607     1 1s   -1.49788     1 2pz  -0.63839     2 1s   -1.49788     2 2pz   0.63839     3 1s    1.04006
                                    4 1s    1.04006     5 1s    1.04006     6 1s    1.04006
   11.1     0.00000     0.29675     1 2py  -0.25123     1 2py  -0.82436     2 2py  -0.25123     2 2py  -0.82436     3 1s    1.11683
                                    4 1s   -1.11683     5 1s    1.11683     6 1s   -1.11683
   12.1     0.00000     0.31124     1 1s    1.96045     2 1s   -1.96045     3 1s   -1.08100     4 1s   -1.08100     5 1s    1.08100
                                    6 1s    1.08100
   13.1     0.00000     0.39067     1 2py  -1.88984     2 2py   1.88984     3 1s    1.64745     4 1s   -1.64745     5 1s   -1.64745
                                    6 1s    1.64745
   14.1     0.00000     0.48717     1 1s   -2.88218     1 2pz   2.89291     2 1s    2.88218     2 2pz   2.89291     3 1s   -0.58212
                                    4 1s   -0.58212     5 1s    0.58212     6 1s    0.58212
   15.1     0.00000     0.67057     1 1s    0.26597     1 2pz  -0.55663     1 2pz   1.03302     2 1s    0.26597     2 2pz   0.55663
                                    2 2pz  -1.03302
   16.1     0.00000     0.76363     1 2py  -0.39758     1 2py   0.78971     2 2py  -0.39758     2 2py   0.78971     3 1s   -0.38543
                                    4 1s    0.38543     5 1s   -0.38543     6 1s    0.38543
   17.1     0.00000     0.77919     1 2px  -0.74250     1 2px   0.63950     2 2px  -0.74250     2 2px   0.63950
   18.1     0.00000     0.86083     1 1s   -0.89120     1 1s    1.44987     1 2pz   0.29924     2 1s   -0.89120     2 1s    1.44987
                                    2 2pz  -0.29924     3 1s   -0.39212     4 1s   -0.39212     5 1s   -0.39212     6 1s   -0.39212
   19.1     0.00000     0.88984     1 2px  -0.81779     1 2px   1.07094     2 2px   0.81779     2 2px  -1.07094
   20.1     0.00000     0.95039     1 1s   -0.85829     1 2pz   0.61188     1 2pz  -0.47423     2 1s    0.85829     2 2pz   0.61188
                                    2 2pz  -0.47423     3 1s    0.37752     4 1s    0.37752     5 1s   -0.37752     6 1s   -0.37752
   21.1     0.00000     1.12295     1 2py  -0.69423     1 2py   1.10943     2 2py  -0.69423     2 2py   1.10943     3 1s    0.38292
                                    3 1s   -1.06736     4 1s   -0.38292     4 1s    1.06736     5 1s    0.38292     5 1s   -1.06736
                                    6 1s   -0.38292     6 1s    1.06736
   22.1     0.00000     1.16260     1 2py   0.92666     1 2py  -2.97980     2 2py  -0.92666     2 2py   2.97980     3 1s    1.53367
                                    4 1s   -1.53367     5 1s   -1.53367     6 1s    1.53367
   23.1     0.00000     1.21747     1 1s    1.03907     1 1s   -1.73473     1 2pz   0.36508     1 2pz  -0.49339     2 1s    1.03907
                                    2 1s   -1.73473     2 2pz  -0.36508     2 2pz   0.49339     3 1s   -0.43879     3 1s    0.86837
                                    4 1s   -0.43879     4 1s    0.86837     5 1s   -0.43879     5 1s    0.86837     6 1s   -0.43879
                                    6 1s    0.86837
   24.1     0.00000     1.22257     1 1s   -0.46489     1 1s    0.28497     1 2pz  -0.62770     1 2pz   1.30585     2 1s    0.46489
                                    2 1s   -0.28497     2 2pz  -0.62770     2 2pz   1.30585     3 1s    0.47771     3 1s   -0.95973
                                    4 1s    0.47771     4 1s   -0.95973     5 1s   -0.47771     5 1s    0.95973     6 1s   -0.47771
                                    6 1s    0.95973
   25.1     0.00000     1.33454     1 1s   -1.61314     1 1s    5.37732     1 2pz  -1.85492     2 1s    1.61314     2 1s   -5.37732
                                    2 2pz  -1.85492     3 1s   -0.37807     4 1s   -0.37807     5 1s    0.37807     6 1s    0.37807
   26.1     0.00000     1.48508     1 2py   2.55233     2 2py  -2.55233     3 1s   -0.70160     3 1s   -0.68560     4 1s    0.70160
                                    4 1s    0.68560     5 1s    0.70160     5 1s    0.68560     6 1s   -0.70160     6 1s   -0.68560
   27.1     0.00000     1.73706     1 3d1+  0.62008     2 3d1+ -0.62008
   28.1     0.00000     1.82350     1 3d2-  0.68194     2 3d2-  0.68194
   29.1     0.00000     2.12357     1 3d2-  0.73529     2 3d2- -0.73529
   30.1     0.00000     2.21571     1 1s   -0.60893     1 3d2+  0.70936     2 1s   -0.60893     2 3d2+  0.70936     3 1s    0.37081
                                    4 1s    0.37081     5 1s    0.37081     6 1s    0.37081
   31.1     0.00000     2.33407     1 2py   0.27705     1 3d1-  0.69414     2 2py   0.27705     2 3d1- -0.69414     3 1s   -0.52230
                                    4 1s    0.52230     5 1s   -0.52230     6 1s    0.52230
   32.1     0.00000     2.40379     1 1s   -0.50096     1 2pz   0.27561     1 2pz  -0.44651     1 3d0   0.68157     2 1s   -0.50096
                                    2 2pz  -0.27561     2 2pz   0.44651     2 3d0   0.68157
   33.1     0.00000     2.63540     1 1s    0.28836     1 1s   -1.38671     1 2pz   0.30407     1 3d2+  0.80102     2 1s   -0.28836
                                    2 1s    1.38671     2 2pz   0.30407     2 3d2+ -0.80102     3 1s    0.45184     4 1s    0.45184
                                    5 1s   -0.45184     6 1s   -0.45184
   34.1     0.00000     2.70050     1 2px  -0.26300     1 3d1+  0.89790     2 2px   0.26300     2 3d1+  0.89790
   35.1     0.00000     3.04966     1 2py   0.58623     1 3d1-  0.96503     2 2py  -0.58623     2 3d1-  0.96503     3 1s   -0.48144
                                    4 1s    0.48144     5 1s    0.48144     6 1s   -0.48144
   36.1     0.00000     3.05367     1 1s    0.29291     1 1s    1.99781     1 2pz  -0.77715     1 2pz  -1.16608     1 3d0   1.10660
                                    2 1s   -0.29291     2 1s   -1.99781     2 2pz  -0.77715     2 2pz  -1.16608     2 3d0  -1.10660


 HOMO      8.1    -0.367110 =      -9.9896eV
 LUMO      9.1     0.177000 =       4.8164eV
 LUMO-HOMO         0.544110 =      14.8060eV


 **********************************************************************************************************************************
 DATASETS  * FILE   NREC   LENGTH (MB)   RECORD NAMES
              1      19       30.63       500      610      700      900      950      970     1000      129      960     1100   
                                          VAR    BASINP    GEOM    SYMINP    ZMAT    AOBASIS   BASIS     P2S    ABASIS      S 
                                         1400     1410     1200     1210     1080     1600     1650     1300     1700   
                                           T        V       H0       H01     AOSYM     SMH    MOLCAS    ERIS     OPER   

              2       4        2.86       700     1000      520     2100   
                                         GEOM     BASIS   MCVARS     RHF  

 PROGRAMS   *        TOTAL    HF-SCF       INT
 CPU TIMES  *         0.38      0.09      0.21
 REAL TIME  *         0.64 SEC
 DISK USED  *        35.45 MB
 **********************************************************************************************************************************


 PROGRAM * MULTI (Direct Multiconfiguration SCF)       Authors: P.J. Knowles, H.-J. Werner (1984)


 Number of closed-shell orbitals:   7 (   7 )
 Number of active  orbitals:        2 (   2 )
 Number of external orbitals:      27 (  27 )

 State symmetry 1

 Number of electrons:     2    Spin symmetry=Singlet   Space symmetry=1
 Number of states:        3
 Number of CSFs:          3   (4 determinants, 4 intermediate states)

 Molecular orbitals read from record     2100.2  Type=RHF/CANONICAL (state 1.1)

 EXTRA SYMMETRY OF MOS IN SYMMETRY 1:   1 1 1 1 1 1 1 2 2 1   1 1 1 1 1 1 2 1 2 1   1 1 1 1 1 1 2 3 3 1   1 1 1 2 1 1

 Wavefunction dump at record             2140.2

 Convergence thresholds  0.10E-01 (gradient)  0.10E-05 (energy)  0.10E-02 (step length)

 Weight factors for state symmetry  1:    0.33333   0.33333   0.33333

 Number of orbital rotations:      257   (    14 Core/Active    189 Core/Virtual   0 Active/Active     54 Active/Virtual)
 Total number of variables:        269

 Micro-Iterations solved by the two-step solver

 ITER. MIC  NCI  NEG     ENERGY(VAR)     ENERGY(PROJ)   ENERGY CHANGE     GRAD(0)  GRAD(ORB)   GRAD(CI)     STEP       TIME

   1    3    3    0     -77.73210117     -77.73819240   -0.00609123    0.13090135 0.00000144 0.00000000  0.62D-01      0.05
   2    2    3    0     -77.73809850     -77.73810203   -0.00000353    0.00294730 0.00000174 0.00000000  0.16D-02      0.08
   3    2    3    0     -77.73810203     -77.73810203   -0.00000000    0.00000201 0.00000000 0.00000000  0.12D-05      0.11

 ** WVFN ****  CONVERGENCE REACHED, FINAL GRADIENT:  0.11D-11



 Results for state 1.1
 =====================

 !MCSCF STATE  1.1 Energy             -78.048408179619
 Nuclear energy                        33.37257872
 Kinetic energy                        78.08825382
 One electron energy                 -170.20093772
 Two electron energy                   58.77995081
 Virial ratio                           1.99948974

 !MCSCF STATE  1.1 Dipole moment        0.00000000     0.00000000     0.00000000
 Dipole moment /Debye                   0.00000000     0.00000000     0.00000000

 Results for state 2.1
 =====================

 !MCSCF STATE  2.1 Energy             -77.674426715306
 Nuclear energy                        33.37257872
 Kinetic energy                        78.27160013
 One electron energy                 -169.64302246
 Two electron energy                   58.59601702
 Virial ratio                           1.99237050

 !MCSCF STATE  2.1 Dipole moment        0.00000000     0.00000000     0.00000000
 Dipole moment /Debye                   0.00000000     0.00000000     0.00000000

 Results for state 3.1
 =====================

 !MCSCF STATE  3.1 Energy             -77.491471199586
 Nuclear energy                        33.37257872
 Kinetic energy                        78.45494643
 One electron energy                 -169.08510721
 Two electron energy                   58.22105729
 Virial ratio                           1.98771938

 !MCSCF STATE  3.1 Dipole moment        0.00000000     0.00000000     0.00000000
 Dipole moment /Debye                   0.00000000     0.00000000     0.00000000

 State-averaged charge density matrix saved on record  2140.2 (density set 1)

 !MCSCF trans         <2.1|DMZ|1.1>    -1.511369319065 au =    -3.841266033950 Debye
 !MCSCF trans         <3.1|DMZ|2.1>    -2.288321817176 au =    -5.815952964097 Debye


 NATURAL ORBITALS (state averaged)
 =================================

  Orbital  Occupation    Energy     Coefficients
    1.1     2.00000   -11.24021     1 1s    0.70421     2 1s    0.70421
    2.1     2.00000   -11.23894     1 1s    0.70450     2 1s   -0.70450
    3.1     2.00000    -1.03979     1 1s    0.30958     2 1s    0.30958
    4.1     2.00000    -0.80088     1 1s    0.28618     2 1s   -0.28618
    5.1     2.00000    -0.65366     1 2py   0.32722     2 2py   0.32722
    6.1     2.00000    -0.59439     1 2pz   0.40954     2 2pz  -0.40954
    7.1     2.00000    -0.51610     1 2py   0.31320     2 2py  -0.31320
    8.1     1.00000     0.03243     1 2px   0.38017     1 2px   0.68285     2 2px  -0.38017     2 2px  -0.68285
    9.1     1.00000    -0.22368     1 2px   0.35678     1 2px   0.32118     2 2px   0.35678     2 2px   0.32118
   10.1    -0.00000     0.26330     1 1s   -1.49382     1 2pz  -0.64429     2 1s   -1.49382     2 2pz   0.64429     3 1s    1.03955
                                    4 1s    1.03955     5 1s    1.03955     6 1s    1.03955
   11.1    -0.00000     0.28850     1 2py  -0.81513     2 2py  -0.81513     3 1s    1.10851     4 1s   -1.10851     5 1s    1.10851
                                    6 1s   -1.10851
   12.1    -0.00000     0.30817     1 1s    1.98479     2 1s   -1.98479     3 1s   -1.07544     4 1s   -1.07544     5 1s    1.07544
                                    6 1s    1.07544
   13.1    -0.00000     0.38663     1 2py  -1.87590     2 2py   1.87590     3 1s    1.64080     4 1s   -1.64080     5 1s   -1.64080
                                    6 1s    1.64080
   14.1    -0.00000     0.48447     1 1s   -2.85897     1 2pz   2.87480     2 1s    2.85897     2 2pz   2.87480     3 1s   -0.59191
                                    4 1s   -0.59191     5 1s    0.59191     6 1s    0.59191
   15.1    -0.00000     0.65977     1 2pz  -0.54967     1 2pz   1.01074     2 2pz   0.54967     2 2pz  -1.01074
   16.1    -0.00000     0.75304     1 2py  -0.40859     1 2py   0.79614     2 2py  -0.40859     2 2py   0.79614     3 1s   -0.38102
                                    4 1s    0.38102     5 1s   -0.38102     6 1s    0.38102
   17.1    -0.00000     0.77320     1 2px  -0.74920     1 2px   0.63413     2 2px  -0.74920     2 2px   0.63413
   18.1    -0.00000     0.85765     1 1s   -0.88525     1 1s    1.47621     1 2pz   0.34789     2 1s   -0.88525     2 1s    1.47621
                                    2 2pz  -0.34789     3 1s   -0.39444     4 1s   -0.39444     5 1s   -0.39444     6 1s   -0.39444
   19.1    -0.00000     0.87244     1 2px  -0.80234     1 2px   1.10085     2 2px   0.80234     2 2px  -1.10085
   20.1    -0.00000     0.93155     1 1s   -0.70387     1 2pz   0.61563     1 2pz  -0.55544     2 1s    0.70387     2 2pz   0.61563
                                    2 2pz  -0.55544     3 1s    0.37818     4 1s    0.37818     5 1s   -0.37818     6 1s   -0.37818
   21.1    -0.00000     1.10756     1 2py  -0.68300     1 2py   1.11143     2 2py  -0.68300     2 2py   1.11143     3 1s    0.38341
                                    3 1s   -1.07624     4 1s   -0.38341     4 1s    1.07624     5 1s    0.38341     5 1s   -1.07624
                                    6 1s   -0.38341     6 1s    1.07624
   22.1    -0.00000     1.15026     1 2py   0.92379     1 2py  -2.98438     2 2py  -0.92379     2 2py   2.98438     3 1s    1.54138
                                    4 1s   -1.54138     5 1s   -1.54138     6 1s    1.54138
   23.1    -0.00000     1.21430     1 1s    1.03414     1 1s   -1.73068     1 2pz   0.36892     1 2pz  -0.49914     2 1s    1.03414
                                    2 1s   -1.73068     2 2pz  -0.36892     2 2pz   0.49914     3 1s   -0.43929     3 1s    0.86786
                                    4 1s   -0.43929     4 1s    0.86786     5 1s   -0.43929     5 1s    0.86786     6 1s   -0.43929
                                    6 1s    0.86786
   24.1    -0.00000     1.21985     1 1s   -0.38670     1 2pz  -0.64227     1 2pz   1.39536     2 1s    0.38670     2 2pz  -0.64227
                                    2 2pz   1.39536     3 1s    0.48011     3 1s   -0.94033     4 1s    0.48011     4 1s   -0.94033
                                    5 1s   -0.48011     5 1s    0.94033     6 1s   -0.48011     6 1s    0.94033
   25.1    -0.00000     1.31542     1 1s   -1.63560     1 1s    5.39745     1 2pz  -1.78800     2 1s    1.63560     2 1s   -5.39745
                                    2 2pz  -1.78800     3 1s   -0.42615     4 1s   -0.42615     5 1s    0.42615     6 1s    0.42615
   26.1    -0.00000     1.47644     1 2py   2.55595     2 2py  -2.55595     3 1s   -0.70040     3 1s   -0.68691     4 1s    0.70040
                                    4 1s    0.68691     5 1s    0.70040     5 1s    0.68691     6 1s   -0.70040     6 1s   -0.68691
   27.1    -0.00000     1.71180     1 3d1+  0.61983     2 3d1+ -0.61983
   28.1    -0.00000     1.80992     1 3d2-  0.68194     2 3d2-  0.68194
   29.1    -0.00000     2.10077     1 3d2-  0.73529     2 3d2- -0.73529
   30.1    -0.00000     2.20049     1 1s   -0.60471     1 3d2+  0.70867     2 1s   -0.60471     2 3d2+  0.70867     3 1s    0.37244
                                    4 1s    0.37244     5 1s    0.37244     6 1s    0.37244
   31.1    -0.00000     2.31819     1 2py   0.28393     1 3d1-  0.69237     2 2py   0.28393     2 3d1- -0.69237     3 1s   -0.52568
                                    4 1s    0.52568     5 1s   -0.52568     6 1s    0.52568
   32.1    -0.00000     2.38388     1 1s   -0.49891     1 2pz   0.28127     1 2pz  -0.44952     1 3d0   0.68115     2 1s   -0.49891
                                    2 2pz  -0.28127     2 2pz   0.44952     2 3d0   0.68115
   33.1    -0.00000     2.61599     1 1s    0.28923     1 1s   -1.39264     1 2pz   0.30307     1 3d2+  0.80027     2 1s   -0.28923
                                    2 1s    1.39264     2 2pz   0.30307     2 3d2+ -0.80027     3 1s    0.45489     4 1s    0.45489
                                    5 1s   -0.45489     6 1s   -0.45489
   34.1    -0.00000     2.67818     1 2px  -0.26370     1 3d1+  0.89828     2 2px   0.26370     2 3d1+  0.89828
   35.1    -0.00000     3.03596     1 1s    0.28586     1 1s    2.02312     1 2pz  -0.76971     1 2pz  -1.17925     1 3d0   1.10820
                                    2 1s   -0.28586     2 1s   -2.02312     2 2pz  -0.76971     2 2pz  -1.17925     2 3d0  -1.10820
   36.1    -0.00000     3.03711     1 2py   0.58659     1 3d1-  0.96462     2 2py  -0.58659     2 3d1-  0.96462     3 1s   -0.48378
                                    4 1s    0.48378     5 1s    0.48378     6 1s   -0.48378


 Natural orbital dump (state averaged) at molpro section  2140.2    (Orbital set 2)



 **********************************************************************************************************************************
 DATASETS  * FILE   NREC   LENGTH (MB)   RECORD NAMES
              1      20       31.36       500      610      700      900      950      970     1000      129      960     1100   
                                          VAR    BASINP    GEOM    SYMINP    ZMAT    AOBASIS   BASIS     P2S    ABASIS      S 
                                         1400     1410     1200     1210     1080     1600     1650     1300     1700     1380   
                                           T        V       H0       H01     AOSYM     SMH    MOLCAS    ERIS     OPER     JKOP   

              2       5        5.42       700     1000      520     2100     2140   
                                         GEOM     BASIS   MCVARS     RHF     MCSCF   

 PROGRAMS   *        TOTAL     MULTI    HF-SCF       INT
 CPU TIMES  *         0.54      0.15      0.09      0.21
 REAL TIME  *         0.83 SEC
 DISK USED  *        38.55 MB
 **********************************************************************************************************************************
 Molecular orbitals read from record     2140.2  Type=MCSCF/NATURAL (state averaged)
 Occupation numbers read from record     2140.2  Type=MCSCF/NATURAL (state averaged)
 Orbital energies read from record       2140.2  Type=MCSCF/NATURAL (state averaged)
 Redundancy group numbers read from rec  2140.2  Type=MCSCF/NATURAL (state averaged)

 MULTI/6-31G* energy=    -77.491471199586

           MULTI          HF-SCF
    -77.49147120    -78.03027414
 **********************************************************************************************************************************
 Molpro calculation terminated
