
 Primary working directories    : /scratch.local/johan406.molpro_temp/molpro.ZtuiACPUNV
 Secondary working directories  : /scratch.local/johan406.molpro_temp/molpro.ZtuiACPUNV
 Wavefunction directory         : /home/goodpast/johan406/wfu/
 Main file repository           : /scratch.local/johan406.molpro_temp/molpro.ZtuiACPUNV/

 id        : roweumn

 Nodes     nprocs
 cn0416       1

 Using customized tuning parameters: mindgm=1; mindgv=20; mindgc=4; mindgr=1; noblas=0; minvec=7
 default implementation of scratch files=df  


 Variables initialized (934), CPU time= 0.00 sec
                                                                                 !leave this line blank
 
 gprint, orbitals=30
 memory, 125., m
 symmetry, nosym
 nelect=16
 basis=6-31g*
 
 geometry={
 C 0.000 0.000 0.675
 C 0.000 -0.000 -0.675
 H 0.000 0.921 1.222
 H 0.000 -0.922 1.222
 H 0.000 0.922 -1.222
 H 0.000 -0.921 -1.222
 }
 
 hf
 {multi,
 closed 7
 occ 9
 wf,spin=0;STATE,3
 }
 
 Commands  initialized (763), CPU time= 0.01 sec, 617 directives.
 Default parameters read. Elapsed time= 0.05 sec

 Checking input...
 Passed
1


                                         ***  PROGRAM SYSTEM MOLPRO  ***
                                       Copyright, TTI GmbH Stuttgart, 2015
                                    Version 2019.2 linked Oct 25 2019 22:50:27


 **********************************************************************************************************************************
 LABEL *                                                                                 
  64 bit serial version                                                                  DATE: 15-Mar-23          TIME: 16:55:41  
 **********************************************************************************************************************************

 SHA1:             8dbd9ae1082e4ce945b0f27595c9eb2d4aa09004
 **********************************************************************************************************************************


 Variable memory set to  125000000 words,  buffer space 

 SETTING NELECT         =        16.00000000                                  
 SETTING BASIS          =    6-31G*
 ZSYMEL=NOSYM


Geometry recognized as XYZ



 Recomputing integrals since basis changed


 Using spherical harmonics

 Library entry C      S 6-31G                selected for orbital group  1
 Library entry C      P 6-31G                selected for orbital group  1
 Library entry C      D 6-31G*               selected for orbital group  1
 Library entry H      S 6-31G                selected for orbital group  2


 PROGRAM * SEWARD (Integral evaluation for generally contracted gaussian basis sets)     Author: Roland Lindh, 1990

 Geometry written to block  1 of record 700


 Point group  C1  



 ATOMIC COORDINATES

 NR  ATOM    CHARGE       X              Y              Z

   1  C       6.00    0.000000000    0.000000000    1.275565134
   2  C       6.00    0.000000000   -0.000000000   -1.275565134
   3  H       1.00    0.000000000    1.740437761    2.309245324
   4  H       1.00    0.000000000   -1.742327487    2.309245324
   5  H       1.00    0.000000000    1.742327487   -2.309245324
   6  H       1.00    0.000000000   -1.740437761   -2.309245324

 Bond lengths in Bohr (Angstrom)

 1-2  2.551130268  1-3  2.024257477  1-4  2.025882476  2-5  2.025882476  2-6  2.024257477
     ( 1.350000000)     ( 1.071190926)     ( 1.072050838)     ( 1.072050838)     ( 1.071190926)

 Bond angles

  1-2-5  120.67961726   1-2-6  120.70690878   2-1-3  120.70690878   2-1-4  120.67961726

  3-1-4  118.61347397   5-2-6  118.61347397

 NUCLEAR CHARGE:                   16
 NUMBER OF PRIMITIVE AOS:          72
 NUMBER OF SYMMETRY AOS:           70
 NUMBER OF CONTRACTIONS:           36   (   36A   )
 NUMBER OF CORE ORBITALS:           2   (    2A   )
 NUMBER OF VALENCE ORBITALS:       12   (   12A   )


 NUCLEAR REPULSION ENERGY   33.33789350

 EXTRA SYMMETRY OF AOS IN SYMMETRY 1:   1 1 1 2 1 1 2 1 1 1   2 2 1 1 1 1 1 2 1 1   2 1 1 1 2 2 1 1 1 1   1 1 1 1 1 1

 Eigenvalues of metric

         1 0.854E-02 0.167E-01 0.384E-01 0.471E-01 0.687E-01 0.199E+00 0.211E+00 0.229E+00


 Contracted 2-electron integrals neglected if value below      1.0D-11
 AO integral compression algorithm  1   Integral accuracy      1.0D-11

     0.786 MB (compressed) written to integral file ( 38.0%)


 NUMBER OF SORTED TWO-ELECTRON INTEGRALS:     222111.     BUFFER LENGTH:  32768
 NUMBER OF SEGMENTS:   1  SEGMENT LENGTH:     222111      RECORD LENGTH: 524288

 Memory used in sort:       0.78 MW

 SORT1 READ      284735. AND WROTE       98703. INTEGRALS IN      1 RECORDS. CPU TIME:     0.00 SEC, REAL TIME:     0.01 SEC
 SORT2 READ       98703. AND WROTE      222111. INTEGRALS IN      3 RECORDS. CPU TIME:     0.02 SEC, REAL TIME:     0.02 SEC

 FILE SIZES:   FILE 1:    30.9 MBYTE,  FILE 4:     4.2 MBYTE,   TOTAL:     35.1 MBYTE

 OPERATOR DM      FOR CENTER  0  COORDINATES:    0.000000    0.000000    0.000000


 **********************************************************************************************************************************
 DATASETS  * FILE   NREC   LENGTH (MB)   RECORD NAMES
              1      19       30.63       500      610      700      900      950      970     1000      129      960     1100   
                                          VAR    BASINP    GEOM    SYMINP    ZMAT    AOBASIS   BASIS     P2S    ABASIS      S 
                                         1400     1410     1200     1210     1080     1600     1650     1300     1700   
                                           T        V       H0       H01     AOSYM     SMH    MOLCAS    ERIS     OPER   

 PROGRAMS   *        TOTAL       INT
 CPU TIMES  *         0.30      0.22
 REAL TIME  *         0.51 SEC
 DISK USED  *        35.45 MB
 **********************************************************************************************************************************


 PROGRAM * RHF-SCF (CLOSED SHELL)       Authors: W. Meyer, H.-J. Werner


 NUMBER OF ELECTRONS:       8+    8-    SPACE SYMMETRY=1    SPIN SYMMETRY: Singlet 
 CONVERGENCE THRESHOLDS:    1.00E-05 (Density)    1.00E-07 (Energy)
 MAX. NUMBER OF ITERATIONS:       60
 INTERPOLATION TYPE:            DIIS
 INTERPOLATION STEPS:              2 (START)      1 (STEP)
 LEVEL SHIFTS:                  0.00 (CLOSED)  0.00 (OPEN) 



 Orbital guess generated from atomic densities. Full valence occupancy:    8

 Molecular orbital dump at record        2100.2

 Initial occupancy:   8

 ITERATION    DDIFF          GRAD             ENERGY        2-EL.EN.            DIPOLE MOMENTS         DIIS   ORB.
    1      0.000D+00      0.000D+00       -78.00605057    118.548834   -0.00000   -0.00000    0.00000    0    start
    2      0.000D+00      0.849D-02       -78.02761554    116.773589   -0.00000    0.00000    0.00000    1    diag
    3      0.813D-02      0.284D-02       -78.02964829    117.383300   -0.00000   -0.00000   -0.00000    2    diag
    4      0.257D-02      0.704D-03       -78.02985060    117.284678   -0.00000    0.00000   -0.00000    3    diag
    5      0.104D-02      0.659D-04       -78.02985258    117.287436   -0.00000   -0.00000   -0.00000    4    diag
    6      0.142D-03      0.731D-05       -78.02985260    117.287033    0.00000   -0.00000   -0.00000    5    diag
    7      0.136D-04      0.106D-05       -78.02985260    117.287041   -0.00000   -0.00000   -0.00000    6    diag
    8      0.148D-05      0.118D-06       -78.02985260    117.287036   -0.00000   -0.00000    0.00000    0    orth

 Final occupancy:   8

 !RHF STATE  1.1 Energy               -78.029852603605
 Nuclear energy                        33.33789350
 One-electron energy                 -170.01126395
 Two-electron energy                   58.64351785
 Virial quotient                       -1.00020331
 !RHF STATE  1.1 Dipole moment         -0.00000000    -0.00000000     0.00000000
 Dipole moment /Debye                  -0.00000000    -0.00000000     0.00000000

 ELECTRON ORBITALS
 =================

  Orbital  Occupation    Energy     Coefficients
    1.1     2.00000   -11.22519     1 1s    0.70420     2 1s    0.70420
    2.1     2.00000   -11.22368     1 1s    0.70453     2 1s   -0.70453
    3.1     2.00000    -1.02473     1 1s    0.30124     2 1s    0.30124
    4.1     2.00000    -0.79234     1 1s    0.24217
    5.1     2.00000    -0.64254     1 2py   0.32144     2 2py   0.32144
    6.1     2.00000    -0.57623     1 2pz   0.40792     2 2pz  -0.40792
    7.1     2.00000    -0.51135     1 2py   0.30739     2 2py  -0.30739
    8.1     2.00000    -0.36605     1 2px   0.37179     1 2px   0.31055     2 2px   0.37179     2 2px   0.31055
    9.1     0.00000     0.17626     1 2px   0.34310     1 2px   0.72666     2 2px  -0.34310     2 2px  -0.72666
   10.1     0.00000     0.26496     1 1s   -1.48951     1 2pz  -0.62886     2 1s   -1.48951     2 2pz   0.62886     3 1s    1.03344
                                    4 1s    1.03333     5 1s    1.03333     6 1s    1.03344
   11.1     0.00000     0.29735     1 2py   0.25099     1 2py   0.83277     2 2py   0.25099     2 2py   0.83277     3 1s   -1.11561
                                    4 1s    1.13041     5 1s   -1.13041     6 1s    1.11561
   12.1     0.00000     0.31191     1 1s    1.96683     2 1s   -1.96683     3 1s   -1.08992     4 1s   -1.07176     5 1s    1.07176
                                    6 1s    1.08992
   13.1     0.00000     0.39005     1 2py  -1.89621     2 2py   1.89621     3 1s    1.65446     4 1s   -1.65120     5 1s   -1.65120
                                    6 1s    1.65446
   14.1     0.00000     0.48448     1 1s   -2.82980     1 2pz   2.84802     2 1s    2.82980     2 2pz   2.84802     3 1s   -0.56799
                                    4 1s   -0.56566     5 1s    0.56566     6 1s    0.56799
   15.1     0.00000     0.67075     1 1s    0.27262     1 2pz  -0.55649     1 2pz   1.02655     2 1s    0.27262     2 2pz   0.55649
                                    2 2pz  -1.02655
   16.1     0.00000     0.76670     1 2py  -0.39728     1 2py   0.80239     2 2py  -0.39728     2 2py   0.80239     3 1s   -0.38594
                                    4 1s    0.38535     5 1s   -0.38535     6 1s    0.38594
   17.1     0.00000     0.78009     1 2px  -0.74346     1 2px   0.63948     2 2px  -0.74346     2 2px   0.63948
   18.1     0.00000     0.85959     1 1s   -0.89113     1 1s    1.42565     1 2pz   0.26601     2 1s   -0.89113     2 1s    1.42565
                                    2 2pz  -0.26601     3 1s   -0.39063     4 1s   -0.39083     5 1s   -0.39083     6 1s   -0.39063
   19.1     0.00000     0.88948     1 2px  -0.81738     1 2px   1.06948     2 2px   0.81738     2 2px  -1.06948
   20.1     0.00000     0.94918     1 1s   -0.85997     1 2pz   0.61750     1 2pz  -0.45955     2 1s    0.85997     2 2pz   0.61750
                                    2 2pz  -0.45955     3 1s    0.37365     4 1s    0.37474     5 1s   -0.37474     6 1s   -0.37365
   21.1     0.00000     1.12520     1 2py  -0.69717     1 2py   1.11511     2 2py  -0.69717     2 2py   1.11511     3 1s    0.38167
                                    3 1s   -1.06458     4 1s   -0.38507     4 1s    1.07155     5 1s    0.38507     5 1s   -1.07155
                                    6 1s   -0.38167     6 1s    1.06458
   22.1     0.00000     1.16286     1 2py   0.92727     1 2py  -2.98685     2 2py  -0.92727     2 2py   2.98685     3 1s    1.53574
                                    4 1s   -1.54496     5 1s   -1.54496     6 1s    1.53574
   23.1     0.00000     1.21501     1 1s    1.04159     1 1s   -1.73800     1 2pz   0.36321     1 2pz  -0.48961     2 1s    1.04159
                                    2 1s   -1.73800     2 2pz  -0.36321     2 2pz   0.48961     3 1s   -0.43664     3 1s    0.87895
                                    4 1s   -0.43629     4 1s    0.85646     5 1s   -0.43629     5 1s    0.85646     6 1s   -0.43664
                                    6 1s    0.87895
   24.1     0.00000     1.21947     1 1s   -0.43014     1 2pz  -0.62658     1 2pz   1.34443     2 1s    0.43014     2 2pz  -0.62658
                                    2 2pz   1.34443     3 1s    0.48241     3 1s   -0.95775     4 1s    0.47944     4 1s   -0.94900
                                    5 1s   -0.47944     5 1s    0.94900     6 1s   -0.48241     6 1s    0.95775
   25.1     0.00000     1.33296     1 1s   -1.62406     1 1s    5.37749     1 2pz  -1.83023     2 1s    1.62406     2 1s   -5.37749
                                    2 2pz  -1.83023     3 1s   -0.40113     4 1s   -0.39997     5 1s    0.39997     6 1s    0.40113
   26.1     0.00000     1.49529     1 2py   2.58269     2 2py  -2.58269     3 1s   -0.70552     3 1s   -0.70354     4 1s    0.70453
                                    4 1s    0.70309     5 1s    0.70453     5 1s    0.70309     6 1s   -0.70552     6 1s   -0.70354
   27.1     0.00000     1.73634     1 3d1+  0.62061     2 3d1+ -0.62061
   28.1     0.00000     1.82438     1 3d2-  0.68230     2 3d2-  0.68230
   29.1     0.00000     2.12143     1 3d2-  0.73483     2 3d2- -0.73483
   30.1     0.00000     2.21861     1 1s   -0.60579     1 3d2+  0.70553     2 1s   -0.60579     2 3d2+  0.70553     3 1s    0.36579
                                    4 1s    0.36550     5 1s    0.36550     6 1s    0.36579
   31.1     0.00000     2.33034     1 2py   0.27355     1 3d1-  0.69416     2 2py   0.27355     2 3d1- -0.69416     3 1s   -0.52168
                                    4 1s    0.52200     5 1s   -0.52200     6 1s    0.52168
   32.1     0.00000     2.40363     1 1s   -0.49601     1 2pz   0.27119     1 2pz  -0.44443     1 3d0   0.67637     2 1s   -0.49601
                                    2 2pz  -0.27119     2 2pz   0.44443     2 3d0   0.67637
   33.1     0.00000     2.64095     1 1s    0.28897     1 1s   -1.42586     1 2pz   0.33582     1 3d2+  0.80192     2 1s   -0.28897
                                    2 1s    1.42586     2 2pz   0.33582     2 3d2+ -0.80192     3 1s    0.45603     4 1s    0.45396
                                    5 1s   -0.45396     6 1s   -0.45603
   34.1     0.00000     2.69689     1 2px  -0.26219     1 3d1+  0.89548     2 2px   0.26219     2 3d1+  0.89548
   35.1     0.00000     3.03323     1 2py   0.59154     1 3d1-  0.95983     2 2py  -0.59154     2 3d1-  0.95983     3 1s   -0.47950
                                    4 1s    0.47790     5 1s    0.47790     6 1s   -0.47950
   36.1     0.00000     3.04983     1 1s    0.28220     1 1s    1.97739     1 2pz  -0.76805     1 2pz  -1.15457     1 3d0   1.10378
                                    2 1s   -0.28220     2 1s   -1.97739     2 2pz  -0.76805     2 2pz  -1.15457     2 3d0  -1.10378


 HOMO      8.1    -0.366046 =      -9.9606eV
 LUMO      9.1     0.176261 =       4.7963eV
 LUMO-HOMO         0.542307 =      14.7569eV


 **********************************************************************************************************************************
 DATASETS  * FILE   NREC   LENGTH (MB)   RECORD NAMES
              1      19       30.63       500      610      700      900      950      970     1000      129      960     1100   
                                          VAR    BASINP    GEOM    SYMINP    ZMAT    AOBASIS   BASIS     P2S    ABASIS      S 
                                         1400     1410     1200     1210     1080     1600     1650     1300     1700   
                                           T        V       H0       H01     AOSYM     SMH    MOLCAS    ERIS     OPER   

              2       4        2.86       700     1000      520     2100   
                                         GEOM     BASIS   MCVARS     RHF  

 PROGRAMS   *        TOTAL    HF-SCF       INT
 CPU TIMES  *         0.40      0.10      0.22
 REAL TIME  *         0.67 SEC
 DISK USED  *        35.45 MB
 **********************************************************************************************************************************


 PROGRAM * MULTI (Direct Multiconfiguration SCF)       Authors: P.J. Knowles, H.-J. Werner (1984)


 Number of closed-shell orbitals:   7 (   7 )
 Number of active  orbitals:        2 (   2 )
 Number of external orbitals:      27 (  27 )

 State symmetry 1

 Number of electrons:     2    Spin symmetry=Singlet   Space symmetry=1
 Number of states:        3
 Number of CSFs:          3   (4 determinants, 4 intermediate states)

 Molecular orbitals read from record     2100.2  Type=RHF/CANONICAL (state 1.1)

 EXTRA SYMMETRY OF MOS IN SYMMETRY 1:   1 1 1 1 1 1 1 2 2 1   1 1 1 1 1 1 2 1 2 1   1 1 1 1 1 1 2 2 2 1   1 1 1 2 1 1

 Wavefunction dump at record             2140.2

 Convergence thresholds  0.10E-01 (gradient)  0.10E-05 (energy)  0.10E-02 (step length)

 Weight factors for state symmetry  1:    0.33333   0.33333   0.33333

 Number of orbital rotations:      257   (    14 Core/Active    189 Core/Virtual   0 Active/Active     54 Active/Virtual)
 Total number of variables:        269

 Micro-Iterations solved by the two-step solver

 ITER. MIC  NCI  NEG     ENERGY(VAR)     ENERGY(PROJ)   ENERGY CHANGE     GRAD(0)  GRAD(ORB)   GRAD(CI)     STEP       TIME

   1    3    3    0     -77.73311776     -77.73913023   -0.00601247    0.12998631 0.00000139 0.00000000  0.62D-01      0.06
   2    2    3    0     -77.73903862     -77.73904203   -0.00000341    0.00289955 0.00000168 0.00000000  0.15D-02      0.09
   3    2    3    0     -77.73904203     -77.73904203   -0.00000000    0.00000195 0.00000000 0.00000000  0.12D-05      0.12

 ** WVFN ****  CONVERGENCE REACHED, FINAL GRADIENT:  0.10D-11



 Results for state 1.1
 =====================

 !MCSCF STATE  1.1 Energy             -78.048218537973
 Nuclear energy                        33.33789350
 Kinetic energy                        78.07769661
 One electron energy                 -170.13001433
 Two electron energy                   58.74390229
 Virial ratio                           1.99962245

 !MCSCF STATE  1.1 Dipole moment        0.00000000    -0.00000000    -0.00000000
 Dipole moment /Debye                   0.00000000    -0.00000000    -0.00000000

 Results for state 2.1
 =====================

 !MCSCF STATE  2.1 Energy             -77.675153656172
 Nuclear energy                        33.33789350
 Kinetic energy                        78.26278868
 One electron energy                 -169.57975135
 Two electron energy                   58.56670420
 Virial ratio                           1.99249151

 !MCSCF STATE  2.1 Dipole moment        0.00000000    -0.00000000    -0.00000000
 Dipole moment /Debye                   0.00000000    -0.00000000    -0.00000000

 Results for state 3.1
 =====================

 !MCSCF STATE  3.1 Energy             -77.493753900054
 Nuclear energy                        33.33789350
 Kinetic energy                        78.44788075
 One electron energy                 -169.02948838
 Two electron energy                   58.19784098
 Virial ratio                           1.98783744

 !MCSCF STATE  3.1 Dipole moment        0.00000000    -0.00000000    -0.00000000
 Dipole moment /Debye                   0.00000000    -0.00000000    -0.00000000

 State-averaged charge density matrix saved on record  2140.2 (density set 1)

 !MCSCF trans         <2.1|DMY|1.1>    -0.000024870213 au =    -0.000063209637 Debye
 !MCSCF trans         <3.1|DMY|2.1>    -0.000037763788 au =    -0.000095979688 Debye

 !MCSCF trans         <2.1|DMZ|1.1>    -1.511860337013 au =    -3.842513995346 Debye
 !MCSCF trans         <3.1|DMZ|2.1>    -2.295660751535 au =    -5.834605452886 Debye


 NATURAL ORBITALS (state averaged)
 =================================

  Orbital  Occupation    Energy     Coefficients
    1.1     2.00000   -11.24018     1 1s    0.70422     2 1s    0.70422
    2.1     2.00000   -11.23894     1 1s    0.70449     2 1s   -0.70449
    3.1     2.00000    -1.03883     1 1s    0.30916     2 1s    0.30916
    4.1     2.00000    -0.80008     1 1s    0.28658     2 1s   -0.28658
    5.1     2.00000    -0.65505     1 2py   0.32678     2 2py   0.32678
    6.1     2.00000    -0.59122     1 2pz   0.40972     2 2pz  -0.40972
    7.1     2.00000    -0.51795     1 2py   0.31358     2 2py  -0.31358
    8.1     1.00000     0.03185     1 2px   0.38030     1 2px   0.68073     2 2px  -0.38030     2 2px  -0.68073
    9.1     1.00000    -0.22284     1 2px   0.35619     1 2px   0.32212     2 2px   0.35619     2 2px   0.32212
   10.1    -0.00000     0.26216     1 1s   -1.48537     1 2pz  -0.63474     2 1s   -1.48537     2 2pz   0.63474     3 1s    1.03281
                                    4 1s    1.03285     5 1s    1.03285     6 1s    1.03281
   11.1    -0.00000     0.28919     1 2py   0.82375     2 2py   0.82375     3 1s   -1.10919     4 1s    1.12046     5 1s   -1.12046
                                    6 1s    1.10919
   12.1    -0.00000     0.30884     1 1s    1.99159     2 1s   -1.99159     3 1s   -1.08251     4 1s   -1.06806     5 1s    1.06806
                                    6 1s    1.08251
   13.1    -0.00000     0.38606     1 2py  -1.88252     2 2py   1.88252     3 1s    1.64797     4 1s   -1.64460     5 1s   -1.64460
                                    6 1s    1.64797
   14.1    -0.00000     0.48188     1 1s   -2.80619     1 2pz   2.83039     2 1s    2.80619     2 2pz   2.83039     3 1s   -0.57817
                                    4 1s   -0.57587     5 1s    0.57587     6 1s    0.57817
   15.1    -0.00000     0.66039     1 2pz  -0.55021     1 2pz   1.00560     2 2pz   0.55021     2 2pz  -1.00560
   16.1    -0.00000     0.75604     1 2py  -0.40813     1 2py   0.80840     2 2py  -0.40813     2 2py   0.80840     3 1s   -0.38170
                                    4 1s    0.38106     5 1s   -0.38106     6 1s    0.38170
   17.1    -0.00000     0.77413     1 2px  -0.75021     1 2px   0.63406     2 2px  -0.75021     2 2px   0.63406
   18.1    -0.00000     0.85615     1 1s   -0.88580     1 1s    1.45309     1 2pz   0.31543     2 1s   -0.88580     2 1s    1.45309
                                    2 2pz  -0.31543     3 1s   -0.39336     4 1s   -0.39356     5 1s   -0.39356     6 1s   -0.39336
   19.1    -0.00000     0.87220     1 2px  -0.80200     1 2px   1.09912     2 2px   0.80200     2 2px  -1.09912
   20.1    -0.00000     0.93033     1 1s   -0.70794     1 2pz   0.62079     1 2pz  -0.53839     2 1s    0.70794     2 2pz   0.62079
                                    2 2pz  -0.53839     3 1s    0.37463     4 1s    0.37574     5 1s   -0.37574     6 1s   -0.37463
   21.1    -0.00000     1.10991     1 2py  -0.68616     1 2py   1.11731     2 2py  -0.68616     2 2py   1.11731     3 1s    0.38229
                                    3 1s   -1.07387     4 1s   -0.38524     4 1s    1.07986     5 1s    0.38524     5 1s   -1.07986
                                    6 1s   -0.38229     6 1s    1.07387
   22.1    -0.00000     1.15064     1 2py   0.92443     1 2py  -2.99147     2 2py  -0.92443     2 2py   2.99147     3 1s    1.54416
                                    4 1s   -1.55177     5 1s   -1.55177     6 1s    1.54416
   23.1    -0.00000     1.21187     1 1s    1.03658     1 1s   -1.73384     1 2pz   0.36726     1 2pz  -0.49551     2 1s    1.03658
                                    2 1s   -1.73384     2 2pz  -0.36726     2 2pz   0.49551     3 1s   -0.43700     3 1s    0.87700
                                    4 1s   -0.43692     4 1s    0.85727     5 1s   -0.43692     5 1s    0.85727     6 1s   -0.43700
                                    6 1s    0.87700
   24.1    -0.00000     1.21659     1 1s   -0.34797     1 2pz  -0.64103     1 2pz   1.43659     2 1s    0.34797     2 2pz  -0.64103
                                    2 2pz   1.43659     3 1s    0.48415     3 1s   -0.93575     4 1s    0.48159     4 1s   -0.92803
                                    5 1s   -0.48159     5 1s    0.92803     6 1s   -0.48415     6 1s    0.93575
   25.1    -0.00000     1.31419     1 1s   -1.64547     1 1s    5.39149     1 2pz  -1.75844     2 1s    1.64547     2 1s   -5.39149
                                    2 2pz  -1.75844     3 1s   -0.45093     4 1s   -0.44951     5 1s    0.44951     6 1s    0.45093
   26.1    -0.00000     1.48665     1 2py   2.58605     2 2py  -2.58605     3 1s   -0.70431     3 1s   -0.70472     4 1s    0.70331
                                    4 1s    0.70431     5 1s    0.70331     5 1s    0.70431     6 1s   -0.70431     6 1s   -0.70472
   27.1    -0.00000     1.71133     1 3d1+  0.62037     2 3d1+ -0.62037
   28.1    -0.00000     1.81097     1 3d2-  0.68230     2 3d2-  0.68230
   29.1    -0.00000     2.09881     1 3d2-  0.73483     2 3d2- -0.73483
   30.1    -0.00000     2.20348     1 1s   -0.60152     1 3d2+  0.70466     2 1s   -0.60152     2 3d2+  0.70466     3 1s    0.36720
                                    4 1s    0.36691     5 1s    0.36691     6 1s    0.36720
   31.1    -0.00000     2.31467     1 2py   0.28044     1 3d1-  0.69241     2 2py   0.28044     2 3d1- -0.69241     3 1s   -0.52504
                                    4 1s    0.52539     5 1s   -0.52539     6 1s    0.52504
   32.1    -0.00000     2.38385     1 1s   -0.49386     1 2pz   0.27666     1 2pz  -0.44754     1 3d0   0.67578     2 1s   -0.49386
                                    2 2pz  -0.27666     2 2pz   0.44754     2 3d0   0.67578
   33.1    -0.00000     2.62173     1 1s    0.28990     1 1s   -1.43196     1 2pz   0.33506     1 3d2+  0.80118     2 1s   -0.28990
                                    2 1s    1.43196     2 2pz   0.33506     2 3d2+ -0.80118     3 1s    0.45908     4 1s    0.45698
                                    5 1s   -0.45698     6 1s   -0.45908
   34.1    -0.00000     2.67469     1 2px  -0.26286     1 3d1+  0.89586     2 2px   0.26286     2 3d1+  0.89586
   35.1    -0.00000     3.02083     1 2py   0.59213     1 3d1-  0.95940     2 2py  -0.59213     2 3d1-  0.95940     3 1s   -0.48188
                                    4 1s    0.48028     5 1s    0.48028     6 1s   -0.48188
   36.1    -0.00000     3.03230     1 1s    0.27517     1 1s    2.00254     1 2pz  -0.76067     1 2pz  -1.16764     1 3d0   1.10536
                                    2 1s   -0.27517     2 1s   -2.00254     2 2pz  -0.76067     2 2pz  -1.16764     2 3d0  -1.10536


 Natural orbital dump (state averaged) at molpro section  2140.2    (Orbital set 2)



 **********************************************************************************************************************************
 DATASETS  * FILE   NREC   LENGTH (MB)   RECORD NAMES
              1      20       31.36       500      610      700      900      950      970     1000      129      960     1100   
                                          VAR    BASINP    GEOM    SYMINP    ZMAT    AOBASIS   BASIS     P2S    ABASIS      S 
                                         1400     1410     1200     1210     1080     1600     1650     1300     1700     1380   
                                           T        V       H0       H01     AOSYM     SMH    MOLCAS    ERIS     OPER     JKOP   

              2       5        5.42       700     1000      520     2100     2140   
                                         GEOM     BASIS   MCVARS     RHF     MCSCF   

 PROGRAMS   *        TOTAL     MULTI    HF-SCF       INT
 CPU TIMES  *         0.55      0.15      0.10      0.22
 REAL TIME  *         0.86 SEC
 DISK USED  *        38.55 MB
 **********************************************************************************************************************************
 Molecular orbitals read from record     2140.2  Type=MCSCF/NATURAL (state averaged)
 Occupation numbers read from record     2140.2  Type=MCSCF/NATURAL (state averaged)
 Orbital energies read from record       2140.2  Type=MCSCF/NATURAL (state averaged)
 Redundancy group numbers read from rec  2140.2  Type=MCSCF/NATURAL (state averaged)

 MULTI/6-31G* energy=    -77.493753900054

           MULTI          HF-SCF
    -77.49375390    -78.02985260
 **********************************************************************************************************************************
 Molpro calculation terminated
