
 Primary working directories    : /scratch.local/johan406.molpro_temp/molpro.6EbNiAXspA
 Secondary working directories  : /scratch.local/johan406.molpro_temp/molpro.6EbNiAXspA
 Wavefunction directory         : /home/goodpast/johan406/wfu/
 Main file repository           : /scratch.local/johan406.molpro_temp/molpro.6EbNiAXspA/

 id        : roweumn

 Nodes     nprocs
 cn0416       1

 Using customized tuning parameters: mindgm=1; mindgv=20; mindgc=4; mindgr=1; noblas=0; minvec=7
 default implementation of scratch files=df  


 Variables initialized (934), CPU time= 0.01 sec
                                                                                 !leave this line blank
 
 gprint, orbitals=30
 memory, 125., m
 symmetry, nosym
 nelect=16
 basis=6-31g*
 
 geometry={
 C 0.000 0.000 0.676
 C 0.000 -0.000 -0.676
 H 0.000 0.921 1.223
 H 0.000 -0.922 1.223
 H 0.000 0.922 -1.223
 H 0.000 -0.921 -1.223
 }
 
 hf
 {multi,
 closed 7
 occ 9
 wf,spin=0;STATE,3
 }
 
 Commands  initialized (763), CPU time= 0.01 sec, 617 directives.
 Default parameters read. Elapsed time= 0.04 sec

 Checking input...
 Passed
1


                                         ***  PROGRAM SYSTEM MOLPRO  ***
                                       Copyright, TTI GmbH Stuttgart, 2015
                                    Version 2019.2 linked Oct 25 2019 22:50:27


 **********************************************************************************************************************************
 LABEL *                                                                                 
  64 bit serial version                                                                  DATE: 15-Mar-23          TIME: 16:57:00  
 **********************************************************************************************************************************

 SHA1:             8dbd9ae1082e4ce945b0f27595c9eb2d4aa09004
 **********************************************************************************************************************************


 Variable memory set to  125000000 words,  buffer space 

 SETTING NELECT         =        16.00000000                                  
 SETTING BASIS          =    6-31G*
 ZSYMEL=NOSYM


Geometry recognized as XYZ



 Recomputing integrals since basis changed


 Using spherical harmonics

 Library entry C      S 6-31G                selected for orbital group  1
 Library entry C      P 6-31G                selected for orbital group  1
 Library entry C      D 6-31G*               selected for orbital group  1
 Library entry H      S 6-31G                selected for orbital group  2


 PROGRAM * SEWARD (Integral evaluation for generally contracted gaussian basis sets)     Author: Roland Lindh, 1990

 Geometry written to block  1 of record 700


 Point group  C1  



 ATOMIC COORDINATES

 NR  ATOM    CHARGE       X              Y              Z

   1  C       6.00    0.000000000    0.000000000    1.277454860
   2  C       6.00    0.000000000   -0.000000000   -1.277454860
   3  H       1.00    0.000000000    1.740437761    2.311135050
   4  H       1.00    0.000000000   -1.742327487    2.311135050
   5  H       1.00    0.000000000    1.742327487   -2.311135050
   6  H       1.00    0.000000000   -1.740437761   -2.311135050

 Bond lengths in Bohr (Angstrom)

 1-2  2.554909720  1-3  2.024257477  1-4  2.025882476  2-5  2.025882476  2-6  2.024257477
     ( 1.352000000)     ( 1.071190926)     ( 1.072050838)     ( 1.072050838)     ( 1.071190926)

 Bond angles

  1-2-5  120.67961726   1-2-6  120.70690878   2-1-3  120.70690878   2-1-4  120.67961726

  3-1-4  118.61347397   5-2-6  118.61347397

 NUCLEAR CHARGE:                   16
 NUMBER OF PRIMITIVE AOS:          72
 NUMBER OF SYMMETRY AOS:           70
 NUMBER OF CONTRACTIONS:           36   (   36A   )
 NUMBER OF CORE ORBITALS:           2   (    2A   )
 NUMBER OF VALENCE ORBITALS:       12   (   12A   )


 NUCLEAR REPULSION ENERGY   33.31135130

 EXTRA SYMMETRY OF AOS IN SYMMETRY 1:   1 1 1 2 1 1 2 1 1 1   2 2 1 1 1 1 1 2 1 1   2 1 1 1 2 2 1 1 1 1   1 1 1 1 1 1

 Eigenvalues of metric

         1 0.859E-02 0.167E-01 0.384E-01 0.471E-01 0.687E-01 0.201E+00 0.211E+00 0.229E+00


 Contracted 2-electron integrals neglected if value below      1.0D-11
 AO integral compression algorithm  1   Integral accuracy      1.0D-11

     0.786 MB (compressed) written to integral file ( 38.0%)


 NUMBER OF SORTED TWO-ELECTRON INTEGRALS:     222111.     BUFFER LENGTH:  32768
 NUMBER OF SEGMENTS:   1  SEGMENT LENGTH:     222111      RECORD LENGTH: 524288

 Memory used in sort:       0.78 MW

 SORT1 READ      284735. AND WROTE       98703. INTEGRALS IN      1 RECORDS. CPU TIME:     0.01 SEC, REAL TIME:     0.01 SEC
 SORT2 READ       98703. AND WROTE      222111. INTEGRALS IN      3 RECORDS. CPU TIME:     0.01 SEC, REAL TIME:     0.02 SEC

 FILE SIZES:   FILE 1:    30.9 MBYTE,  FILE 4:     4.2 MBYTE,   TOTAL:     35.1 MBYTE

 OPERATOR DM      FOR CENTER  0  COORDINATES:    0.000000    0.000000    0.000000


 **********************************************************************************************************************************
 DATASETS  * FILE   NREC   LENGTH (MB)   RECORD NAMES
              1      19       30.63       500      610      700      900      950      970     1000      129      960     1100   
                                          VAR    BASINP    GEOM    SYMINP    ZMAT    AOBASIS   BASIS     P2S    ABASIS      S 
                                         1400     1410     1200     1210     1080     1600     1650     1300     1700   
                                           T        V       H0       H01     AOSYM     SMH    MOLCAS    ERIS     OPER   

 PROGRAMS   *        TOTAL       INT
 CPU TIMES  *         0.31      0.21
 REAL TIME  *         0.49 SEC
 DISK USED  *        35.45 MB
 **********************************************************************************************************************************


 PROGRAM * RHF-SCF (CLOSED SHELL)       Authors: W. Meyer, H.-J. Werner


 NUMBER OF ELECTRONS:       8+    8-    SPACE SYMMETRY=1    SPIN SYMMETRY: Singlet 
 CONVERGENCE THRESHOLDS:    1.00E-05 (Density)    1.00E-07 (Energy)
 MAX. NUMBER OF ITERATIONS:       60
 INTERPOLATION TYPE:            DIIS
 INTERPOLATION STEPS:              2 (START)      1 (STEP)
 LEVEL SHIFTS:                  0.00 (CLOSED)  0.00 (OPEN) 



 Orbital guess generated from atomic densities. Full valence occupancy:    8

 Molecular orbital dump at record        2100.2

 Initial occupancy:   8

 ITERATION    DDIFF          GRAD             ENERGY        2-EL.EN.            DIPOLE MOMENTS         DIIS   ORB.
    1      0.000D+00      0.000D+00       -78.00598385    118.488729   -0.00000   -0.00000   -0.00000    0    start
    2      0.000D+00      0.847D-02       -78.02747529    116.724946    0.00000    0.00000    0.00000    1    diag
    3      0.811D-02      0.283D-02       -78.02949490    117.331460   -0.00000    0.00000   -0.00000    2    diag
    4      0.256D-02      0.703D-03       -78.02969656    117.232699    0.00000   -0.00000    0.00000    3    diag
    5      0.104D-02      0.658D-04       -78.02969853    117.235455    0.00000   -0.00000    0.00000    4    diag
    6      0.141D-03      0.727D-05       -78.02969856    117.235055    0.00000    0.00000    0.00000    5    diag
    7      0.135D-04      0.105D-05       -78.02969856    117.235063   -0.00000   -0.00000    0.00000    6    diag
    8      0.147D-05      0.117D-06       -78.02969856    117.235057   -0.00000    0.00000    0.00000    0    orth

 Final occupancy:   8

 !RHF STATE  1.1 Energy               -78.029698555895
 Nuclear energy                        33.31135130
 One-electron energy                 -169.95857854
 Two-electron energy                   58.61752869
 Virial quotient                       -1.00028033
 !RHF STATE  1.1 Dipole moment         -0.00000000     0.00000000     0.00000000
 Dipole moment /Debye                  -0.00000000     0.00000000     0.00000000

 ELECTRON ORBITALS
 =================

  Orbital  Occupation    Energy     Coefficients
    1.1     2.00000   -11.22552     1 1s    0.70420     2 1s    0.70420
    2.1     2.00000   -11.22403     1 1s    0.70453     2 1s   -0.70453
    3.1     2.00000    -1.02414     1 1s    0.30117     2 1s    0.30117
    4.1     2.00000    -0.79259     2 1s   -0.24219
    5.1     2.00000    -0.64231     1 2py   0.32141     2 2py   0.32141
    6.1     2.00000    -0.57592     1 2pz   0.40785     2 2pz  -0.40785
    7.1     2.00000    -0.51166     1 2py   0.30750     2 2py  -0.30750
    8.1     2.00000    -0.36558     1 2px   0.37161     1 2px   0.31092     2 2px   0.37161     2 2px   0.31092
    9.1     0.00000     0.17578     1 2px   0.34330     1 2px   0.72539     2 2px  -0.34330     2 2px  -0.72539
   10.1     0.00000     0.26495     1 1s   -1.48949     1 2pz  -0.62850     2 1s   -1.48949     2 2pz   0.62850     3 1s    1.03357
                                    4 1s    1.03346     5 1s    1.03346     6 1s    1.03357
   11.1     0.00000     0.29748     1 2py   0.25091     1 2py   0.83321     2 2py   0.25091     2 2py   0.83321     3 1s   -1.11556
                                    4 1s    1.13068     5 1s   -1.13068     6 1s    1.11556
   12.1     0.00000     0.31175     1 1s    1.96543     2 1s   -1.96543     3 1s   -1.08947     4 1s   -1.07098     5 1s    1.07098
                                    6 1s    1.08947
   13.1     0.00000     0.38990     1 2py  -1.89267     2 2py   1.89267     3 1s    1.65309     4 1s   -1.64982     5 1s   -1.64982
                                    6 1s    1.65309
   14.1     0.00000     0.48404     1 1s   -2.80989     1 2pz   2.83942     2 1s    2.80989     2 2pz   2.83942     3 1s   -0.56821
                                    4 1s   -0.56587     5 1s    0.56587     6 1s    0.56821
   15.1     0.00000     0.67141     1 1s    0.27487     1 2pz  -0.55717     1 2pz   1.02616     2 1s    0.27487     2 2pz   0.55717
                                    2 2pz  -1.02616
   16.1     0.00000     0.76611     1 2py  -0.39739     1 2py   0.80181     2 2py  -0.39739     2 2py   0.80181     3 1s   -0.38566
                                    4 1s    0.38507     5 1s   -0.38507     6 1s    0.38566
   17.1     0.00000     0.78048     1 2px  -0.74389     1 2px   0.63950     2 2px  -0.74389     2 2px   0.63950
   18.1     0.00000     0.85965     1 1s   -0.89137     1 1s    1.42568     1 2pz   0.26520     2 1s   -0.89137     2 1s    1.42568
                                    2 2pz  -0.26520     3 1s   -0.39054     4 1s   -0.39073     5 1s   -0.39073     6 1s   -0.39054
   19.1     0.00000     0.88917     1 2px  -0.81718     1 2px   1.06877     2 2px   0.81718     2 2px  -1.06877
   20.1     0.00000     0.94763     1 1s   -0.84096     1 2pz   0.61869     1 2pz  -0.47128     2 1s    0.84096     2 2pz   0.61869
                                    2 2pz  -0.47128     3 1s    0.37274     4 1s    0.37384     5 1s   -0.37384     6 1s   -0.37274
   21.1     0.00000     1.12579     1 2py  -0.69745     1 2py   1.11451     2 2py  -0.69745     2 2py   1.11451     3 1s    0.38194
                                    3 1s   -1.06408     4 1s   -0.38538     4 1s    1.07111     5 1s    0.38538     5 1s   -1.07111
                                    6 1s   -0.38194     6 1s    1.06408
   22.1     0.00000     1.16258     1 2py   0.92700     1 2py  -2.98218     2 2py  -0.92700     2 2py   2.98218     3 1s    1.53478
                                    4 1s   -1.54396     5 1s   -1.54396     6 1s    1.53478
   23.1     0.00000     1.21491     1 1s    1.04168     1 1s   -1.73823     1 2pz   0.36285     1 2pz  -0.48945     2 1s    1.04168
                                    2 1s   -1.73823     2 2pz  -0.36285     2 2pz   0.48945     3 1s   -0.43666     3 1s    0.87902
                                    4 1s   -0.43631     4 1s    0.85662     5 1s   -0.43631     5 1s    0.85662     6 1s   -0.43666
                                    6 1s    0.87902
   24.1     0.00000     1.21920     1 1s   -0.42383     1 2pz  -0.62661     1 2pz   1.34930     2 1s    0.42383     2 2pz  -0.62661
                                    2 2pz   1.34930     3 1s    0.48332     3 1s   -0.95585     4 1s    0.48032     4 1s   -0.94703
                                    5 1s   -0.48032     5 1s    0.94703     6 1s   -0.48332     6 1s    0.95585
   25.1     0.00000     1.33190     1 1s   -1.62556     1 1s    5.36407     1 2pz  -1.81857     2 1s    1.62556     2 1s   -5.36407
                                    2 2pz  -1.81857     3 1s   -0.40524     4 1s   -0.40405     5 1s    0.40405     6 1s    0.40524
   26.1     0.00000     1.49404     1 2py   2.57713     2 2py  -2.57713     3 1s   -0.70495     3 1s   -0.70184     4 1s    0.70396
                                    4 1s    0.70141     5 1s    0.70396     5 1s    0.70141     6 1s   -0.70495     6 1s   -0.70184
   27.1     0.00000     1.73565     1 3d1+  0.62088     2 3d1+ -0.62088
   28.1     0.00000     1.82501     1 3d2-  0.68248     2 3d2-  0.68248
   29.1     0.00000     2.12059     1 3d2-  0.73460     2 3d2- -0.73460
   30.1     0.00000     2.21904     1 1s   -0.60629     1 3d2+  0.70467     2 1s   -0.60629     2 3d2+  0.70467     3 1s    0.36472
                                    4 1s    0.36443     5 1s    0.36443     6 1s    0.36472
   31.1     0.00000     2.32988     1 2py   0.27284     1 3d1-  0.69450     2 2py   0.27284     2 3d1- -0.69450     3 1s   -0.52167
                                    4 1s    0.52200     5 1s   -0.52200     6 1s    0.52167
   32.1     0.00000     2.40151     1 1s   -0.49384     1 2pz   0.27074     1 2pz  -0.44450     1 3d0   0.67481     2 1s   -0.49384
                                    2 2pz  -0.27074     2 2pz   0.44450     2 3d0   0.67481
   33.1     0.00000     2.63967     1 1s    0.28865     1 1s   -1.41904     1 2pz   0.33270     1 3d2+  0.80161     2 1s   -0.28865
                                    2 1s    1.41904     2 2pz   0.33270     2 3d2+ -0.80161     3 1s    0.45586     4 1s    0.45379
                                    5 1s   -0.45379     6 1s   -0.45586
   34.1     0.00000     2.69471     1 2px  -0.26185     1 3d1+  0.89428     2 2px   0.26185     2 3d1+  0.89428
   35.1     0.00000     3.03158     1 2py   0.59145     1 3d1-  0.95860     2 2py  -0.59145     2 3d1-  0.95860     3 1s   -0.47971
                                    4 1s    0.47810     5 1s    0.47810     6 1s   -0.47971
   36.1     0.00000     3.04760     1 1s    0.27591     1 1s    1.97552     1 2pz  -0.76259     1 2pz  -1.15450     1 3d0   1.10249
                                    2 1s   -0.27591     2 1s   -1.97552     2 2pz  -0.76259     2 2pz  -1.15450     2 3d0  -1.10249


 HOMO      8.1    -0.365582 =      -9.9480eV
 LUMO      9.1     0.175776 =       4.7831eV
 LUMO-HOMO         0.541358 =      14.7311eV


 **********************************************************************************************************************************
 DATASETS  * FILE   NREC   LENGTH (MB)   RECORD NAMES
              1      19       30.63       500      610      700      900      950      970     1000      129      960     1100   
                                          VAR    BASINP    GEOM    SYMINP    ZMAT    AOBASIS   BASIS     P2S    ABASIS      S 
                                         1400     1410     1200     1210     1080     1600     1650     1300     1700   
                                           T        V       H0       H01     AOSYM     SMH    MOLCAS    ERIS     OPER   

              2       4        2.86       700     1000      520     2100   
                                         GEOM     BASIS   MCVARS     RHF  

 PROGRAMS   *        TOTAL    HF-SCF       INT
 CPU TIMES  *         0.40      0.10      0.21
 REAL TIME  *         0.63 SEC
 DISK USED  *        35.45 MB
 **********************************************************************************************************************************


 PROGRAM * MULTI (Direct Multiconfiguration SCF)       Authors: P.J. Knowles, H.-J. Werner (1984)


 Number of closed-shell orbitals:   7 (   7 )
 Number of active  orbitals:        2 (   2 )
 Number of external orbitals:      27 (  27 )

 State symmetry 1

 Number of electrons:     2    Spin symmetry=Singlet   Space symmetry=1
 Number of states:        3
 Number of CSFs:          3   (4 determinants, 4 intermediate states)

 Molecular orbitals read from record     2100.2  Type=RHF/CANONICAL (state 1.1)

 EXTRA SYMMETRY OF MOS IN SYMMETRY 1:   1 1 1 1 1 1 1 2 2 1   1 1 1 1 1 1 2 1 2 1   1 1 1 1 1 1 2 2 2 1   1 1 1 2 1 1

 Wavefunction dump at record             2140.2

 Convergence thresholds  0.10E-01 (gradient)  0.10E-05 (energy)  0.10E-02 (step length)

 Weight factors for state symmetry  1:    0.33333   0.33333   0.33333

 Number of orbital rotations:      257   (    14 Core/Active    189 Core/Virtual   0 Active/Active     54 Active/Virtual)
 Total number of variables:        269

 Micro-Iterations solved by the two-step solver

 ITER. MIC  NCI  NEG     ENERGY(VAR)     ENERGY(PROJ)   ENERGY CHANGE     GRAD(0)  GRAD(ORB)   GRAD(CI)     STEP       TIME

   1    3    3    0     -77.73372647     -77.73970517   -0.00597870    0.12957873 0.00000137 0.00000000  0.61D-01      0.06
   2    2    3    0     -77.73961452     -77.73961789   -0.00000336    0.00287938 0.00000166 0.00000000  0.15D-02      0.09
   3    2    3    0     -77.73961789     -77.73961789   -0.00000000    0.00000192 0.00000000 0.00000000  0.12D-05      0.12

 ** WVFN ****  CONVERGENCE REACHED, FINAL GRADIENT:  0.99D-12



 Results for state 1.1
 =====================

 !MCSCF STATE  1.1 Energy             -78.048183204341
 Nuclear energy                        33.31135130
 Kinetic energy                        78.07070423
 One electron energy                 -170.07546225
 Two electron energy                   58.71592775
 Virial ratio                           1.99971153

 !MCSCF STATE  1.1 Dipole moment        0.00000000     0.00000000     0.00000000
 Dipole moment /Debye                   0.00000000     0.00000000     0.00000000

 Results for state 2.1
 =====================

 !MCSCF STATE  2.1 Energy             -77.675620075453
 Nuclear energy                        33.31135130
 Kinetic energy                        78.25644082
 One electron energy                 -169.52924244
 Two electron energy                   58.54227107
 Virial ratio                           1.99257798

 !MCSCF STATE  2.1 Dipole moment        0.00000000     0.00000000     0.00000000
 Dipole moment /Debye                   0.00000000     0.00000000     0.00000000

 Results for state 3.1
 =====================

 !MCSCF STATE  3.1 Energy             -77.495050388435
 Nuclear energy                        33.31135130
 Kinetic energy                        78.44217741
 One electron energy                 -168.98302263
 Two electron energy                   58.17662094
 Virial ratio                           1.98792579

 !MCSCF STATE  3.1 Dipole moment        0.00000000     0.00000000    -0.00000000
 Dipole moment /Debye                   0.00000000     0.00000000    -0.00000000

 State-averaged charge density matrix saved on record  2140.2 (density set 1)

 !MCSCF trans         <2.1|DMY|1.1>    -0.000024837702 au =    -0.000063127007 Debye
 !MCSCF trans         <3.1|DMY|2.1>    -0.000037773695 au =    -0.000096004868 Debye

 !MCSCF trans         <2.1|DMZ|1.1>    -1.511979832243 au =    -3.842817702033 Debye
 !MCSCF trans         <3.1|DMZ|2.1>    -2.299450430458 au =    -5.844237225045 Debye


 NATURAL ORBITALS (state averaged)
 =================================

  Orbital  Occupation    Energy     Coefficients
    1.1     2.00000   -11.24036     1 1s    0.70422     2 1s    0.70422
    2.1     2.00000   -11.23913     1 1s    0.70449     2 1s   -0.70449
    3.1     2.00000    -1.03811     1 1s    0.30907     2 1s    0.30907
    4.1     2.00000    -0.80027     1 1s    0.28638     2 1s   -0.28638
    5.1     2.00000    -0.65473     1 2py   0.32671     2 2py   0.32671
    6.1     2.00000    -0.59084     1 2pz   0.40966     2 2pz  -0.40966
    7.1     2.00000    -0.51822     1 2py   0.31365     2 2py  -0.31365
    8.1     1.00000    -0.22246     1 2px   0.35597     1 2px   0.32253     2 2px   0.35597     2 2px   0.32253
    9.1     1.00000     0.03147     1 2px   0.38035     1 2px   0.67968     2 2px  -0.38035     2 2px  -0.67968
   10.1    -0.00000     0.26217     1 1s   -1.48540     1 2pz  -0.63438     2 1s   -1.48540     2 2pz   0.63438     3 1s    1.03295
                                    4 1s    1.03300     5 1s    1.03300     6 1s    1.03295
   11.1    -0.00000     0.28936     1 2py   0.82430     2 2py   0.82430     3 1s   -1.10927     4 1s    1.12073     5 1s   -1.12073
                                    6 1s    1.10927
   12.1    -0.00000     0.30869     1 1s    1.99036     2 1s   -1.99036     3 1s   -1.08194     4 1s   -1.06728     5 1s    1.06728
                                    6 1s    1.08194
   13.1    -0.00000     0.38594     1 2py  -1.87911     2 2py   1.87911     3 1s    1.64664     4 1s   -1.64328     5 1s   -1.64328
                                    6 1s    1.64664
   14.1    -0.00000     0.48141     1 1s   -2.78585     1 2pz   2.82162     2 1s    2.78585     2 2pz   2.82162     3 1s   -0.57852
                                    4 1s   -0.57622     5 1s    0.57622     6 1s    0.57852
   15.1    -0.00000     0.66110     1 2pz  -0.55097     1 2pz   1.00521     2 2pz   0.55097     2 2pz  -1.00521
   16.1    -0.00000     0.75550     1 2py  -0.40820     1 2py   0.80771     2 2py  -0.40820     2 2py   0.80771     3 1s   -0.38144
                                    4 1s    0.38080     5 1s   -0.38080     6 1s    0.38144
   17.1    -0.00000     0.77455     1 2px  -0.75067     1 2px   0.63405     2 2px  -0.75067     2 2px   0.63405
   18.1    -0.00000     0.85624     1 1s   -0.88607     1 1s    1.45327     1 2pz   0.31473     2 1s   -0.88607     2 1s    1.45327
                                    2 2pz  -0.31473     3 1s   -0.39330     4 1s   -0.39350     5 1s   -0.39350     6 1s   -0.39330
   19.1    -0.00000     0.87197     1 2px  -0.80183     1 2px   1.09825     2 2px   0.80183     2 2px  -1.09825
   20.1    -0.00000     0.92889     1 1s   -0.68978     1 2pz   0.62185     1 2pz  -0.54983     2 1s    0.68978     2 2pz   0.62185
                                    2 2pz  -0.54983     3 1s    0.37376     4 1s    0.37487     5 1s   -0.37487     6 1s   -0.37376
   21.1    -0.00000     1.11059     1 2py  -0.68651     1 2py   1.11671     2 2py  -0.68651     2 2py   1.11671     3 1s    0.38254
                                    3 1s   -1.07333     4 1s   -0.38552     4 1s    1.07937     5 1s    0.38552     5 1s   -1.07937
                                    6 1s   -0.38254     6 1s    1.07333
   22.1    -0.00000     1.15044     1 2py   0.92418     1 2py  -2.98684     2 2py  -0.92418     2 2py   2.98684     3 1s    1.54316
                                    4 1s   -1.55075     5 1s   -1.55075     6 1s    1.54316
   23.1    -0.00000     1.21183     1 1s    1.03667     1 1s   -1.73405     1 2pz   0.36692     1 2pz  -0.49536     2 1s    1.03667
                                    2 1s   -1.73405     2 2pz  -0.36692     2 2pz   0.49536     3 1s   -0.43702     3 1s    0.87708
                                    4 1s   -0.43695     4 1s    0.85740     5 1s   -0.43695     5 1s    0.85740     6 1s   -0.43702
                                    6 1s    0.87708
   24.1    -0.00000     1.21632     1 1s   -0.34003     1 2pz  -0.64105     1 2pz   1.44252     2 1s    0.34003     2 2pz  -0.64105
                                    2 2pz   1.44252     3 1s    0.48506     3 1s   -0.93319     4 1s    0.48247     4 1s   -0.92541
                                    5 1s   -0.48247     5 1s    0.92541     6 1s   -0.48506     6 1s    0.93319
   25.1    -0.00000     1.31324     1 1s   -1.64692     1 1s    5.37667     1 2pz  -1.74498     2 1s    1.64692     2 1s   -5.37667
                                    2 2pz  -1.74498     3 1s   -0.45582     4 1s   -0.45437     5 1s    0.45437     6 1s    0.45582
   26.1    -0.00000     1.48542     1 2py   2.58036     2 2py  -2.58036     3 1s   -0.70375     3 1s   -0.70296     4 1s    0.70275
                                    4 1s    0.70256     5 1s    0.70275     5 1s    0.70256     6 1s   -0.70375     6 1s   -0.70296
   27.1    -0.00000     1.71078     1 3d1+  0.62064     2 3d1+ -0.62064
   28.1    -0.00000     1.81169     1 3d2-  0.68248     2 3d2-  0.68248
   29.1    -0.00000     2.09806     1 3d2-  0.73460     2 3d2- -0.73460
   30.1    -0.00000     2.20399     1 1s   -0.60201     1 3d2+  0.70374     2 1s   -0.60201     2 3d2+  0.70374     3 1s    0.36607
                                    4 1s    0.36577     5 1s    0.36577     6 1s    0.36607
   31.1    -0.00000     2.31428     1 2py   0.27973     1 3d1-  0.69275     2 2py   0.27973     2 3d1- -0.69275     3 1s   -0.52502
                                    4 1s    0.52537     5 1s   -0.52537     6 1s    0.52502
   32.1    -0.00000     2.38182     1 1s   -0.49164     1 2pz   0.27615     1 2pz  -0.44764     1 3d0   0.67416     2 1s   -0.49164
                                    2 2pz  -0.27615     2 2pz   0.44764     2 3d0   0.67416
   33.1    -0.00000     2.62055     1 1s    0.28957     1 1s   -1.42508     1 2pz   0.33192     1 3d2+  0.80088     2 1s   -0.28957
                                    2 1s    1.42508     2 2pz   0.33192     2 3d2+ -0.80088     3 1s    0.45890     4 1s    0.45680
                                    5 1s   -0.45680     6 1s   -0.45890
   34.1    -0.00000     2.67259     1 2px  -0.26250     1 3d1+  0.89465     2 2px   0.26250     2 3d1+  0.89465
   35.1    -0.00000     3.01925     1 2py   0.59203     1 3d1-  0.95818     2 2py  -0.59203     2 3d1-  0.95818     3 1s   -0.48208
                                    4 1s    0.48047     5 1s    0.48047     6 1s   -0.48208
   36.1    -0.00000     3.03018     1 1s    0.26891     1 1s    2.00049     1 2pz  -0.75523     1 2pz  -1.16748     1 3d0   1.10405
                                    2 1s   -0.26891     2 1s   -2.00049     2 2pz  -0.75523     2 2pz  -1.16748     2 3d0  -1.10405


 Natural orbital dump (state averaged) at molpro section  2140.2    (Orbital set 2)



 **********************************************************************************************************************************
 DATASETS  * FILE   NREC   LENGTH (MB)   RECORD NAMES
              1      20       31.36       500      610      700      900      950      970     1000      129      960     1100   
                                          VAR    BASINP    GEOM    SYMINP    ZMAT    AOBASIS   BASIS     P2S    ABASIS      S 
                                         1400     1410     1200     1210     1080     1600     1650     1300     1700     1380   
                                           T        V       H0       H01     AOSYM     SMH    MOLCAS    ERIS     OPER     JKOP   

              2       5        5.42       700     1000      520     2100     2140   
                                         GEOM     BASIS   MCVARS     RHF     MCSCF   

 PROGRAMS   *        TOTAL     MULTI    HF-SCF       INT
 CPU TIMES  *         0.55      0.15      0.10      0.21
 REAL TIME  *         0.81 SEC
 DISK USED  *        38.55 MB
 **********************************************************************************************************************************
 Molecular orbitals read from record     2140.2  Type=MCSCF/NATURAL (state averaged)
 Occupation numbers read from record     2140.2  Type=MCSCF/NATURAL (state averaged)
 Orbital energies read from record       2140.2  Type=MCSCF/NATURAL (state averaged)
 Redundancy group numbers read from rec  2140.2  Type=MCSCF/NATURAL (state averaged)

 MULTI/6-31G* energy=    -77.495050388435

           MULTI          HF-SCF
    -77.49505039    -78.02969856
 **********************************************************************************************************************************
 Molpro calculation terminated
