
 Primary working directories    : /scratch.local/johan406.molpro_temp/molpro.UlCX6F9ou4
 Secondary working directories  : /scratch.local/johan406.molpro_temp/molpro.UlCX6F9ou4
 Wavefunction directory         : /home/goodpast/johan406/wfu/
 Main file repository           : /scratch.local/johan406.molpro_temp/molpro.UlCX6F9ou4/

 id        : roweumn

 Nodes     nprocs
 cn0416       1

 Using customized tuning parameters: mindgm=1; mindgv=20; mindgc=4; mindgr=1; noblas=0; minvec=7
 default implementation of scratch files=df  


 Variables initialized (934), CPU time= 0.00 sec
                                                                                 !leave this line blank
 
 gprint, orbitals=30
 memory, 125., m
 symmetry, nosym
 nelect=16
 basis=6-31g*
 
 geometry={
 C 0.000 0.000 0.677
 C 0.000 -0.000 -0.677
 H 0.000 0.918 1.228
 H 0.000 -0.919 1.227
 H 0.000 0.919 -1.227
 H 0.000 -0.918 -1.228
 }
 
 hf
 {multi,
 closed 7
 occ 9
 wf,spin=0;STATE,3
 }
 
 Commands  initialized (763), CPU time= 0.01 sec, 617 directives.
 Default parameters read. Elapsed time= 0.04 sec

 Checking input...
 Passed
1


                                         ***  PROGRAM SYSTEM MOLPRO  ***
                                       Copyright, TTI GmbH Stuttgart, 2015
                                    Version 2019.2 linked Oct 25 2019 22:50:27


 **********************************************************************************************************************************
 LABEL *                                                                                 
  64 bit serial version                                                                  DATE: 15-Mar-23          TIME: 16:57:39  
 **********************************************************************************************************************************

 SHA1:             8dbd9ae1082e4ce945b0f27595c9eb2d4aa09004
 **********************************************************************************************************************************


 Variable memory set to  125000000 words,  buffer space 

 SETTING NELECT         =        16.00000000                                  
 SETTING BASIS          =    6-31G*
 ZSYMEL=NOSYM


Geometry recognized as XYZ



 Recomputing integrals since basis changed


 Using spherical harmonics

 Library entry C      S 6-31G                selected for orbital group  1
 Library entry C      P 6-31G                selected for orbital group  1
 Library entry C      D 6-31G*               selected for orbital group  1
 Library entry H      S 6-31G                selected for orbital group  2


 PROGRAM * SEWARD (Integral evaluation for generally contracted gaussian basis sets)     Author: Roland Lindh, 1990

 Geometry written to block  1 of record 700


 Point group  C1  



 ATOMIC COORDINATES

 NR  ATOM    CHARGE       X              Y              Z

   1  C       6.00    0.000000000    0.000000000    1.279344586
   2  C       6.00    0.000000000   -0.000000000   -1.279344586
   3  H       1.00    0.000000000    1.734768582    2.320583681
   4  H       1.00    0.000000000   -1.736658308    2.318693955
   5  H       1.00    0.000000000    1.736658308   -2.318693955
   6  H       1.00    0.000000000   -1.734768582   -2.320583681

 Bond lengths in Bohr (Angstrom)

 1-2  2.558689173  1-3  2.023264908  1-4  2.023914324  2-5  2.023914324  2-6  2.023264908
     ( 1.354000000)     ( 1.070665681)     ( 1.071009337)     ( 1.071009337)     ( 1.070665681)

 Bond angles

  1-2-5  120.89953391   1-2-6  120.97293414   2-1-3  120.97293414   2-1-4  120.89953391

  3-1-4  118.12753196   5-2-6  118.12753196

 NUCLEAR CHARGE:                   16
 NUMBER OF PRIMITIVE AOS:          72
 NUMBER OF SYMMETRY AOS:           70
 NUMBER OF CONTRACTIONS:           36   (   36A   )
 NUMBER OF CORE ORBITALS:           2   (    2A   )
 NUMBER OF VALENCE ORBITALS:       12   (   12A   )


 NUCLEAR REPULSION ENERGY   33.28871920

 EXTRA SYMMETRY OF AOS IN SYMMETRY 1:   1 1 1 2 1 1 2 1 1 1   2 2 1 1 1 1 1 2 1 1   2 1 1 1 2 2 1 1 1 1   1 1 1 1 1 1

 Eigenvalues of metric

         1 0.868E-02 0.169E-01 0.380E-01 0.467E-01 0.690E-01 0.202E+00 0.211E+00 0.229E+00


 Contracted 2-electron integrals neglected if value below      1.0D-11
 AO integral compression algorithm  1   Integral accuracy      1.0D-11

     0.786 MB (compressed) written to integral file ( 37.9%)


 NUMBER OF SORTED TWO-ELECTRON INTEGRALS:     222111.     BUFFER LENGTH:  32768
 NUMBER OF SEGMENTS:   1  SEGMENT LENGTH:     222111      RECORD LENGTH: 524288

 Memory used in sort:       0.78 MW

 SORT1 READ      284735. AND WROTE       98699. INTEGRALS IN      1 RECORDS. CPU TIME:     0.00 SEC, REAL TIME:     0.01 SEC
 SORT2 READ       98699. AND WROTE      222111. INTEGRALS IN      3 RECORDS. CPU TIME:     0.02 SEC, REAL TIME:     0.02 SEC

 FILE SIZES:   FILE 1:    30.9 MBYTE,  FILE 4:     4.2 MBYTE,   TOTAL:     35.1 MBYTE

 OPERATOR DM      FOR CENTER  0  COORDINATES:    0.000000    0.000000    0.000000


 **********************************************************************************************************************************
 DATASETS  * FILE   NREC   LENGTH (MB)   RECORD NAMES
              1      19       30.63       500      610      700      900      950      970     1000      129      960     1100   
                                          VAR    BASINP    GEOM    SYMINP    ZMAT    AOBASIS   BASIS     P2S    ABASIS      S 
                                         1400     1410     1200     1210     1080     1600     1650     1300     1700   
                                           T        V       H0       H01     AOSYM     SMH    MOLCAS    ERIS     OPER   

 PROGRAMS   *        TOTAL       INT
 CPU TIMES  *         0.31      0.22
 REAL TIME  *         0.51 SEC
 DISK USED  *        35.45 MB
 **********************************************************************************************************************************


 PROGRAM * RHF-SCF (CLOSED SHELL)       Authors: W. Meyer, H.-J. Werner


 NUMBER OF ELECTRONS:       8+    8-    SPACE SYMMETRY=1    SPIN SYMMETRY: Singlet 
 CONVERGENCE THRESHOLDS:    1.00E-05 (Density)    1.00E-07 (Energy)
 MAX. NUMBER OF ITERATIONS:       60
 INTERPOLATION TYPE:            DIIS
 INTERPOLATION STEPS:              2 (START)      1 (STEP)
 LEVEL SHIFTS:                  0.00 (CLOSED)  0.00 (OPEN) 



 Orbital guess generated from atomic densities. Full valence occupancy:    8

 Molecular orbital dump at record        2100.2

 Initial occupancy:   8

 ITERATION    DDIFF          GRAD             ENERGY        2-EL.EN.            DIPOLE MOMENTS         DIIS   ORB.
    1      0.000D+00      0.000D+00       -78.00593437    118.430916   -0.00000   -0.00000    0.00000    0    start
    2      0.000D+00      0.844D-02       -78.02737860    116.679368   -0.00000    0.00000    0.00000    1    diag
    3      0.810D-02      0.282D-02       -78.02938779    117.282441    0.00000    0.00000    0.00000    2    diag
    4      0.255D-02      0.702D-03       -78.02958933    117.183533   -0.00000    0.00000    0.00000    3    diag
    5      0.104D-02      0.657D-04       -78.02959130    117.186298   -0.00000    0.00000   -0.00000    4    diag
    6      0.141D-03      0.730D-05       -78.02959132    117.185898   -0.00000   -0.00000    0.00000    5    diag
    7      0.135D-04      0.107D-05       -78.02959132    117.185906   -0.00000    0.00000   -0.00000    6    diag
    8      0.150D-05      0.119D-06       -78.02959132    117.185900   -0.00000    0.00000    0.00000    0    orth

 Final occupancy:   8

 !RHF STATE  1.1 Energy               -78.029591322662
 Nuclear energy                        33.28871920
 One-electron energy                 -169.91126077
 Two-electron energy                   58.59295025
 Virial quotient                       -1.00030722
 !RHF STATE  1.1 Dipole moment         -0.00000000     0.00000000     0.00000000
 Dipole moment /Debye                  -0.00000000     0.00000000     0.00000000

 ELECTRON ORBITALS
 =================

  Orbital  Occupation    Energy     Coefficients
    1.1     2.00000   -11.22584     1 1s    0.70421     2 1s    0.70421
    2.1     2.00000   -11.22437     1 1s    0.70453     2 1s   -0.70453
    3.1     2.00000    -1.02349     1 1s    0.30121     2 1s    0.30121
    4.1     2.00000    -0.79382     1 1s    0.24163
    5.1     2.00000    -0.64142     1 2py   0.32159     2 2py   0.32159
    6.1     2.00000    -0.57693     1 2pz   0.40774     2 2pz  -0.40774
    7.1     2.00000    -0.51167     1 2py   0.30766     2 2py  -0.30766
    8.1     2.00000    -0.36515     1 2px   0.37150     1 2px   0.31125     2 2px   0.37150     2 2px   0.31125
    9.1     0.00000     0.17518     1 2px   0.34348     1 2px   0.72411     2 2px  -0.34348     2 2px  -0.72411
   10.1     0.00000     0.26568     1 1s   -1.49608     1 2pz  -0.63299     2 1s   -1.49608     2 2pz   0.63299     3 1s    1.03829
                                    4 1s    1.03861     5 1s    1.03861     6 1s    1.03829
   11.1     0.00000     0.29772     1 2py   0.25075     1 2py   0.83100     2 2py   0.25075     2 2py   0.83100     3 1s   -1.12232
                                    4 1s    1.12189     5 1s   -1.12189     6 1s    1.12232
   12.1     0.00000     0.31137     1 1s    1.96383     2 1s   -1.96383     3 1s   -1.08043     4 1s   -1.08040     5 1s    1.08040
                                    6 1s    1.08043
   13.1     0.00000     0.38997     1 2py  -1.88456     2 2py   1.88456     3 1s    1.64991     4 1s   -1.64753     5 1s   -1.64753
                                    6 1s    1.64991
   14.1     0.00000     0.48450     1 1s   -2.79237     1 2pz   2.84478     2 1s    2.79237     2 2pz   2.84478     3 1s   -0.57795
                                    4 1s   -0.57561     5 1s    0.57561     6 1s    0.57795
   15.1     0.00000     0.67260     1 1s    0.27772     1 2pz  -0.55842     1 2pz   1.02899     2 1s    0.27772     2 2pz   0.55842
                                    2 2pz  -1.02899
   16.1     0.00000     0.76315     1 2py  -0.39754     1 2py   0.79555     2 2py  -0.39754     2 2py   0.79555     3 1s   -0.38501
                                    4 1s    0.38394     5 1s   -0.38394     6 1s    0.38501
   17.1     0.00000     0.78086     1 2px  -0.74430     1 2px   0.63954     2 2px  -0.74430     2 2px   0.63954
   18.1     0.00000     0.86032     1 1s   -0.89261     1 1s    1.44076     1 2pz   0.27984     2 1s   -0.89261     2 1s    1.44076
                                    2 2pz  -0.27984     3 1s   -0.39071     4 1s   -0.39067     5 1s   -0.39067     6 1s   -0.39071
   19.1     0.00000     0.88880     1 2px  -0.81697     1 2px   1.06806     2 2px   0.81697     2 2px  -1.06806
   20.1     0.00000     0.94516     1 1s   -0.80785     1 2pz   0.61844     1 2pz  -0.50241     2 1s    0.80785     2 2pz   0.61844
                                    2 2pz  -0.50241     3 1s    0.37234     4 1s    0.37324     5 1s   -0.37324     6 1s   -0.37234
   21.1     0.00000     1.12655     1 2py  -0.69670     1 2py   1.11101     2 2py  -0.69670     2 2py   1.11101     3 1s    0.38292
                                    3 1s   -1.06536     4 1s   -0.38521     4 1s    1.06898     5 1s    0.38521     5 1s   -1.06898
                                    6 1s   -0.38292     6 1s    1.06536
   22.1     0.00000     1.16238     1 2py   0.92639     1 2py  -2.97803     2 2py  -0.92639     2 2py   2.97803     3 1s    1.53750
                                    4 1s   -1.53913     5 1s   -1.53913     6 1s    1.53750
   23.1     0.00000     1.21688     1 1s    1.04054     1 1s   -1.73783     1 2pz   0.36346     1 2pz  -0.49137     2 1s    1.04054
                                    2 1s   -1.73783     2 2pz  -0.36346     2 2pz   0.49137     3 1s   -0.43794     3 1s    0.87279
                                    4 1s   -0.43800     4 1s    0.86488     5 1s   -0.43800     5 1s    0.86488     6 1s   -0.43794
                                    6 1s    0.87279
   24.1     0.00000     1.22107     1 1s   -0.42491     1 2pz  -0.62765     1 2pz   1.34491     2 1s    0.42491     2 2pz  -0.62765
                                    2 2pz   1.34491     3 1s    0.48341     3 1s   -0.95258     4 1s    0.48188     4 1s   -0.94800
                                    5 1s   -0.48188     5 1s    0.94800     6 1s   -0.48341     6 1s    0.95258
   25.1     0.00000     1.33049     1 1s   -1.62444     1 1s    5.33978     1 2pz  -1.80410     2 1s    1.62444     2 1s   -5.33978
                                    2 2pz  -1.80410     3 1s   -0.40458     4 1s   -0.40556     5 1s    0.40556     6 1s    0.40458
   26.1     0.00000     1.48685     1 2py   2.54761     2 2py  -2.54761     3 1s   -0.70238     3 1s   -0.68977     4 1s    0.70155
                                    4 1s    0.68819     5 1s    0.70155     5 1s    0.68819     6 1s   -0.70238     6 1s   -0.68977
   27.1     0.00000     1.73462     1 3d1+  0.62115     2 3d1+ -0.62115
   28.1     0.00000     1.82573     1 3d2-  0.68266     2 3d2-  0.68266
   29.1     0.00000     2.11985     1 3d2-  0.73438     2 3d2- -0.73438
   30.1     0.00000     2.21926     1 1s   -0.60966     1 3d2+  0.70493     2 1s   -0.60966     2 3d2+  0.70493     3 1s    0.36518
                                    4 1s    0.36602     5 1s    0.36602     6 1s    0.36518
   31.1     0.00000     2.33217     1 2py   0.27421     1 3d1-  0.69548     2 2py   0.27421     2 3d1- -0.69548     3 1s   -0.52327
                                    4 1s    0.52255     5 1s   -0.52255     6 1s    0.52327
   32.1     0.00000     2.39737     1 1s   -0.49222     1 2pz   0.27163     1 2pz  -0.44605     1 3d0   0.67416     2 1s   -0.49222
                                    2 2pz  -0.27163     2 2pz   0.44605     2 3d0   0.67416
   33.1     0.00000     2.63546     1 1s    0.28698     1 1s   -1.38786     1 2pz   0.31113     1 3d2+  0.80087     2 1s   -0.28698
                                    2 1s    1.38786     2 2pz   0.31113     2 3d2+ -0.80087     3 1s    0.45360     4 1s    0.45392
                                    5 1s   -0.45392     6 1s   -0.45360
   34.1     0.00000     2.69217     1 2px  -0.26156     1 3d1+  0.89309     2 2px   0.26156     2 3d1+  0.89309
   35.1     0.00000     3.03778     1 2py   0.59140     1 3d1-  0.95917     2 2py  -0.59140     2 3d1-  0.95917     3 1s   -0.48248
                                    4 1s    0.48118     5 1s    0.48118     6 1s   -0.48248
   36.1     0.00000     3.04501     1 1s    0.26873     1 1s    1.98133     1 2pz  -0.75629     1 2pz  -1.15995     1 3d0   1.10130
                                    2 1s   -0.26873     2 1s   -1.98133     2 2pz  -0.75629     2 2pz  -1.15995     2 3d0  -1.10130


 HOMO      8.1    -0.365148 =      -9.9362eV
 LUMO      9.1     0.175184 =       4.7670eV
 LUMO-HOMO         0.540332 =      14.7032eV


 **********************************************************************************************************************************
 DATASETS  * FILE   NREC   LENGTH (MB)   RECORD NAMES
              1      19       30.63       500      610      700      900      950      970     1000      129      960     1100   
                                          VAR    BASINP    GEOM    SYMINP    ZMAT    AOBASIS   BASIS     P2S    ABASIS      S 
                                         1400     1410     1200     1210     1080     1600     1650     1300     1700   
                                           T        V       H0       H01     AOSYM     SMH    MOLCAS    ERIS     OPER   

              2       4        2.86       700     1000      520     2100   
                                         GEOM     BASIS   MCVARS     RHF  

 PROGRAMS   *        TOTAL    HF-SCF       INT
 CPU TIMES  *         0.40      0.09      0.22
 REAL TIME  *         0.67 SEC
 DISK USED  *        35.45 MB
 **********************************************************************************************************************************


 PROGRAM * MULTI (Direct Multiconfiguration SCF)       Authors: P.J. Knowles, H.-J. Werner (1984)


 Number of closed-shell orbitals:   7 (   7 )
 Number of active  orbitals:        2 (   2 )
 Number of external orbitals:      27 (  27 )

 State symmetry 1

 Number of electrons:     2    Spin symmetry=Singlet   Space symmetry=1
 Number of states:        3
 Number of CSFs:          3   (4 determinants, 4 intermediate states)

 Molecular orbitals read from record     2100.2  Type=RHF/CANONICAL (state 1.1)

 EXTRA SYMMETRY OF MOS IN SYMMETRY 1:   1 1 1 1 1 1 1 2 2 1   1 1 1 1 1 1 2 1 2 1   1 1 1 1 1 1 2 2 2 1   1 1 1 2 1 1

 Wavefunction dump at record             2140.2

 Convergence thresholds  0.10E-01 (gradient)  0.10E-05 (energy)  0.10E-02 (step length)

 Weight factors for state symmetry  1:    0.33333   0.33333   0.33333

 Number of orbital rotations:      257   (    14 Core/Active    189 Core/Virtual   0 Active/Active     54 Active/Virtual)
 Total number of variables:        269

 Micro-Iterations solved by the two-step solver

 ITER. MIC  NCI  NEG     ENERGY(VAR)     ENERGY(PROJ)   ENERGY CHANGE     GRAD(0)  GRAD(ORB)   GRAD(CI)     STEP       TIME

   1    3    3    0     -77.73444848     -77.74039711   -0.00594863    0.12921690 0.00000135 0.00000000  0.61D-01      0.05
   2    2    3    0     -77.74030734     -77.74031066   -0.00000332    0.00286078 0.00000163 0.00000000  0.15D-02      0.08
   3    2    3    0     -77.74031066     -77.74031066   -0.00000000    0.00000189 0.00000000 0.00000000  0.12D-05      0.11

 ** WVFN ****  CONVERGENCE REACHED, FINAL GRADIENT:  0.96D-12



 Results for state 1.1
 =====================

 !MCSCF STATE  1.1 Energy             -78.048199517479
 Nuclear energy                        33.28871920
 Kinetic energy                        78.06756615
 One electron energy                 -170.02649342
 Two electron energy                   58.68957471
 Virial ratio                           1.99975192

 !MCSCF STATE  1.1 Dipole moment        0.00000000     0.00000000     0.00000000
 Dipole moment /Debye                   0.00000000     0.00000000     0.00000000

 Results for state 2.1
 =====================

 !MCSCF STATE  2.1 Energy             -77.676200866542
 Nuclear energy                        33.28871920
 Kinetic energy                        78.25373760
 One electron energy                 -169.48456829
 Two electron energy                   58.51964823
 Virial ratio                           1.99261969

 !MCSCF STATE  2.1 Dipole moment        0.00000000     0.00000000     0.00000000
 Dipole moment /Debye                   0.00000000     0.00000000     0.00000000

 Results for state 3.1
 =====================

 !MCSCF STATE  3.1 Energy             -77.496531595845
 Nuclear energy                        33.28871920
 Kinetic energy                        78.43990905
 One electron energy                 -168.94264316
 Two electron energy                   58.15739237
 Virial ratio                           1.98797325

 !MCSCF STATE  3.1 Dipole moment        0.00000000     0.00000000    -0.00000000
 Dipole moment /Debye                   0.00000000     0.00000000    -0.00000000

 State-averaged charge density matrix saved on record  2140.2 (density set 1)

 !MCSCF trans         <2.1|DMY|1.1>    -0.000008037082 au =    -0.000020426886 Debye
 !MCSCF trans         <3.1|DMY|2.1>    -0.000012244066 au =    -0.000031119273 Debye

 !MCSCF trans         <2.1|DMZ|1.1>    -1.511993654712 au =    -3.842852832943 Debye
 !MCSCF trans         <3.1|DMZ|2.1>    -2.303441861360 au =    -5.854381765995 Debye


 NATURAL ORBITALS (state averaged)
 =================================

  Orbital  Occupation    Energy     Coefficients
    1.1     2.00000   -11.24052     1 1s    0.70422     2 1s    0.70422
    2.1     2.00000   -11.23930     1 1s    0.70449     2 1s   -0.70449
    3.1     2.00000    -1.03728     1 1s    0.30910     2 1s    0.30910
    4.1     2.00000    -0.80141     1 1s    0.28549     2 1s   -0.28549
    5.1     2.00000    -0.65372     1 2py   0.32688     2 2py   0.32688
    6.1     2.00000    -0.59178     1 2pz   0.40958     2 2pz  -0.40958
    7.1     2.00000    -0.51813     1 2py   0.31379     2 2py  -0.31379
    8.1     1.00000     0.03098     1 2px   0.38036     1 2px   0.67864     2 2px  -0.38036     2 2px  -0.67864
    9.1     1.00000    -0.22209     1 2px   0.35582     1 2px   0.32290     2 2px   0.35582     2 2px   0.32290
   10.1    -0.00000     0.26296     1 1s   -1.49210     1 2pz  -0.63893     2 1s   -1.49210     2 2pz   0.63893     3 1s    1.03768
                                    4 1s    1.03823     5 1s    1.03823     6 1s    1.03768
   11.1    -0.00000     0.28964     1 2py   0.82220     2 2py   0.82220     3 1s   -1.11400     4 1s    1.11407     5 1s   -1.11407
                                    6 1s    1.11400
   12.1    -0.00000     0.30834     1 1s    1.98878     2 1s   -1.98878     3 1s   -1.07494     4 1s   -1.07442     5 1s    1.07442
                                    6 1s    1.07494
   13.1    -0.00000     0.38606     1 2py  -1.87111     2 2py   1.87111     3 1s    1.64353     4 1s   -1.64099     5 1s   -1.64099
                                    6 1s    1.64353
   14.1    -0.00000     0.48177     1 1s   -2.76779     1 2pz   2.82638     2 1s    2.76779     2 2pz   2.82638     3 1s   -0.58832
                                    4 1s   -0.58594     5 1s    0.58594     6 1s    0.58832
   15.1    -0.00000     0.66218     1 2pz  -0.55209     1 2pz   1.00734     2 2pz   0.55209     2 2pz  -1.00734
   16.1    -0.00000     0.75264     1 2py  -0.40835     1 2py   0.80142     2 2py  -0.40835     2 2py   0.80142     3 1s   -0.38077
                                    4 1s    0.37969     5 1s   -0.37969     6 1s    0.38077
   17.1    -0.00000     0.77497     1 2px  -0.75110     1 2px   0.63406     2 2px  -0.75110     2 2px   0.63406
   18.1    -0.00000     0.85707     1 1s   -0.88710     1 1s    1.46819     1 2pz   0.32931     2 1s   -0.88710     2 1s    1.46819
                                    2 2pz  -0.32931     3 1s   -0.39336     4 1s   -0.39334     5 1s   -0.39334     6 1s   -0.39336
   19.1    -0.00000     0.87170     1 2px  -0.80168     1 2px   1.09736     2 2px   0.80168     2 2px  -1.09736
   20.1    -0.00000     0.92663     1 1s   -0.65712     1 2pz   0.62154     1 2pz  -0.58150     2 1s    0.65712     2 2pz   0.62154
                                    2 2pz  -0.58150     3 1s    0.37330     4 1s    0.37420     5 1s   -0.37420     6 1s   -0.37330
   21.1    -0.00000     1.11145     1 2py  -0.68577     1 2py   1.11316     2 2py  -0.68577     2 2py   1.11316     3 1s    0.38338
                                    3 1s   -1.07425     4 1s   -0.38547     4 1s    1.07751     5 1s    0.38547     5 1s   -1.07751
                                    6 1s   -0.38338     6 1s    1.07425
   22.1    -0.00000     1.15032     1 2py   0.92358     1 2py  -2.98265     2 2py  -0.92358     2 2py   2.98265     3 1s    1.54524
                                    4 1s   -1.54649     5 1s   -1.54649     6 1s    1.54524
   23.1    -0.00000     1.21387     1 1s    1.03557     1 1s   -1.73367     1 2pz   0.36746     1 2pz  -0.49719     2 1s    1.03557
                                    2 1s   -1.73367     2 2pz  -0.36746     2 2pz   0.49719     3 1s   -0.43840     3 1s    0.87191
                                    4 1s   -0.43852     4 1s    0.86461     5 1s   -0.43852     5 1s    0.86461     6 1s   -0.43840
                                    6 1s    0.87191
   24.1    -0.00000     1.21822     1 1s   -0.33817     1 2pz  -0.64229     1 2pz   1.44042     2 1s    0.33817     2 2pz  -0.64229
                                    2 2pz   1.44042     3 1s    0.48549     3 1s   -0.92940     4 1s    0.48412     4 1s   -0.92516
                                    5 1s   -0.48412     5 1s    0.92516     6 1s   -0.48549     6 1s    0.92940
   25.1    -0.00000     1.31192     1 1s   -1.64641     1 1s    5.35214     1 2pz  -1.72777     2 1s    1.64641     2 1s   -5.35214
                                    2 2pz  -1.72777     3 1s   -0.45679     4 1s   -0.45761     5 1s    0.45761     6 1s    0.45679
   26.1    -0.00000     1.47829     1 2py   2.55082     2 2py  -2.55082     3 1s   -0.70119     3 1s   -0.69088     4 1s    0.70036
                                    4 1s    0.68930     5 1s    0.70036     5 1s    0.68930     6 1s   -0.70119     6 1s   -0.69088
   27.1    -0.00000     1.70988     1 3d1+  0.62091     2 3d1+ -0.62091
   28.1    -0.00000     1.81253     1 3d2-  0.68266     2 3d2-  0.68266
   29.1    -0.00000     2.09744     1 3d2-  0.73438     2 3d2- -0.73438
   30.1    -0.00000     2.20435     1 1s   -0.60541     1 3d2+  0.70398     2 1s   -0.60541     2 3d2+  0.70398     3 1s    0.36653
                                    4 1s    0.36736     5 1s    0.36736     6 1s    0.36653
   31.1    -0.00000     2.31663     1 2py   0.28108     1 3d1-  0.69373     2 2py   0.28108     2 3d1- -0.69373     3 1s   -0.52663
                                    4 1s    0.52590     5 1s   -0.52590     6 1s    0.52663
   32.1    -0.00000     2.37776     1 1s   -0.48998     1 2pz   0.27704     1 2pz  -0.44922     1 3d0   0.67349     2 1s   -0.48998
                                    2 2pz  -0.27704     2 2pz   0.44922     2 3d0   0.67349
   33.1    -0.00000     2.61643     1 1s    0.28784     1 1s   -1.39369     1 2pz   0.31019     1 3d2+  0.80013     2 1s   -0.28784
                                    2 1s    1.39369     2 2pz   0.31019     2 3d2+ -0.80013     3 1s    0.45661     4 1s    0.45694
                                    5 1s   -0.45694     6 1s   -0.45661
   34.1    -0.00000     2.67013     1 2px  -0.26220     1 3d1+  0.89346     2 2px   0.26220     2 3d1+  0.89346
   35.1    -0.00000     3.02548     1 2py   0.59184     1 3d1-  0.95874     2 2py  -0.59184     2 3d1-  0.95874     3 1s   -0.48482
                                    4 1s    0.48351     5 1s    0.48351     6 1s   -0.48482
   36.1    -0.00000     3.02772     1 1s    0.26178     1 1s    2.00603     1 2pz  -0.74894     1 2pz  -1.17280     1 3d0   1.10284
                                    2 1s   -0.26178     2 1s   -2.00603     2 2pz  -0.74894     2 2pz  -1.17280     2 3d0  -1.10284


 Natural orbital dump (state averaged) at molpro section  2140.2    (Orbital set 2)



 **********************************************************************************************************************************
 DATASETS  * FILE   NREC   LENGTH (MB)   RECORD NAMES
              1      20       31.36       500      610      700      900      950      970     1000      129      960     1100   
                                          VAR    BASINP    GEOM    SYMINP    ZMAT    AOBASIS   BASIS     P2S    ABASIS      S 
                                         1400     1410     1200     1210     1080     1600     1650     1300     1700     1380   
                                           T        V       H0       H01     AOSYM     SMH    MOLCAS    ERIS     OPER     JKOP   

              2       5        5.42       700     1000      520     2100     2140   
                                         GEOM     BASIS   MCVARS     RHF     MCSCF   

 PROGRAMS   *        TOTAL     MULTI    HF-SCF       INT
 CPU TIMES  *         0.55      0.14      0.09      0.22
 REAL TIME  *         0.85 SEC
 DISK USED  *        38.55 MB
 **********************************************************************************************************************************
 Molecular orbitals read from record     2140.2  Type=MCSCF/NATURAL (state averaged)
 Occupation numbers read from record     2140.2  Type=MCSCF/NATURAL (state averaged)
 Orbital energies read from record       2140.2  Type=MCSCF/NATURAL (state averaged)
 Redundancy group numbers read from rec  2140.2  Type=MCSCF/NATURAL (state averaged)

 MULTI/6-31G* energy=    -77.496531595845

           MULTI          HF-SCF
    -77.49653160    -78.02959132
 **********************************************************************************************************************************
 Molpro calculation terminated
