
 Primary working directories    : /scratch.local/johan406.molpro_temp/molpro.fRwnSjuSEX
 Secondary working directories  : /scratch.local/johan406.molpro_temp/molpro.fRwnSjuSEX
 Wavefunction directory         : /home/goodpast/johan406/wfu/
 Main file repository           : /scratch.local/johan406.molpro_temp/molpro.fRwnSjuSEX/

 id        : roweumn

 Nodes     nprocs
 cn0416       1

 Using customized tuning parameters: mindgm=1; mindgv=20; mindgc=4; mindgr=1; noblas=0; minvec=7
 default implementation of scratch files=df  


 Variables initialized (934), CPU time= 0.00 sec
                                                                                 !leave this line blank
 
 gprint, orbitals=30
 memory, 125., m
 symmetry, nosym
 nelect=16
 basis=6-31g*
 
 geometry={
 C 0.000 0.000 0.677
 C 0.000 -0.000 -0.677
 H 0.000 0.914 1.233
 H 0.000 -0.915 1.232
 H 0.000 0.915 -1.232
 H 0.000 -0.914 -1.233
 }
 
 hf
 {multi,
 closed 7
 occ 9
 wf,spin=0;STATE,3
 }
 
 Commands  initialized (763), CPU time= 0.01 sec, 617 directives.
 Default parameters read. Elapsed time= 0.04 sec

 Checking input...
 Passed
1


                                         ***  PROGRAM SYSTEM MOLPRO  ***
                                       Copyright, TTI GmbH Stuttgart, 2015
                                    Version 2019.2 linked Oct 25 2019 22:50:27


 **********************************************************************************************************************************
 LABEL *                                                                                 
  64 bit serial version                                                                  DATE: 15-Mar-23          TIME: 16:58:10  
 **********************************************************************************************************************************

 SHA1:             8dbd9ae1082e4ce945b0f27595c9eb2d4aa09004
 **********************************************************************************************************************************


 Variable memory set to  125000000 words,  buffer space 

 SETTING NELECT         =        16.00000000                                  
 SETTING BASIS          =    6-31G*
 ZSYMEL=NOSYM


Geometry recognized as XYZ



 Recomputing integrals since basis changed


 Using spherical harmonics

 Library entry C      S 6-31G                selected for orbital group  1
 Library entry C      P 6-31G                selected for orbital group  1
 Library entry C      D 6-31G*               selected for orbital group  1
 Library entry H      S 6-31G                selected for orbital group  2


 PROGRAM * SEWARD (Integral evaluation for generally contracted gaussian basis sets)     Author: Roland Lindh, 1990

 Geometry written to block  1 of record 700


 Point group  C1  



 ATOMIC COORDINATES

 NR  ATOM    CHARGE       X              Y              Z

   1  C       6.00    0.000000000    0.000000000    1.279344586
   2  C       6.00    0.000000000   -0.000000000   -1.279344586
   3  H       1.00    0.000000000    1.727209678    2.330032312
   4  H       1.00    0.000000000   -1.729099404    2.328142585
   5  H       1.00    0.000000000    1.729099404   -2.328142585
   6  H       1.00    0.000000000   -1.727209678   -2.330032312

 Bond lengths in Bohr (Angstrom)

 1-2  2.558689173  1-3  2.021681965  1-4  2.022315997  2-5  2.022315997  2-6  2.021681965
     ( 1.354000000)     ( 1.069828024)     ( 1.070163539)     ( 1.070163539)     ( 1.069828024)

 Bond angles

  1-2-5  121.23921489   1-2-6  121.31278069   2-1-3  121.31278069   2-1-4  121.23921489

  3-1-4  117.44800442   5-2-6  117.44800442

 NUCLEAR CHARGE:                   16
 NUMBER OF PRIMITIVE AOS:          72
 NUMBER OF SYMMETRY AOS:           70
 NUMBER OF CONTRACTIONS:           36   (   36A   )
 NUMBER OF CORE ORBITALS:           2   (    2A   )
 NUMBER OF VALENCE ORBITALS:       12   (   12A   )


 NUCLEAR REPULSION ENERGY   33.29058645

 EXTRA SYMMETRY OF AOS IN SYMMETRY 1:   1 1 1 2 1 1 2 1 1 1   2 2 1 1 1 1 1 2 1 1   2 1 1 1 2 2 1 1 1 1   1 1 1 1 1 1

 Eigenvalues of metric

         1 0.871E-02 0.170E-01 0.376E-01 0.461E-01 0.694E-01 0.203E+00 0.210E+00 0.228E+00


 Contracted 2-electron integrals neglected if value below      1.0D-11
 AO integral compression algorithm  1   Integral accuracy      1.0D-11

     0.786 MB (compressed) written to integral file ( 37.9%)


 NUMBER OF SORTED TWO-ELECTRON INTEGRALS:     222111.     BUFFER LENGTH:  32768
 NUMBER OF SEGMENTS:   1  SEGMENT LENGTH:     222111      RECORD LENGTH: 524288

 Memory used in sort:       0.78 MW

 SORT1 READ      284735. AND WROTE       98699. INTEGRALS IN      1 RECORDS. CPU TIME:     0.00 SEC, REAL TIME:     0.00 SEC
 SORT2 READ       98699. AND WROTE      222111. INTEGRALS IN      3 RECORDS. CPU TIME:     0.02 SEC, REAL TIME:     0.02 SEC

 FILE SIZES:   FILE 1:    30.9 MBYTE,  FILE 4:     4.2 MBYTE,   TOTAL:     35.1 MBYTE

 OPERATOR DM      FOR CENTER  0  COORDINATES:    0.000000    0.000000    0.000000


 **********************************************************************************************************************************
 DATASETS  * FILE   NREC   LENGTH (MB)   RECORD NAMES
              1      19       30.63       500      610      700      900      950      970     1000      129      960     1100   
                                          VAR    BASINP    GEOM    SYMINP    ZMAT    AOBASIS   BASIS     P2S    ABASIS      S 
                                         1400     1410     1200     1210     1080     1600     1650     1300     1700   
                                           T        V       H0       H01     AOSYM     SMH    MOLCAS    ERIS     OPER   

 PROGRAMS   *        TOTAL       INT
 CPU TIMES  *         0.31      0.23
 REAL TIME  *         0.51 SEC
 DISK USED  *        35.45 MB
 **********************************************************************************************************************************


 PROGRAM * RHF-SCF (CLOSED SHELL)       Authors: W. Meyer, H.-J. Werner


 NUMBER OF ELECTRONS:       8+    8-    SPACE SYMMETRY=1    SPIN SYMMETRY: Singlet 
 CONVERGENCE THRESHOLDS:    1.00E-05 (Density)    1.00E-07 (Energy)
 MAX. NUMBER OF ITERATIONS:       60
 INTERPOLATION TYPE:            DIIS
 INTERPOLATION STEPS:              2 (START)      1 (STEP)
 LEVEL SHIFTS:                  0.00 (CLOSED)  0.00 (OPEN) 



 Orbital guess generated from atomic densities. Full valence occupancy:    8

 Molecular orbital dump at record        2100.2

 Initial occupancy:   8

 ITERATION    DDIFF          GRAD             ENERGY        2-EL.EN.            DIPOLE MOMENTS         DIIS   ORB.
    1      0.000D+00      0.000D+00       -78.00592955    118.427512    0.00000   -0.00000    0.00000    0    start
    2      0.000D+00      0.844D-02       -78.02740465    116.677115   -0.00000   -0.00000    0.00000    1    diag
    3      0.810D-02      0.282D-02       -78.02941758    117.279933   -0.00000   -0.00000    0.00000    2    diag
    4      0.255D-02      0.703D-03       -78.02961990    117.180982   -0.00000    0.00000   -0.00000    3    diag
    5      0.104D-02      0.659D-04       -78.02962187    117.183763   -0.00000   -0.00000   -0.00000    4    diag
    6      0.141D-03      0.740D-05       -78.02962189    117.183361   -0.00000   -0.00000   -0.00000    5    diag
    7      0.136D-04      0.109D-05       -78.02962189    117.183369   -0.00000   -0.00000   -0.00000    6    diag
    8      0.157D-05      0.123D-06       -78.02962189    117.183364   -0.00000    0.00000    0.00000    0    orth

 Final occupancy:   8

 !RHF STATE  1.1 Energy               -78.029621893950
 Nuclear energy                        33.29058645
 One-electron energy                 -169.91189033
 Two-electron energy                   58.59168198
 Virial quotient                       -1.00025714
 !RHF STATE  1.1 Dipole moment         -0.00000000     0.00000000     0.00000000
 Dipole moment /Debye                  -0.00000000     0.00000000     0.00000000

 ELECTRON ORBITALS
 =================

  Orbital  Occupation    Energy     Coefficients
    1.1     2.00000   -11.22589     1 1s    0.70421     2 1s    0.70421
    2.1     2.00000   -11.22442     1 1s    0.70453     2 1s   -0.70453
    3.1     2.00000    -1.02336     1 1s    0.30137     2 1s    0.30137
    4.1     2.00000    -0.79510     1 1s    0.24090
    5.1     2.00000    -0.64040     1 2py   0.32187     2 2py   0.32187
    6.1     2.00000    -0.57875     1 2pz   0.40766     2 2pz  -0.40766
    7.1     2.00000    -0.51113     1 2py   0.30769     2 2py  -0.30769
    8.1     2.00000    -0.36520     1 2px   0.37159     1 2px   0.31118     2 2px   0.37159     2 2px   0.31118
    9.1     0.00000     0.17503     1 2px   0.34347     1 2px   0.72407     2 2px  -0.34347     2 2px  -0.72407
   10.1     0.00000     0.26665     1 1s   -1.50463     1 2pz  -0.63967     2 1s   -1.50463     2 2pz   0.63967     3 1s    1.04460
                                    4 1s    1.04493     5 1s    1.04493     6 1s    1.04460
   11.1     0.00000     0.29780     1 2py   0.25065     1 2py   0.82698     2 2py   0.25065     2 2py   0.82698     3 1s   -1.12032
                                    4 1s    1.11967     5 1s   -1.11967     6 1s    1.12032
   12.1     0.00000     0.31098     1 1s    1.96197     2 1s   -1.96197     3 1s   -1.08108     4 1s   -1.08129     5 1s    1.08129
                                    6 1s    1.08108
   13.1     0.00000     0.39028     1 2py  -1.87748     2 2py   1.87748     3 1s    1.64729     4 1s   -1.64494     5 1s   -1.64494
                                    6 1s    1.64729
   14.1     0.00000     0.48577     1 1s   -2.79693     1 2pz   2.86437     2 1s    2.79693     2 2pz   2.86437     3 1s   -0.59074
                                    4 1s   -0.58839     5 1s    0.58839     6 1s    0.59074
   15.1     0.00000     0.67336     1 1s    0.27776     1 2pz  -0.55926     1 2pz   1.03325     2 1s    0.27776     2 2pz   0.55926
                                    2 2pz  -1.03325
   16.1     0.00000     0.75997     1 2py  -0.39770     1 2py   0.78740     2 2py  -0.39770     2 2py   0.78740     3 1s   -0.38421
                                    4 1s    0.38316     5 1s   -0.38316     6 1s    0.38421
   17.1     0.00000     0.78083     1 2px  -0.74426     1 2px   0.63957     2 2px  -0.74426     2 2px   0.63957
   18.1     0.00000     0.86125     1 1s   -0.89381     1 1s    1.46140     1 2pz   0.30196     2 1s   -0.89381     2 1s    1.46140
                                    2 2pz  -0.30196     3 1s   -0.39103     4 1s   -0.39099     5 1s   -0.39099     6 1s   -0.39103
   19.1     0.00000     0.88869     1 2px  -0.81696     1 2px   1.06807     2 2px   0.81696     2 2px  -1.06807
   20.1     0.00000     0.94391     1 1s   -0.78602     1 2pz   0.61647     1 2pz  -0.53025     2 1s    0.78602     2 2pz   0.61647
                                    2 2pz  -0.53025     3 1s    0.37298     4 1s    0.37385     5 1s   -0.37385     6 1s   -0.37298
   21.1     0.00000     1.12657     1 2py  -0.69520     1 2py   1.10681     2 2py  -0.69520     2 2py   1.10681     3 1s    0.38309
                                    3 1s   -1.06527     4 1s   -0.38532     4 1s    1.06874     5 1s    0.38532     5 1s   -1.06874
                                    6 1s   -0.38309     6 1s    1.06527
   22.1     0.00000     1.16233     1 2py   0.92580     1 2py  -2.97652     2 2py  -0.92580     2 2py   2.97652     3 1s    1.53644
                                    4 1s   -1.53776     5 1s   -1.53776     6 1s    1.53644
   23.1     0.00000     1.21952     1 1s    1.03877     1 1s   -1.73651     1 2pz   0.36468     1 2pz  -0.49405     2 1s    1.03877
                                    2 1s   -1.73651     2 2pz  -0.36468     2 2pz   0.49405     3 1s   -0.43987     3 1s    0.87353
                                    4 1s   -0.44002     4 1s    0.86619     5 1s   -0.44002     5 1s    0.86619     6 1s   -0.43987
                                    6 1s    0.87353
   24.1     0.00000     1.22383     1 1s   -0.43672     1 2pz  -0.62884     1 2pz   1.33008     2 1s    0.43672     2 2pz  -0.62884
                                    2 2pz   1.33008     3 1s    0.48314     3 1s   -0.95383     4 1s    0.48166     4 1s   -0.94944
                                    5 1s   -0.48166     5 1s    0.94944     6 1s   -0.48314     6 1s    0.95383
   25.1     0.00000     1.33001     1 1s   -1.62032     1 1s    5.32374     1 2pz  -1.80149     2 1s    1.62032     2 1s   -5.32374
                                    2 2pz  -1.80149     3 1s   -0.39822     4 1s   -0.39925     5 1s    0.39925     6 1s    0.39822
   26.1     0.00000     1.47842     1 2py   2.51439     2 2py  -2.51439     3 1s   -0.69968     3 1s   -0.67421     4 1s    0.69883
                                    4 1s    0.67269     5 1s    0.69883     5 1s    0.67269     6 1s   -0.69968     6 1s   -0.67421
   27.1     0.00000     1.73413     1 3d1+  0.62115     2 3d1+ -0.62115
   28.1     0.00000     1.82590     1 3d2-  0.68266     2 3d2-  0.68266
   29.1     0.00000     2.12004     1 3d2-  0.73438     2 3d2- -0.73438
   30.1     0.00000     2.21881     1 1s   -0.61360     1 3d2+  0.70661     2 1s   -0.61360     2 3d2+  0.70661     3 1s    0.36810
                                    4 1s    0.36895     5 1s    0.36895     6 1s    0.36810
   31.1     0.00000     2.33554     1 2py   0.27678     1 3d1-  0.69627     2 2py   0.27678     2 3d1- -0.69627     3 1s   -0.52456
                                    4 1s    0.52381     5 1s   -0.52381     6 1s    0.52456
   32.1     0.00000     2.39455     1 1s   -0.49302     1 2pz   0.27375     1 2pz  -0.44790     1 3d0   0.67559     2 1s   -0.49302
                                    2 2pz  -0.27375     2 2pz   0.44790     2 3d0   0.67559
   33.1     0.00000     2.63109     1 1s    0.28524     1 1s   -1.35333     1 2pz   0.28509     1 3d2+  0.80014     2 1s   -0.28524
                                    2 1s    1.35333     2 2pz   0.28509     2 3d2+ -0.80014     3 1s    0.45207     4 1s    0.45245
                                    5 1s   -0.45245     6 1s   -0.45207
   34.1     0.00000     2.69165     1 2px  -0.26163     1 3d1+  0.89308     2 2px   0.26163     2 3d1+  0.89308
   35.1     0.00000     3.04453     1 1s    0.26746     1 1s    1.99189     1 2pz  -0.75501     1 2pz  -1.16755     1 3d0   1.10143
                                    2 1s   -0.26746     2 1s   -1.99189     2 2pz  -0.75501     2 2pz  -1.16755     2 3d0  -1.10143
   36.1     0.00000     3.04824     1 2py   0.58973     1 3d1-  0.96155     2 2py  -0.58973     2 3d1-  0.96155     3 1s   -0.48576
                                    4 1s    0.48448     5 1s    0.48448     6 1s   -0.48576


 HOMO      8.1    -0.365200 =      -9.9376eV
 LUMO      9.1     0.175029 =       4.7628eV
 LUMO-HOMO         0.540230 =      14.7004eV


 **********************************************************************************************************************************
 DATASETS  * FILE   NREC   LENGTH (MB)   RECORD NAMES
              1      19       30.63       500      610      700      900      950      970     1000      129      960     1100   
                                          VAR    BASINP    GEOM    SYMINP    ZMAT    AOBASIS   BASIS     P2S    ABASIS      S 
                                         1400     1410     1200     1210     1080     1600     1650     1300     1700   
                                           T        V       H0       H01     AOSYM     SMH    MOLCAS    ERIS     OPER   

              2       4        2.86       700     1000      520     2100   
                                         GEOM     BASIS   MCVARS     RHF  

 PROGRAMS   *        TOTAL    HF-SCF       INT
 CPU TIMES  *         0.41      0.09      0.23
 REAL TIME  *         0.65 SEC
 DISK USED  *        35.45 MB
 **********************************************************************************************************************************


 PROGRAM * MULTI (Direct Multiconfiguration SCF)       Authors: P.J. Knowles, H.-J. Werner (1984)


 Number of closed-shell orbitals:   7 (   7 )
 Number of active  orbitals:        2 (   2 )
 Number of external orbitals:      27 (  27 )

 State symmetry 1

 Number of electrons:     2    Spin symmetry=Singlet   Space symmetry=1
 Number of states:        3
 Number of CSFs:          3   (4 determinants, 4 intermediate states)

 Molecular orbitals read from record     2100.2  Type=RHF/CANONICAL (state 1.1)

 EXTRA SYMMETRY OF MOS IN SYMMETRY 1:   1 1 1 1 1 1 1 2 2 1   1 1 1 1 1 1 2 1 2 1   1 1 1 1 1 1 2 2 2 1   1 1 1 2 1 1

 Wavefunction dump at record             2140.2

 Convergence thresholds  0.10E-01 (gradient)  0.10E-05 (energy)  0.10E-02 (step length)

 Weight factors for state symmetry  1:    0.33333   0.33333   0.33333

 Number of orbital rotations:      257   (    14 Core/Active    189 Core/Virtual   0 Active/Active     54 Active/Virtual)
 Total number of variables:        269

 Micro-Iterations solved by the two-step solver

 ITER. MIC  NCI  NEG     ENERGY(VAR)     ENERGY(PROJ)   ENERGY CHANGE     GRAD(0)  GRAD(ORB)   GRAD(CI)     STEP       TIME

   1    3    3    0     -77.73456885     -77.74052272   -0.00595387    0.12927856 0.00000135 0.00000000  0.61D-01      0.05
   2    2    3    0     -77.74043283     -77.74043615   -0.00000332    0.00286326 0.00000164 0.00000000  0.15D-02      0.08
   3    2    3    0     -77.74043615     -77.74043615   -0.00000000    0.00000189 0.00000000 0.00000000  0.12D-05      0.11

 ** WVFN ****  CONVERGENCE REACHED, FINAL GRADIENT:  0.96D-12



 Results for state 1.1
 =====================

 !MCSCF STATE  1.1 Energy             -78.048236128842
 Nuclear energy                        33.29058645
 Kinetic energy                        78.07135292
 One electron energy                 -170.02745009
 Two electron energy                   58.68862751
 Virial ratio                           1.99970390

 !MCSCF STATE  1.1 Dipole moment        0.00000000    -0.00000000    -0.00000000
 Dipole moment /Debye                   0.00000000    -0.00000000    -0.00000000

 Results for state 2.1
 =====================

 !MCSCF STATE  2.1 Energy             -77.676321910920
 Nuclear energy                        33.29058645
 Kinetic energy                        78.25724097
 One electron energy                 -169.48589861
 Two electron energy                   58.51899025
 Virial ratio                           1.99257680

 !MCSCF STATE  2.1 Dipole moment        0.00000000    -0.00000000    -0.00000000
 Dipole moment /Debye                   0.00000000    -0.00000000    -0.00000000

 Results for state 3.1
 =====================

 !MCSCF STATE  3.1 Energy             -77.496750418049
 Nuclear energy                        33.29058645
 Kinetic energy                        78.44312901
 One electron energy                 -168.94434714
 Two electron energy                   58.15701027
 Virial ratio                           1.98793548

 !MCSCF STATE  3.1 Dipole moment        0.00000000    -0.00000000    -0.00000000
 Dipole moment /Debye                   0.00000000    -0.00000000    -0.00000000

 State-averaged charge density matrix saved on record  2140.2 (density set 1)

 !MCSCF trans         <2.1|DMY|1.1>    -0.000007604830 au =    -0.000019328285 Debye
 !MCSCF trans         <3.1|DMY|2.1>    -0.000011587918 au =    -0.000029451621 Debye

 !MCSCF trans         <2.1|DMZ|1.1>    -1.511852595037 au =    -3.842494318493 Debye
 !MCSCF trans         <3.1|DMZ|2.1>    -2.303696896651 au =    -5.855029958590 Debye


 NATURAL ORBITALS (state averaged)
 =================================

  Orbital  Occupation    Energy     Coefficients
    1.1     2.00000   -11.24054     1 1s    0.70422     2 1s    0.70422
    2.1     2.00000   -11.23933     1 1s    0.70449     2 1s   -0.70449
    3.1     2.00000    -1.03710     1 1s    0.30926     2 1s    0.30926
    4.1     2.00000    -0.80263     1 1s    0.28460     2 1s   -0.28460
    5.1     2.00000    -0.65266     1 2py   0.32719     2 2py   0.32719
    6.1     2.00000    -0.59360     1 2pz   0.40950     2 2pz  -0.40950
    7.1     2.00000    -0.51753     1 2py   0.31383     2 2py  -0.31383
    8.1     1.00000    -0.22212     1 2px   0.35590     1 2px   0.32284     2 2px   0.35590     2 2px   0.32284
    9.1     1.00000     0.03085     1 2px   0.38031     1 2px   0.67864     2 2px  -0.38031     2 2px  -0.67864
   10.1    -0.00000     0.26397     1 1s   -1.50076     1 2pz  -0.64565     2 1s   -1.50076     2 2pz   0.64565     3 1s    1.04403
                                    4 1s    1.04459     5 1s    1.04459     6 1s    1.04403
   11.1    -0.00000     0.28972     1 2py   0.81819     2 2py   0.81819     3 1s   -1.11196     4 1s    1.11188     5 1s   -1.11188
                                    6 1s    1.11196
   12.1    -0.00000     0.30797     1 1s    1.98679     2 1s   -1.98679     3 1s   -1.07554     4 1s   -1.07520     5 1s    1.07520
                                    6 1s    1.07554
   13.1    -0.00000     0.38638     1 2py  -1.86403     2 2py   1.86403     3 1s    1.64089     4 1s   -1.63838     5 1s   -1.63838
                                    6 1s    1.64089
   14.1    -0.00000     0.48292     1 1s   -2.77210     1 2pz   2.84536     2 1s    2.77210     2 2pz   2.84536     3 1s   -0.60096
                                    4 1s   -0.59857     5 1s    0.59857     6 1s    0.60096
   15.1    -0.00000     0.66271     1 2pz  -0.55262     1 2pz   1.01064     2 2pz   0.55262     2 2pz  -1.01064
   16.1    -0.00000     0.74955     1 2py  -0.40855     1 2py   0.79336     2 2py  -0.40855     2 2py   0.79336     3 1s   -0.37992
                                    4 1s    0.37887     5 1s   -0.37887     6 1s    0.37992
   17.1    -0.00000     0.77497     1 2px  -0.75107     1 2px   0.63409     2 2px  -0.75107     2 2px   0.63409
   18.1    -0.00000     0.85819     1 1s   -0.88794     1 1s    1.48835     1 2pz   0.35110     2 1s   -0.88794     2 1s    1.48835
                                    2 2pz  -0.35110     3 1s   -0.39347     4 1s   -0.39346     5 1s   -0.39346     6 1s   -0.39347
   19.1    -0.00000     0.87161     1 2px  -0.80169     1 2px   1.09734     2 2px   0.80169     2 2px  -1.09734
   20.1    -0.00000     0.92552     1 1s   -0.63474     1 2pz   0.61965     1 2pz  -0.61051     2 1s    0.63474     2 2pz   0.61965
                                    2 2pz  -0.61051     3 1s    0.37379     4 1s    0.37466     5 1s   -0.37466     6 1s   -0.37379
   21.1    -0.00000     1.11151     1 2py  -0.68420     1 2py   1.10887     2 2py  -0.68420     2 2py   1.10887     3 1s    0.38356
                                    3 1s   -1.07415     4 1s   -0.38560     4 1s    1.07728     5 1s    0.38560     5 1s   -1.07728
                                    6 1s   -0.38356     6 1s    1.07415
   22.1    -0.00000     1.15029     1 2py   0.92299     1 2py  -2.98105     2 2py  -0.92299     2 2py   2.98105     3 1s    1.54416
                                    4 1s   -1.54515     5 1s   -1.54515     6 1s    1.54416
   23.1    -0.00000     1.21654     1 1s    1.03386     1 1s   -1.73241     1 2pz   0.36855     1 2pz  -0.49975     2 1s    1.03386
                                    2 1s   -1.73241     2 2pz  -0.36855     2 2pz   0.49975     3 1s   -0.44033     3 1s    0.87272
                                    4 1s   -0.44052     4 1s    0.86590     5 1s   -0.44052     5 1s    0.86590     6 1s   -0.44033
                                    6 1s    0.87272
   24.1    -0.00000     1.22106     1 1s   -0.34855     1 2pz  -0.64378     1 2pz   1.42705     2 1s    0.34855     2 2pz  -0.64378
                                    2 2pz   1.42705     3 1s    0.48555     3 1s   -0.93057     4 1s    0.48421     4 1s   -0.92648
                                    5 1s   -0.48421     5 1s    0.92648     6 1s   -0.48555     6 1s    0.93057
   25.1    -0.00000     1.31138     1 1s   -1.64326     1 1s    5.33809     1 2pz  -1.72426     2 1s    1.64326     2 1s   -5.33809
                                    2 2pz  -1.72426     3 1s   -0.45151     4 1s   -0.45237     5 1s    0.45237     6 1s    0.45151
   26.1    -0.00000     1.46988     1 2py   2.51775     2 2py  -2.51775     3 1s   -0.69851     3 1s   -0.67538     4 1s    0.69766
                                    4 1s    0.67386     5 1s    0.69766     5 1s    0.67386     6 1s   -0.69851     6 1s   -0.67538
   27.1    -0.00000     1.70939     1 3d1+  0.62091     2 3d1+ -0.62091
   28.1    -0.00000     1.81270     1 3d2-  0.68266     2 3d2-  0.68266
   29.1    -0.00000     2.09764     1 3d2-  0.73438     2 3d2- -0.73438
   30.1    -0.00000     2.20396     1 1s   -0.60938     1 3d2+  0.70572     2 1s   -0.60938     2 3d2+  0.70572     3 1s    0.36954
                                    4 1s    0.37037     5 1s    0.37037     6 1s    0.36954
   31.1    -0.00000     2.31997     1 2py   0.28363     1 3d1-  0.69451     2 2py   0.28363     2 3d1- -0.69451     3 1s   -0.52792
                                    4 1s    0.52715     5 1s   -0.52715     6 1s    0.52792
   32.1    -0.00000     2.37495     1 1s   -0.49079     1 2pz   0.27922     1 2pz  -0.45106     1 3d0   0.67498     2 1s   -0.49079
                                    2 2pz  -0.27922     2 2pz   0.45106     2 3d0   0.67498
   33.1    -0.00000     2.61205     1 1s    0.28603     1 1s   -1.35894     1 2pz   0.28395     1 3d2+  0.79940     2 1s   -0.28603
                                    2 1s    1.35894     2 2pz   0.28395     2 3d2+ -0.79940     3 1s    0.45508     4 1s    0.45548
                                    5 1s   -0.45548     6 1s   -0.45508
   34.1    -0.00000     2.66961     1 2px  -0.26228     1 3d1+  0.89345     2 2px   0.26228     2 3d1+  0.89345
   35.1    -0.00000     3.02726     1 1s    0.26053     1 1s    2.01646     1 2pz  -0.74765     1 2pz  -1.18035     1 3d0   1.10296
                                    2 1s   -0.26053     2 1s   -2.01646     2 2pz  -0.74765     2 2pz  -1.18035     2 3d0  -1.10296
   36.1    -0.00000     3.03590     1 2py   0.59000     1 3d1-  0.96113     2 2py  -0.59000     2 3d1-  0.96113     3 1s   -0.48806
                                    4 1s    0.48679     5 1s    0.48679     6 1s   -0.48806


 Natural orbital dump (state averaged) at molpro section  2140.2    (Orbital set 2)



 **********************************************************************************************************************************
 DATASETS  * FILE   NREC   LENGTH (MB)   RECORD NAMES
              1      20       31.36       500      610      700      900      950      970     1000      129      960     1100   
                                          VAR    BASINP    GEOM    SYMINP    ZMAT    AOBASIS   BASIS     P2S    ABASIS      S 
                                         1400     1410     1200     1210     1080     1600     1650     1300     1700     1380   
                                           T        V       H0       H01     AOSYM     SMH    MOLCAS    ERIS     OPER     JKOP   

              2       5        5.42       700     1000      520     2100     2140   
                                         GEOM     BASIS   MCVARS     RHF     MCSCF   

 PROGRAMS   *        TOTAL     MULTI    HF-SCF       INT
 CPU TIMES  *         0.56      0.15      0.09      0.23
 REAL TIME  *         0.83 SEC
 DISK USED  *        38.55 MB
 **********************************************************************************************************************************
 Molecular orbitals read from record     2140.2  Type=MCSCF/NATURAL (state averaged)
 Occupation numbers read from record     2140.2  Type=MCSCF/NATURAL (state averaged)
 Orbital energies read from record       2140.2  Type=MCSCF/NATURAL (state averaged)
 Redundancy group numbers read from rec  2140.2  Type=MCSCF/NATURAL (state averaged)

 MULTI/6-31G* energy=    -77.496750418049

           MULTI          HF-SCF
    -77.49675042    -78.02962189
 **********************************************************************************************************************************
 Molpro calculation terminated
