
 Primary working directories    : /scratch.local/johan406.molpro_temp/molpro.jYztsM6ZCb
 Secondary working directories  : /scratch.local/johan406.molpro_temp/molpro.jYztsM6ZCb
 Wavefunction directory         : /home/goodpast/johan406/wfu/
 Main file repository           : /scratch.local/johan406.molpro_temp/molpro.jYztsM6ZCb/

 id        : roweumn

 Nodes     nprocs
 cn0416       1

 Using customized tuning parameters: mindgm=1; mindgv=20; mindgc=4; mindgr=1; noblas=0; minvec=7
 default implementation of scratch files=df  


 Variables initialized (934), CPU time= 0.00 sec
                                                                                 !leave this line blank
 
 gprint, orbitals=30
 memory, 125., m
 symmetry, nosym
 nelect=16
 basis=6-31g*
 
 geometry={
 C 0.000 0.000 0.677
 C 0.000 -0.000 -0.677
 H 0.000 0.913 1.234
 H 0.000 -0.914 1.233
 H 0.000 0.914 -1.233
 H 0.000 -0.913 -1.234
 }
 
 hf
 {multi,
 closed 7
 occ 9
 wf,spin=0;STATE,3
 }
 
 Commands  initialized (763), CPU time= 0.01 sec, 617 directives.
 Default parameters read. Elapsed time= 0.05 sec

 Checking input...
 Passed
1


                                         ***  PROGRAM SYSTEM MOLPRO  ***
                                       Copyright, TTI GmbH Stuttgart, 2015
                                    Version 2019.2 linked Oct 25 2019 22:50:27


 **********************************************************************************************************************************
 LABEL *                                                                                 
  64 bit serial version                                                                  DATE: 15-Mar-23          TIME: 16:58:23  
 **********************************************************************************************************************************

 SHA1:             8dbd9ae1082e4ce945b0f27595c9eb2d4aa09004
 **********************************************************************************************************************************


 Variable memory set to  125000000 words,  buffer space 

 SETTING NELECT         =        16.00000000                                  
 SETTING BASIS          =    6-31G*
 ZSYMEL=NOSYM


Geometry recognized as XYZ



 Recomputing integrals since basis changed


 Using spherical harmonics

 Library entry C      S 6-31G                selected for orbital group  1
 Library entry C      P 6-31G                selected for orbital group  1
 Library entry C      D 6-31G*               selected for orbital group  1
 Library entry H      S 6-31G                selected for orbital group  2


 PROGRAM * SEWARD (Integral evaluation for generally contracted gaussian basis sets)     Author: Roland Lindh, 1990

 Geometry written to block  1 of record 700


 Point group  C1  



 ATOMIC COORDINATES

 NR  ATOM    CHARGE       X              Y              Z

   1  C       6.00    0.000000000    0.000000000    1.279344586
   2  C       6.00    0.000000000   -0.000000000   -1.279344586
   3  H       1.00    0.000000000    1.725319952    2.331922038
   4  H       1.00    0.000000000   -1.727209678    2.330032312
   5  H       1.00    0.000000000    1.727209678   -2.330032312
   6  H       1.00    0.000000000   -1.725319952   -2.331922038

 Bond lengths in Bohr (Angstrom)

 1-2  2.558689173  1-3  2.021051268  1-4  2.021681965  2-5  2.021681965  2-6  2.021051268
     ( 1.354000000)     ( 1.069494273)     ( 1.069828024)     ( 1.069828024)     ( 1.069494273)

 Bond angles

  1-2-5  121.31278069   1-2-6  121.38639253   2-1-3  121.38639253   2-1-4  121.31278069

  3-1-4  117.30082679   5-2-6  117.30082679

 NUCLEAR CHARGE:                   16
 NUMBER OF PRIMITIVE AOS:          72
 NUMBER OF SYMMETRY AOS:           70
 NUMBER OF CONTRACTIONS:           36   (   36A   )
 NUMBER OF CORE ORBITALS:           2   (    2A   )
 NUMBER OF VALENCE ORBITALS:       12   (   12A   )


 NUCLEAR REPULSION ENERGY   33.29320593

 EXTRA SYMMETRY OF AOS IN SYMMETRY 1:   1 1 1 2 1 1 2 1 1 1   2 2 1 1 1 1 1 2 1 1   2 1 1 1 2 2 1 1 1 1   1 1 1 1 1 1

 Eigenvalues of metric

         1 0.872E-02 0.171E-01 0.375E-01 0.459E-01 0.695E-01 0.203E+00 0.210E+00 0.228E+00


 Contracted 2-electron integrals neglected if value below      1.0D-11
 AO integral compression algorithm  1   Integral accuracy      1.0D-11

     0.786 MB (compressed) written to integral file ( 37.9%)


 NUMBER OF SORTED TWO-ELECTRON INTEGRALS:     222111.     BUFFER LENGTH:  32768
 NUMBER OF SEGMENTS:   1  SEGMENT LENGTH:     222111      RECORD LENGTH: 524288

 Memory used in sort:       0.78 MW

 SORT1 READ      284735. AND WROTE       98699. INTEGRALS IN      1 RECORDS. CPU TIME:     0.00 SEC, REAL TIME:     0.00 SEC
 SORT2 READ       98699. AND WROTE      222111. INTEGRALS IN      3 RECORDS. CPU TIME:     0.02 SEC, REAL TIME:     0.02 SEC

 FILE SIZES:   FILE 1:    30.9 MBYTE,  FILE 4:     4.2 MBYTE,   TOTAL:     35.1 MBYTE

 OPERATOR DM      FOR CENTER  0  COORDINATES:    0.000000    0.000000    0.000000


 **********************************************************************************************************************************
 DATASETS  * FILE   NREC   LENGTH (MB)   RECORD NAMES
              1      19       30.63       500      610      700      900      950      970     1000      129      960     1100   
                                          VAR    BASINP    GEOM    SYMINP    ZMAT    AOBASIS   BASIS     P2S    ABASIS      S 
                                         1400     1410     1200     1210     1080     1600     1650     1300     1700   
                                           T        V       H0       H01     AOSYM     SMH    MOLCAS    ERIS     OPER   

 PROGRAMS   *        TOTAL       INT
 CPU TIMES  *         0.31      0.22
 REAL TIME  *         0.47 SEC
 DISK USED  *        35.45 MB
 **********************************************************************************************************************************


 PROGRAM * RHF-SCF (CLOSED SHELL)       Authors: W. Meyer, H.-J. Werner


 NUMBER OF ELECTRONS:       8+    8-    SPACE SYMMETRY=1    SPIN SYMMETRY: Singlet 
 CONVERGENCE THRESHOLDS:    1.00E-05 (Density)    1.00E-07 (Energy)
 MAX. NUMBER OF ITERATIONS:       60
 INTERPOLATION TYPE:            DIIS
 INTERPOLATION STEPS:              2 (START)      1 (STEP)
 LEVEL SHIFTS:                  0.00 (CLOSED)  0.00 (OPEN) 



 Orbital guess generated from atomic densities. Full valence occupancy:    8

 Molecular orbital dump at record        2100.2

 Initial occupancy:   8

 ITERATION    DDIFF          GRAD             ENERGY        2-EL.EN.            DIPOLE MOMENTS         DIIS   ORB.
    1      0.000D+00      0.000D+00       -78.00591200    118.430812   -0.00000   -0.00000    0.00000    0    start
    2      0.000D+00      0.844D-02       -78.02739743    116.680607    0.00000   -0.00000    0.00000    1    diag
    3      0.811D-02      0.282D-02       -78.02941122    117.283324   -0.00000    0.00000    0.00000    2    diag
    4      0.255D-02      0.703D-03       -78.02961371    117.184383   -0.00000   -0.00000    0.00000    3    diag
    5      0.104D-02      0.659D-04       -78.02961568    117.187165   -0.00000   -0.00000   -0.00000    4    diag
    6      0.141D-03      0.742D-05       -78.02961570    117.186764    0.00000   -0.00000    0.00000    5    diag
    7      0.136D-04      0.110D-05       -78.02961570    117.186772    0.00000   -0.00000   -0.00000    6    diag
    8      0.158D-05      0.123D-06       -78.02961570    117.186766   -0.00000   -0.00000    0.00000    0    orth

 Final occupancy:   8

 !RHF STATE  1.1 Energy               -78.029615701717
 Nuclear energy                        33.29320593
 One-electron energy                 -169.91620469
 Two-electron energy                   58.59338306
 Virial quotient                       -1.00023407
 !RHF STATE  1.1 Dipole moment         -0.00000000    -0.00000000     0.00000000
 Dipole moment /Debye                  -0.00000000    -0.00000000     0.00000000

 ELECTRON ORBITALS
 =================

  Orbital  Occupation    Energy     Coefficients
    1.1     2.00000   -11.22586     1 1s    0.70421     2 1s    0.70421
    2.1     2.00000   -11.22439     1 1s    0.70453     2 1s   -0.70453
    3.1     2.00000    -1.02336     1 1s    0.30140     2 1s    0.30140
    4.1     2.00000    -0.79544     1 1s    0.24069
    5.1     2.00000    -0.64023     1 2py   0.32195     2 2py   0.32195
    6.1     2.00000    -0.57917     1 2pz   0.40766     2 2pz  -0.40766
    7.1     2.00000    -0.51106     1 2py   0.30773     2 2py  -0.30773
    8.1     2.00000    -0.36521     1 2px   0.37161     1 2px   0.31117     2 2px   0.37161     2 2px   0.31117
    9.1     0.00000     0.17500     1 2px   0.34347     1 2px   0.72406     2 2px  -0.34347     2 2px  -0.72406
   10.1     0.00000     0.26688     1 1s   -1.50691     1 2pz  -0.64120     2 1s   -1.50691     2 2pz   0.64120     3 1s    1.04620
                                    4 1s    1.04653     5 1s    1.04653     6 1s    1.04620
   11.1     0.00000     0.29786     1 2py   0.25060     1 2py   0.82629     2 2py   0.25060     2 2py   0.82629     3 1s   -1.12020
                                    4 1s    1.11950     5 1s   -1.11950     6 1s    1.12020
   12.1     0.00000     0.31094     1 1s    1.96220     2 1s   -1.96220     3 1s   -1.08145     4 1s   -1.08172     5 1s    1.08172
                                    6 1s    1.08145
   13.1     0.00000     0.39036     1 2py  -1.87628     2 2py   1.87628     3 1s    1.64717     4 1s   -1.64483     5 1s   -1.64483
                                    6 1s    1.64717
   14.1     0.00000     0.48605     1 1s   -2.79743     1 2pz   2.86875     2 1s    2.79743     2 2pz   2.86875     3 1s   -0.59380
                                    4 1s   -0.59144     5 1s    0.59144     6 1s    0.59380
   15.1     0.00000     0.67352     1 1s    0.27803     1 2pz  -0.55940     1 2pz   1.03422     2 1s    0.27803     2 2pz   0.55940
                                    2 2pz  -1.03422
   16.1     0.00000     0.75924     1 2py  -0.39770     1 2py   0.78585     2 2py  -0.39770     2 2py   0.78585     3 1s   -0.38400
                                    4 1s    0.38296     5 1s   -0.38296     6 1s    0.38400
   17.1     0.00000     0.78084     1 2px  -0.74425     1 2px   0.63957     2 2px  -0.74425     2 2px   0.63957
   18.1     0.00000     0.86145     1 1s   -0.89418     1 1s    1.46645     1 2pz   0.30679     2 1s   -0.89418     2 1s    1.46645
                                    2 2pz  -0.30679     3 1s   -0.39102     4 1s   -0.39097     5 1s   -0.39097     6 1s   -0.39102
   19.1     0.00000     0.88868     1 2px  -0.81696     1 2px   1.06807     2 2px   0.81696     2 2px  -1.06807
   20.1     0.00000     0.94364     1 1s   -0.78203     1 2pz   0.61609     1 2pz  -0.53656     2 1s    0.78203     2 2pz   0.61609
                                    2 2pz  -0.53656     3 1s    0.37306     4 1s    0.37391     5 1s   -0.37391     6 1s   -0.37306
   21.1     0.00000     1.12669     1 2py  -0.69490     1 2py   1.10599     2 2py  -0.69490     2 2py   1.10599     3 1s    0.38314
                                    3 1s   -1.06540     4 1s   -0.38535     4 1s    1.06884     5 1s    0.38535     5 1s   -1.06884
                                    6 1s   -0.38314     6 1s    1.06540
   22.1     0.00000     1.16239     1 2py   0.92570     1 2py  -2.97769     2 2py  -0.92570     2 2py   2.97769     3 1s    1.53694
                                    4 1s   -1.53818     5 1s   -1.53818     6 1s    1.53694
   23.1     0.00000     1.22025     1 1s    1.03836     1 1s   -1.73631     1 2pz   0.36501     1 2pz  -0.49466     2 1s    1.03836
                                    2 1s   -1.73631     2 2pz  -0.36501     2 2pz   0.49466     3 1s   -0.44034     3 1s    0.87374
                                    4 1s   -0.44050     4 1s    0.86653     5 1s   -0.44050     5 1s    0.86653     6 1s   -0.44034
                                    6 1s    0.87374
   24.1     0.00000     1.22458     1 1s   -0.43884     1 2pz  -0.62911     1 2pz   1.32746     2 1s    0.43884     2 2pz  -0.62911
                                    2 2pz   1.32746     3 1s    0.48318     3 1s   -0.95404     4 1s    0.48171     4 1s   -0.94967
                                    5 1s   -0.48171     5 1s    0.94967     6 1s   -0.48318     6 1s    0.95404
   25.1     0.00000     1.32991     1 1s   -1.61956     1 1s    5.32050     1 2pz  -1.80043     2 1s    1.61956     2 1s   -5.32050
                                    2 2pz  -1.80043     3 1s   -0.39730     4 1s   -0.39834     5 1s    0.39834     6 1s    0.39730
   26.1     0.00000     1.47664     1 2py   2.50644     2 2py  -2.50644     3 1s   -0.69916     3 1s   -0.67067     4 1s    0.69831
                                    4 1s    0.66916     5 1s    0.69831     5 1s    0.66916     6 1s   -0.69916     6 1s   -0.67067
   27.1     0.00000     1.73402     1 3d1+  0.62115     2 3d1+ -0.62115
   28.1     0.00000     1.82592     1 3d2-  0.68266     2 3d2-  0.68266
   29.1     0.00000     2.12007     1 3d2-  0.73438     2 3d2- -0.73438
   30.1     0.00000     2.21884     1 1s   -0.61463     1 3d2+  0.70695     2 1s   -0.61463     2 3d2+  0.70695     3 1s    0.36881
                                    4 1s    0.36966     5 1s    0.36966     6 1s    0.36881
   31.1     0.00000     2.33648     1 2py   0.27750     1 3d1-  0.69649     2 2py   0.27750     2 3d1- -0.69649     3 1s   -0.52498
                                    4 1s    0.52422     5 1s   -0.52422     6 1s    0.52498
   32.1     0.00000     2.39396     1 1s   -0.49320     1 2pz   0.27413     1 2pz  -0.44833     1 3d0   0.67585     2 1s   -0.49320
                                    2 2pz  -0.27413     2 2pz   0.44833     2 3d0   0.67585
   33.1     0.00000     2.63032     1 1s    0.28475     1 1s   -1.34611     1 2pz   0.27947     1 3d2+  0.80003     2 1s   -0.28475
                                    2 1s    1.34611     2 2pz   0.27947     2 3d2+ -0.80003     3 1s    0.45187     4 1s    0.45227
                                    5 1s   -0.45227     6 1s   -0.45187
   34.1     0.00000     2.69153     1 2px  -0.26165     1 3d1+  0.89308     2 2px   0.26165     2 3d1+  0.89308
   35.1     0.00000     3.04443     1 1s    0.26720     1 1s    1.99405     1 2pz  -0.75474     1 2pz  -1.16916     1 3d0   1.10146
                                    2 1s   -0.26720     2 1s   -1.99405     2 2pz  -0.75474     2 2pz  -1.16916     2 3d0  -1.10146
   36.1     0.00000     3.05071     1 2py   0.58967     1 3d1-  0.96214     2 2py  -0.58967     2 3d1-  0.96214     3 1s   -0.48663
                                    4 1s    0.48537     5 1s    0.48537     6 1s   -0.48663


 HOMO      8.1    -0.365206 =      -9.9378eV
 LUMO      9.1     0.174997 =       4.7619eV
 LUMO-HOMO         0.540202 =      14.6997eV


 **********************************************************************************************************************************
 DATASETS  * FILE   NREC   LENGTH (MB)   RECORD NAMES
              1      19       30.63       500      610      700      900      950      970     1000      129      960     1100   
                                          VAR    BASINP    GEOM    SYMINP    ZMAT    AOBASIS   BASIS     P2S    ABASIS      S 
                                         1400     1410     1200     1210     1080     1600     1650     1300     1700   
                                           T        V       H0       H01     AOSYM     SMH    MOLCAS    ERIS     OPER   

              2       4        2.86       700     1000      520     2100   
                                         GEOM     BASIS   MCVARS     RHF  

 PROGRAMS   *        TOTAL    HF-SCF       INT
 CPU TIMES  *         0.40      0.09      0.22
 REAL TIME  *         0.63 SEC
 DISK USED  *        35.45 MB
 **********************************************************************************************************************************


 PROGRAM * MULTI (Direct Multiconfiguration SCF)       Authors: P.J. Knowles, H.-J. Werner (1984)


 Number of closed-shell orbitals:   7 (   7 )
 Number of active  orbitals:        2 (   2 )
 Number of external orbitals:      27 (  27 )

 State symmetry 1

 Number of electrons:     2    Spin symmetry=Singlet   Space symmetry=1
 Number of states:        3
 Number of CSFs:          3   (4 determinants, 4 intermediate states)

 Molecular orbitals read from record     2100.2  Type=RHF/CANONICAL (state 1.1)

 EXTRA SYMMETRY OF MOS IN SYMMETRY 1:   1 1 1 1 1 1 1 2 2 1   1 1 1 1 1 1 2 1 2 1   1 1 1 1 1 1 2 2 2 1   1 1 1 2 1 1

 Wavefunction dump at record             2140.2

 Convergence thresholds  0.10E-01 (gradient)  0.10E-05 (energy)  0.10E-02 (step length)

 Weight factors for state symmetry  1:    0.33333   0.33333   0.33333

 Number of orbital rotations:      257   (    14 Core/Active    189 Core/Virtual   0 Active/Active     54 Active/Virtual)
 Total number of variables:        269

 Micro-Iterations solved by the two-step solver

 ITER. MIC  NCI  NEG     ENERGY(VAR)     ENERGY(PROJ)   ENERGY CHANGE     GRAD(0)  GRAD(ORB)   GRAD(CI)     STEP       TIME

   1    3    3    0     -77.73458586     -77.74054061   -0.00595475    0.12929164 0.00000135 0.00000000  0.61D-01      0.06
   2    2    3    0     -77.74045070     -77.74045402   -0.00000333    0.00286347 0.00000164 0.00000000  0.15D-02      0.09
   3    2    3    0     -77.74045402     -77.74045402   -0.00000000    0.00000189 0.00000000 0.00000000  0.12D-05      0.12

 ** WVFN ****  CONVERGENCE REACHED, FINAL GRADIENT:  0.97D-12



 Results for state 1.1
 =====================

 !MCSCF STATE  1.1 Energy             -78.048231555686
 Nuclear energy                        33.29320593
 Kinetic energy                        78.07311172
 One electron energy                 -170.03180841
 Two electron energy                   58.69037093
 Virial ratio                           1.99968132

 !MCSCF STATE  1.1 Dipole moment        0.00000000     0.00000000     0.00000000
 Dipole moment /Debye                   0.00000000     0.00000000     0.00000000

 Results for state 2.1
 =====================

 !MCSCF STATE  2.1 Energy             -77.676338927877
 Nuclear energy                        33.29320593
 Kinetic energy                        78.25894053
 One electron energy                 -169.49034291
 Two electron energy                   58.52079805
 Virial ratio                           1.99255546

 !MCSCF STATE  2.1 Dipole moment        0.00000000     0.00000000     0.00000000
 Dipole moment /Debye                   0.00000000     0.00000000     0.00000000

 Results for state 3.1
 =====================

 !MCSCF STATE  3.1 Energy             -77.496791591085
 Nuclear energy                        33.29320593
 Kinetic energy                        78.44476934
 One electron energy                 -168.94887740
 Two electron energy                   58.15887988
 Virial ratio                           1.98791535

 !MCSCF STATE  3.1 Dipole moment        0.00000000     0.00000000     0.00000000
 Dipole moment /Debye                   0.00000000     0.00000000     0.00000000

 State-averaged charge density matrix saved on record  2140.2 (density set 1)

 !MCSCF trans         <2.1|DMY|1.1>    -0.000007509797 au =    -0.000019086750 Debye
 !MCSCF trans         <3.1|DMY|2.1>    -0.000011443664 au =    -0.000029084988 Debye

 !MCSCF trans         <2.1|DMZ|1.1>    -1.511824856110 au =    -3.842423817793 Debye
 !MCSCF trans         <3.1|DMZ|2.1>    -2.303766035781 au =    -5.855205681219 Debye


 NATURAL ORBITALS (state averaged)
 =================================

  Orbital  Occupation    Energy     Coefficients
    1.1     2.00000   -11.24051     1 1s    0.70422     2 1s    0.70422
    2.1     2.00000   -11.23930     1 1s    0.70449     2 1s   -0.70449
    3.1     2.00000    -1.03708     1 1s    0.30930     2 1s    0.30930
    4.1     2.00000    -0.80296     1 1s    0.28435     2 1s   -0.28435
    5.1     2.00000    -0.65248     1 2py   0.32728     2 2py   0.32728
    6.1     2.00000    -0.59401     1 2pz   0.40951     2 2pz  -0.40951
    7.1     2.00000    -0.51745     1 2py   0.31387     2 2py  -0.31387
    8.1     1.00000     0.03082     1 2px   0.38030     1 2px   0.67865     2 2px  -0.38030     2 2px  -0.67865
    9.1     1.00000    -0.22213     1 2px   0.35592     1 2px   0.32283     2 2px   0.35592     2 2px   0.32283
   10.1    -0.00000     0.26422     1 1s   -1.50306     1 2pz  -0.64720     2 1s   -1.50306     2 2pz   0.64720     3 1s    1.04564
                                    4 1s    1.04620     5 1s    1.04620     6 1s    1.04564
   11.1    -0.00000     0.28978     1 2py   0.81750     2 2py   0.81750     3 1s   -1.11182     4 1s    1.11171     5 1s   -1.11171
                                    6 1s    1.11182
   12.1    -0.00000     0.30793     1 1s    1.98699     2 1s   -1.98699     3 1s   -1.07591     4 1s   -1.07561     5 1s    1.07561
                                    6 1s    1.07591
   13.1    -0.00000     0.38647     1 2py  -1.86282     2 2py   1.86282     3 1s    1.64078     4 1s   -1.63827     5 1s   -1.63827
                                    6 1s    1.64078
   14.1    -0.00000     0.48317     1 1s   -2.77256     1 2pz   2.84959     2 1s    2.77256     2 2pz   2.84959     3 1s   -0.60398
                                    4 1s   -0.60159     5 1s    0.60159     6 1s    0.60398
   15.1    -0.00000     0.66282     1 2pz  -0.55270     1 2pz   1.01140     2 2pz   0.55270     2 2pz  -1.01140
   16.1    -0.00000     0.74884     1 2py  -0.40856     1 2py   0.79183     2 2py  -0.40856     2 2py   0.79183     3 1s   -0.37970
                                    4 1s    0.37866     5 1s   -0.37866     6 1s    0.37970
   17.1    -0.00000     0.77498     1 2px  -0.75106     1 2px   0.63409     2 2px  -0.75106     2 2px   0.63409
   18.1    -0.00000     0.85843     1 1s   -0.88823     1 1s    1.49330     1 2pz   0.35586     2 1s   -0.88823     2 1s    1.49330
                                    2 2pz  -0.35586     3 1s   -0.39341     4 1s   -0.39340     5 1s   -0.39340     6 1s   -0.39341
   19.1    -0.00000     0.87160     1 2px  -0.80169     1 2px   1.09733     2 2px   0.80169     2 2px  -1.09733
   20.1    -0.00000     0.92529     1 1s   -0.63063     1 2pz   0.61928     1 2pz  -0.61707     2 1s    0.63063     2 2pz   0.61928
                                    2 2pz  -0.61707     3 1s    0.37384     4 1s    0.37470     5 1s   -0.37470     6 1s   -0.37384
   21.1    -0.00000     1.11163     1 2py  -0.68389     1 2py   1.10803     2 2py  -0.68389     2 2py   1.10803     3 1s    0.38361
                                    3 1s   -1.07427     4 1s   -0.38563     4 1s    1.07738     5 1s    0.38563     5 1s   -1.07738
                                    6 1s   -0.38361     6 1s    1.07427
   22.1    -0.00000     1.15036     1 2py   0.92289     1 2py  -2.98218     2 2py  -0.92289     2 2py   2.98218     3 1s    1.54464
                                    4 1s   -1.54558     5 1s   -1.54558     6 1s    1.54464
   23.1    -0.00000     1.21727     1 1s    1.03347     1 1s   -1.73222     1 2pz   0.36885     1 2pz  -0.50034     2 1s    1.03347
                                    2 1s   -1.73222     2 2pz  -0.36885     2 2pz   0.50034     3 1s   -0.44080     3 1s    0.87296
                                    4 1s   -0.44100     4 1s    0.86623     5 1s   -0.44100     5 1s    0.86623     6 1s   -0.44080
                                    6 1s    0.87296
   24.1    -0.00000     1.22182     1 1s   -0.35012     1 2pz  -0.64414     1 2pz   1.42497     2 1s    0.35012     2 2pz  -0.64414
                                    2 2pz   1.42497     3 1s    0.48565     3 1s   -0.93067     4 1s    0.48433     4 1s   -0.92661
                                    5 1s   -0.48433     5 1s    0.92661     6 1s   -0.48565     6 1s    0.93067
   25.1    -0.00000     1.31127     1 1s   -1.64273     1 1s    5.33521     1 2pz  -1.72277     2 1s    1.64273     2 1s   -5.33521
                                    2 2pz  -1.72277     3 1s   -0.45096     4 1s   -0.45183     5 1s    0.45183     6 1s    0.45096
   26.1    -0.00000     1.46811     1 2py   2.50987     2 2py  -2.50987     3 1s   -0.69799     3 1s   -0.67187     4 1s    0.69714
                                    4 1s    0.67036     5 1s    0.69714     5 1s    0.67036     6 1s   -0.69799     6 1s   -0.67187
   27.1    -0.00000     1.70928     1 3d1+  0.62091     2 3d1+ -0.62091
   28.1    -0.00000     1.81273     1 3d2-  0.68266     2 3d2-  0.68266
   29.1    -0.00000     2.09767     1 3d2-  0.73438     2 3d2- -0.73438
   30.1    -0.00000     2.20400     1 1s   -0.61042     1 3d2+  0.70607     2 1s   -0.61042     2 3d2+  0.70607     3 1s    0.37027
                                    4 1s    0.37110     5 1s    0.37110     6 1s    0.37027
   31.1    -0.00000     2.32090     1 2py   0.28435     1 3d1-  0.69473     2 2py   0.28435     2 3d1- -0.69473     3 1s   -0.52834
                                    4 1s    0.52756     5 1s   -0.52756     6 1s    0.52834
   32.1    -0.00000     2.37436     1 1s   -0.49097     1 2pz   0.27961     1 2pz  -0.45148     1 3d0   0.67526     2 1s   -0.49097
                                    2 2pz  -0.27961     2 2pz   0.45148     2 3d0   0.67526
   33.1    -0.00000     2.61128     1 1s    0.28553     1 1s   -1.35166     1 2pz   0.27828     1 3d2+  0.79929     2 1s   -0.28553
                                    2 1s    1.35166     2 2pz   0.27828     2 3d2+ -0.79929     3 1s    0.45489     4 1s    0.45530
                                    5 1s   -0.45530     6 1s   -0.45489
   34.1    -0.00000     2.66950     1 2px  -0.26230     1 3d1+  0.89345     2 2px   0.26230     2 3d1+  0.89345
   35.1    -0.00000     3.02716     1 1s    0.26028     1 1s    2.01860     1 2pz  -0.74737     1 2pz  -1.18196     1 3d0   1.10299
                                    2 1s   -0.26028     2 1s   -2.01860     2 2pz  -0.74737     2 2pz  -1.18196     2 3d0  -1.10299
   36.1    -0.00000     3.03837     1 2py   0.58991     1 3d1-  0.96172     2 2py  -0.58991     2 3d1-  0.96172     3 1s   -0.48893
                                    4 1s    0.48766     5 1s    0.48766     6 1s   -0.48893


 Natural orbital dump (state averaged) at molpro section  2140.2    (Orbital set 2)



 **********************************************************************************************************************************
 DATASETS  * FILE   NREC   LENGTH (MB)   RECORD NAMES
              1      20       31.36       500      610      700      900      950      970     1000      129      960     1100   
                                          VAR    BASINP    GEOM    SYMINP    ZMAT    AOBASIS   BASIS     P2S    ABASIS      S 
                                         1400     1410     1200     1210     1080     1600     1650     1300     1700     1380   
                                           T        V       H0       H01     AOSYM     SMH    MOLCAS    ERIS     OPER     JKOP   

              2       5        5.42       700     1000      520     2100     2140   
                                         GEOM     BASIS   MCVARS     RHF     MCSCF   

 PROGRAMS   *        TOTAL     MULTI    HF-SCF       INT
 CPU TIMES  *         0.55      0.15      0.09      0.22
 REAL TIME  *         0.80 SEC
 DISK USED  *        38.55 MB
 **********************************************************************************************************************************
 Molecular orbitals read from record     2140.2  Type=MCSCF/NATURAL (state averaged)
 Occupation numbers read from record     2140.2  Type=MCSCF/NATURAL (state averaged)
 Orbital energies read from record       2140.2  Type=MCSCF/NATURAL (state averaged)
 Redundancy group numbers read from rec  2140.2  Type=MCSCF/NATURAL (state averaged)

 MULTI/6-31G* energy=    -77.496791591085

           MULTI          HF-SCF
    -77.49679159    -78.02961570
 **********************************************************************************************************************************
 Molpro calculation terminated
