
 Primary working directories    : /scratch.local/johan406.molpro_temp/molpro.npqE5tdJ9d
 Secondary working directories  : /scratch.local/johan406.molpro_temp/molpro.npqE5tdJ9d
 Wavefunction directory         : /home/goodpast/johan406/wfu/
 Main file repository           : /scratch.local/johan406.molpro_temp/molpro.npqE5tdJ9d/

 id        : roweumn

 Nodes     nprocs
 cn0416       1

 Using customized tuning parameters: mindgm=1; mindgv=20; mindgc=4; mindgr=1; noblas=0; minvec=7
 default implementation of scratch files=df  


 Variables initialized (934), CPU time= 0.00 sec
                                                                                 !leave this line blank
 
 gprint, orbitals=30
 memory, 125., m
 symmetry, nosym
 nelect=16
 basis=6-31g*
 
 geometry={
 C 0.000 0.000 0.677
 C 0.000 -0.000 -0.677
 H 0.000 0.913 1.235
 H 0.000 -0.914 1.234
 H 0.000 0.914 -1.234
 H 0.000 -0.913 -1.235
 }
 
 hf
 {multi,
 closed 7
 occ 9
 wf,spin=0;STATE,3
 }
 
 Commands  initialized (763), CPU time= 0.01 sec, 617 directives.
 Default parameters read. Elapsed time= 0.04 sec

 Checking input...
 Passed
1


                                         ***  PROGRAM SYSTEM MOLPRO  ***
                                       Copyright, TTI GmbH Stuttgart, 2015
                                    Version 2019.2 linked Oct 25 2019 22:50:27


 **********************************************************************************************************************************
 LABEL *                                                                                 
  64 bit serial version                                                                  DATE: 15-Mar-23          TIME: 16:58:30  
 **********************************************************************************************************************************

 SHA1:             8dbd9ae1082e4ce945b0f27595c9eb2d4aa09004
 **********************************************************************************************************************************


 Variable memory set to  125000000 words,  buffer space 

 SETTING NELECT         =        16.00000000                                  
 SETTING BASIS          =    6-31G*
 ZSYMEL=NOSYM


Geometry recognized as XYZ



 Recomputing integrals since basis changed


 Using spherical harmonics

 Library entry C      S 6-31G                selected for orbital group  1
 Library entry C      P 6-31G                selected for orbital group  1
 Library entry C      D 6-31G*               selected for orbital group  1
 Library entry H      S 6-31G                selected for orbital group  2


 PROGRAM * SEWARD (Integral evaluation for generally contracted gaussian basis sets)     Author: Roland Lindh, 1990

 Geometry written to block  1 of record 700


 Point group  C1  



 ATOMIC COORDINATES

 NR  ATOM    CHARGE       X              Y              Z

   1  C       6.00    0.000000000    0.000000000    1.279344586
   2  C       6.00    0.000000000   -0.000000000   -1.279344586
   3  H       1.00    0.000000000    1.725319952    2.333811764
   4  H       1.00    0.000000000   -1.727209678    2.331922038
   5  H       1.00    0.000000000    1.727209678   -2.331922038
   6  H       1.00    0.000000000   -1.725319952   -2.333811764

 Bond lengths in Bohr (Angstrom)

 1-2  2.558689173  1-3  2.022036094  1-4  2.022664718  2-5  2.022664718  2-6  2.022036094
     ( 1.354000000)     ( 1.070015420)     ( 1.070348074)     ( 1.070348074)     ( 1.070015420)

 Bond angles

  1-2-5  121.35851371   1-2-6  121.43210397   2-1-3  121.43210397   2-1-4  121.35851371

  3-1-4  117.20938232   5-2-6  117.20938232

 NUCLEAR CHARGE:                   16
 NUMBER OF PRIMITIVE AOS:          72
 NUMBER OF SYMMETRY AOS:           70
 NUMBER OF CONTRACTIONS:           36   (   36A   )
 NUMBER OF CORE ORBITALS:           2   (    2A   )
 NUMBER OF VALENCE ORBITALS:       12   (   12A   )


 NUCLEAR REPULSION ENERGY   33.28434816

 EXTRA SYMMETRY OF AOS IN SYMMETRY 1:   1 1 1 2 1 1 2 1 1 1   2 2 1 1 1 1 1 2 1 1   2 1 1 1 2 2 1 1 1 1   1 1 1 1 1 1

 Eigenvalues of metric

         1 0.873E-02 0.171E-01 0.375E-01 0.459E-01 0.696E-01 0.203E+00 0.210E+00 0.228E+00


 Contracted 2-electron integrals neglected if value below      1.0D-11
 AO integral compression algorithm  1   Integral accuracy      1.0D-11

     0.786 MB (compressed) written to integral file ( 37.9%)


 NUMBER OF SORTED TWO-ELECTRON INTEGRALS:     222111.     BUFFER LENGTH:  32768
 NUMBER OF SEGMENTS:   1  SEGMENT LENGTH:     222111      RECORD LENGTH: 524288

 Memory used in sort:       0.78 MW

 SORT1 READ      284735. AND WROTE       98699. INTEGRALS IN      1 RECORDS. CPU TIME:     0.00 SEC, REAL TIME:     0.01 SEC
 SORT2 READ       98699. AND WROTE      222111. INTEGRALS IN      3 RECORDS. CPU TIME:     0.02 SEC, REAL TIME:     0.02 SEC

 FILE SIZES:   FILE 1:    30.9 MBYTE,  FILE 4:     4.2 MBYTE,   TOTAL:     35.1 MBYTE

 OPERATOR DM      FOR CENTER  0  COORDINATES:    0.000000    0.000000    0.000000


 **********************************************************************************************************************************
 DATASETS  * FILE   NREC   LENGTH (MB)   RECORD NAMES
              1      19       30.63       500      610      700      900      950      970     1000      129      960     1100   
                                          VAR    BASINP    GEOM    SYMINP    ZMAT    AOBASIS   BASIS     P2S    ABASIS      S 
                                         1400     1410     1200     1210     1080     1600     1650     1300     1700   
                                           T        V       H0       H01     AOSYM     SMH    MOLCAS    ERIS     OPER   

 PROGRAMS   *        TOTAL       INT
 CPU TIMES  *         0.30      0.22
 REAL TIME  *         0.49 SEC
 DISK USED  *        35.45 MB
 **********************************************************************************************************************************


 PROGRAM * RHF-SCF (CLOSED SHELL)       Authors: W. Meyer, H.-J. Werner


 NUMBER OF ELECTRONS:       8+    8-    SPACE SYMMETRY=1    SPIN SYMMETRY: Singlet 
 CONVERGENCE THRESHOLDS:    1.00E-05 (Density)    1.00E-07 (Energy)
 MAX. NUMBER OF ITERATIONS:       60
 INTERPOLATION TYPE:            DIIS
 INTERPOLATION STEPS:              2 (START)      1 (STEP)
 LEVEL SHIFTS:                  0.00 (CLOSED)  0.00 (OPEN) 



 Orbital guess generated from atomic densities. Full valence occupancy:    8

 Molecular orbital dump at record        2100.2

 Initial occupancy:   8

 ITERATION    DDIFF          GRAD             ENERGY        2-EL.EN.            DIPOLE MOMENTS         DIIS   ORB.
    1      0.000D+00      0.000D+00       -78.00593896    118.413752    0.00000   -0.00000    0.00000    0    start
    2      0.000D+00      0.844D-02       -78.02741409    116.663872   -0.00000    0.00000    0.00000    1    diag
    3      0.810D-02      0.282D-02       -78.02942832    117.266770   -0.00000    0.00000    0.00000    2    diag
    4      0.256D-02      0.703D-03       -78.02963096    117.167743    0.00000    0.00000   -0.00000    3    diag
    5      0.104D-02      0.659D-04       -78.02963293    117.170536    0.00000    0.00000   -0.00000    4    diag
    6      0.141D-03      0.746D-05       -78.02963296    117.170133   -0.00000    0.00000    0.00000    5    diag
    7      0.137D-04      0.110D-05       -78.02963296    117.170141   -0.00000   -0.00000    0.00000    6    diag
    8      0.160D-05      0.124D-06       -78.02963296    117.170135   -0.00000    0.00000    0.00000    0    orth

 Final occupancy:   8

 !RHF STATE  1.1 Energy               -78.029632959676
 Nuclear energy                        33.28434816
 One-electron energy                 -169.89904878
 Two-electron energy                   58.58506767
 Virial quotient                       -1.00027752
 !RHF STATE  1.1 Dipole moment         -0.00000000     0.00000000     0.00000000
 Dipole moment /Debye                  -0.00000000     0.00000000     0.00000000

 ELECTRON ORBITALS
 =================

  Orbital  Occupation    Energy     Coefficients
    1.1     2.00000   -11.22603     1 1s    0.70421     2 1s    0.70421
    2.1     2.00000   -11.22456     1 1s    0.70453     2 1s   -0.70453
    3.1     2.00000    -1.02325     1 1s    0.30143     2 1s    0.30143
    4.1     2.00000    -0.79536     1 1s    0.24079
    5.1     2.00000    -0.63989     1 2py   0.32191     2 2py   0.32191
    6.1     2.00000    -0.57934     1 2pz   0.40757     2 2pz  -0.40757
    7.1     2.00000    -0.51079     1 2py   0.30760     2 2py  -0.30760
    8.1     2.00000    -0.36524     1 2px   0.37164     1 2px   0.31114     2 2px   0.37164     2 2px   0.31114
    9.1     0.00000     0.17497     1 2px   0.34348     1 2px   0.72405     2 2px  -0.34348     2 2px  -0.72405
   10.1     0.00000     0.26688     1 1s   -1.50630     1 2pz  -0.64174     2 1s   -1.50630     2 2pz   0.64174     3 1s    1.04608
                                    4 1s    1.04640     5 1s    1.04640     6 1s    1.04608
   11.1     0.00000     0.29766     1 2py   0.25067     1 2py   0.82502     2 2py   0.25067     2 2py   0.82502     3 1s   -1.11865
                                    4 1s    1.11793     5 1s   -1.11793     6 1s    1.11865
   12.1     0.00000     0.31069     1 1s    1.95906     2 1s   -1.95906     3 1s   -1.08060     4 1s   -1.08090     5 1s    1.08090
                                    6 1s    1.08060
   13.1     0.00000     0.39035     1 2py  -1.87390     2 2py   1.87390     3 1s    1.64496     4 1s   -1.64263     5 1s   -1.64263
                                    6 1s    1.64496
   14.1     0.00000     0.48620     1 1s   -2.80036     1 2pz   2.87101     2 1s    2.80036     2 2pz   2.87101     3 1s   -0.59430
                                    4 1s   -0.59195     5 1s    0.59195     6 1s    0.59430
   15.1     0.00000     0.67365     1 1s    0.27674     1 2pz  -0.55966     1 2pz   1.03452     2 1s    0.27674     2 2pz   0.55966
                                    2 2pz  -1.03452
   16.1     0.00000     0.75903     1 2py  -0.39787     1 2py   0.78394     2 2py  -0.39787     2 2py   0.78394     3 1s   -0.38405
                                    4 1s    0.38301     5 1s   -0.38301     6 1s    0.38405
   17.1     0.00000     0.78079     1 2px  -0.74423     1 2px   0.63959     2 2px  -0.74423     2 2px   0.63959
   18.1     0.00000     0.86161     1 1s   -0.89385     1 1s    1.46715     1 2pz   0.30994     2 1s   -0.89385     2 1s    1.46715
                                    2 2pz  -0.30994     3 1s   -0.39138     4 1s   -0.39134     5 1s   -0.39134     6 1s   -0.39138
   19.1     0.00000     0.88862     1 2px  -0.81696     1 2px   1.06808     2 2px   0.81696     2 2px  -1.06808
   20.1     0.00000     0.94348     1 1s   -0.77566     1 2pz   0.61570     1 2pz  -0.53977     2 1s    0.77566     2 2pz   0.61570
                                    2 2pz  -0.53977     3 1s    0.37339     4 1s    0.37424     5 1s   -0.37424     6 1s   -0.37339
   21.1     0.00000     1.12621     1 2py  -0.69460     1 2py   1.10508     2 2py  -0.69460     2 2py   1.10508     3 1s    0.38313
                                    3 1s   -1.06478     4 1s   -0.38533     4 1s    1.06820     5 1s    0.38533     5 1s   -1.06820
                                    6 1s   -0.38313     6 1s    1.06478
   22.1     0.00000     1.16206     1 2py   0.92548     1 2py  -2.97146     2 2py  -0.92548     2 2py   2.97146     3 1s    1.53386
                                    4 1s   -1.53509     5 1s   -1.53509     6 1s    1.53386
   23.1     0.00000     1.21994     1 1s    1.03817     1 1s   -1.73560     1 2pz   0.36490     1 2pz  -0.49480     2 1s    1.03817
                                    2 1s   -1.73560     2 2pz  -0.36490     2 2pz   0.49480     3 1s   -0.44042     3 1s    0.87355
                                    4 1s   -0.44058     4 1s    0.86638     5 1s   -0.44058     5 1s    0.86638     6 1s   -0.44042
                                    6 1s    0.87355
   24.1     0.00000     1.22434     1 1s   -0.44269     1 2pz  -0.62910     1 2pz   1.32244     2 1s    0.44269     2 2pz  -0.62910
                                    2 2pz   1.32244     3 1s    0.48273     3 1s   -0.95454     4 1s    0.48127     4 1s   -0.95021
                                    5 1s   -0.48127     5 1s    0.95021     6 1s   -0.48273     6 1s    0.95454
   25.1     0.00000     1.32985     1 1s   -1.61828     1 1s    5.31701     1 2pz  -1.80236     2 1s    1.61828     2 1s   -5.31701
                                    2 2pz  -1.80236     3 1s   -0.39427     4 1s   -0.39531     5 1s    0.39531     6 1s    0.39427
   26.1     0.00000     1.47525     1 2py   2.50459     2 2py  -2.50459     3 1s   -0.69856     3 1s   -0.66903     4 1s    0.69771
                                    4 1s    0.66752     5 1s    0.69771     5 1s    0.66752     6 1s   -0.69856     6 1s   -0.66903
   27.1     0.00000     1.73396     1 3d1+  0.62115     2 3d1+ -0.62115
   28.1     0.00000     1.82600     1 3d2-  0.68266     2 3d2-  0.68266
   29.1     0.00000     2.12016     1 3d2-  0.73438     2 3d2- -0.73438
   30.1     0.00000     2.21826     1 1s   -0.61455     1 3d2+  0.70727     2 1s   -0.61455     2 3d2+  0.70727     3 1s    0.36890
                                    4 1s    0.36975     5 1s    0.36975     6 1s    0.36890
   31.1     0.00000     2.33597     1 2py   0.27712     1 3d1-  0.69637     2 2py   0.27712     2 3d1- -0.69637     3 1s   -0.52454
                                    4 1s    0.52378     5 1s   -0.52378     6 1s    0.52454
   32.1     0.00000     2.39353     1 1s   -0.49326     1 2pz   0.27476     1 2pz  -0.44837     1 3d0   0.67624     2 1s   -0.49326
                                    2 2pz  -0.27476     2 2pz   0.44837     2 3d0   0.67624
   33.1     0.00000     2.62898     1 1s    0.28496     1 1s   -1.34045     1 2pz   0.27580     1 3d2+  0.79972     2 1s   -0.28496
                                    2 1s    1.34045     2 2pz   0.27580     2 3d2+ -0.79972     3 1s    0.45109     4 1s    0.45150
                                    5 1s   -0.45150     6 1s   -0.45109
   34.1     0.00000     2.69147     1 2px  -0.26166     1 3d1+  0.89308     2 2px   0.26166     2 3d1+  0.89308
   35.1     0.00000     3.04439     1 1s    0.26699     1 1s    1.99572     1 2pz  -0.75451     1 2pz  -1.17019     1 3d0   1.10148
                                    2 1s   -0.26699     2 1s   -1.99572     2 2pz  -0.75451     2 2pz  -1.17019     2 3d0  -1.10148
   36.1     0.00000     3.05114     1 2py   0.58747     1 3d1-  0.96215     2 2py  -0.58747     2 3d1-  0.96215     3 1s   -0.48624
                                    4 1s    0.48498     5 1s    0.48498     6 1s   -0.48624


 HOMO      8.1    -0.365238 =      -9.9386eV
 LUMO      9.1     0.174971 =       4.7612eV
 LUMO-HOMO         0.540209 =      14.6998eV


 **********************************************************************************************************************************
 DATASETS  * FILE   NREC   LENGTH (MB)   RECORD NAMES
              1      19       30.63       500      610      700      900      950      970     1000      129      960     1100   
                                          VAR    BASINP    GEOM    SYMINP    ZMAT    AOBASIS   BASIS     P2S    ABASIS      S 
                                         1400     1410     1200     1210     1080     1600     1650     1300     1700   
                                           T        V       H0       H01     AOSYM     SMH    MOLCAS    ERIS     OPER   

              2       4        2.86       700     1000      520     2100   
                                         GEOM     BASIS   MCVARS     RHF  

 PROGRAMS   *        TOTAL    HF-SCF       INT
 CPU TIMES  *         0.38      0.08      0.22
 REAL TIME  *         0.61 SEC
 DISK USED  *        35.45 MB
 **********************************************************************************************************************************


 PROGRAM * MULTI (Direct Multiconfiguration SCF)       Authors: P.J. Knowles, H.-J. Werner (1984)


 Number of closed-shell orbitals:   7 (   7 )
 Number of active  orbitals:        2 (   2 )
 Number of external orbitals:      27 (  27 )

 State symmetry 1

 Number of electrons:     2    Spin symmetry=Singlet   Space symmetry=1
 Number of states:        3
 Number of CSFs:          3   (4 determinants, 4 intermediate states)

 Molecular orbitals read from record     2100.2  Type=RHF/CANONICAL (state 1.1)

 EXTRA SYMMETRY OF MOS IN SYMMETRY 1:   1 1 1 1 1 1 1 2 2 1   1 1 1 1 1 1 2 1 2 1   1 1 1 1 1 1 2 2 2 1   1 1 1 2 1 1

 Wavefunction dump at record             2140.2

 Convergence thresholds  0.10E-01 (gradient)  0.10E-05 (energy)  0.10E-02 (step length)

 Weight factors for state symmetry  1:    0.33333   0.33333   0.33333

 Number of orbital rotations:      257   (    14 Core/Active    189 Core/Virtual   0 Active/Active     54 Active/Virtual)
 Total number of variables:        269

 Micro-Iterations solved by the two-step solver

 ITER. MIC  NCI  NEG     ENERGY(VAR)     ENERGY(PROJ)   ENERGY CHANGE     GRAD(0)  GRAD(ORB)   GRAD(CI)     STEP       TIME

   1    3    3    0     -77.73459917     -77.74055571   -0.00595655    0.12930107 0.00000136 0.00000000  0.61D-01      0.06
   2    2    3    0     -77.74046573     -77.74046906   -0.00000333    0.00286513 0.00000164 0.00000000  0.15D-02      0.09
   3    2    3    0     -77.74046906     -77.74046906   -0.00000000    0.00000190 0.00000000 0.00000000  0.12D-05      0.12

 ** WVFN ****  CONVERGENCE REACHED, FINAL GRADIENT:  0.97D-12



 Results for state 1.1
 =====================

 !MCSCF STATE  1.1 Energy             -78.048248330483
 Nuclear energy                        33.28434816
 Kinetic energy                        78.06972619
 One electron energy                 -170.01480580
 Two electron energy                   58.68220931
 Virial ratio                           1.99972489

 !MCSCF STATE  1.1 Dipole moment        0.00000000    -0.00000000    -0.00000000
 Dipole moment /Debye                   0.00000000    -0.00000000    -0.00000000

 Results for state 2.1
 =====================

 !MCSCF STATE  2.1 Energy             -77.676352836497
 Nuclear energy                        33.28434816
 Kinetic energy                        78.25550972
 One electron energy                 -169.47337058
 Two electron energy                   58.51266958
 Virial ratio                           1.99259916

 !MCSCF STATE  2.1 Dipole moment        0.00000000    -0.00000000    -0.00000000
 Dipole moment /Debye                   0.00000000    -0.00000000    -0.00000000

 Results for state 3.1
 =====================

 !MCSCF STATE  3.1 Energy             -77.496806003028
 Nuclear energy                        33.28434816
 Kinetic energy                        78.44129325
 One electron energy                 -168.93193536
 Two electron energy                   58.15078119
 Virial ratio                           1.98795931

 !MCSCF STATE  3.1 Dipole moment        0.00000000    -0.00000000    -0.00000000
 Dipole moment /Debye                   0.00000000    -0.00000000    -0.00000000

 State-averaged charge density matrix saved on record  2140.2 (density set 1)

 !MCSCF trans         <2.1|DMY|1.1>    -0.000007456806 au =    -0.000018952070 Debye
 !MCSCF trans         <3.1|DMY|2.1>    -0.000011363028 au =    -0.000028880046 Debye

 !MCSCF trans         <2.1|DMZ|1.1>    -1.511794294491 au =    -3.842346142992 Debye
 !MCSCF trans         <3.1|DMZ|2.1>    -2.303742515689 au =    -5.855145903025 Debye


 NATURAL ORBITALS (state averaged)
 =================================

  Orbital  Occupation    Energy     Coefficients
    1.1     2.00000   -11.24067     1 1s    0.70422     2 1s    0.70422
    2.1     2.00000   -11.23946     1 1s    0.70449     2 1s   -0.70449
    3.1     2.00000    -1.03697     1 1s    0.30932     2 1s    0.30932
    4.1     2.00000    -0.80286     1 1s    0.28444     2 1s   -0.28444
    5.1     2.00000    -0.65212     1 2py   0.32725     2 2py   0.32725
    6.1     2.00000    -0.59416     1 2pz   0.40942     2 2pz  -0.40942
    7.1     2.00000    -0.51716     1 2py   0.31375     2 2py  -0.31375
    8.1     1.00000     0.03080     1 2px   0.38030     1 2px   0.67863     2 2px  -0.38030     2 2px  -0.67863
    9.1     1.00000    -0.22215     1 2px   0.35595     1 2px   0.32280     2 2px   0.35595     2 2px   0.32280
   10.1    -0.00000     0.26422     1 1s   -1.50248     1 2pz  -0.64773     2 1s   -1.50248     2 2pz   0.64773     3 1s    1.04553
                                    4 1s    1.04609     5 1s    1.04609     6 1s    1.04553
   11.1    -0.00000     0.28958     1 2py   0.81623     2 2py   0.81623     3 1s   -1.11028     4 1s    1.11015     5 1s   -1.11015
                                    6 1s    1.11028
   12.1    -0.00000     0.30769     1 1s    1.98389     2 1s   -1.98389     3 1s   -1.07505     4 1s   -1.07477     5 1s    1.07477
                                    6 1s    1.07505
   13.1    -0.00000     0.38645     1 2py  -1.86044     2 2py   1.86044     3 1s    1.63857     4 1s   -1.63607     5 1s   -1.63607
                                    6 1s    1.63857
   14.1    -0.00000     0.48331     1 1s   -2.77539     1 2pz   2.85178     2 1s    2.77539     2 2pz   2.85178     3 1s   -0.60450
                                    4 1s   -0.60210     5 1s    0.60210     6 1s    0.60450
   15.1    -0.00000     0.66292     1 2pz  -0.55287     1 2pz   1.01159     2 2pz   0.55287     2 2pz  -1.01159
   16.1    -0.00000     0.74865     1 2py  -0.40875     1 2py   0.78996     2 2py  -0.40875     2 2py   0.78996     3 1s   -0.37974
                                    4 1s    0.37870     5 1s   -0.37870     6 1s    0.37974
   17.1    -0.00000     0.77494     1 2px  -0.75105     1 2px   0.63411     2 2px  -0.75105     2 2px   0.63411
   18.1    -0.00000     0.85863     1 1s   -0.88785     1 1s    1.49385     1 2pz   0.35890     2 1s   -0.88785     2 1s    1.49385
                                    2 2pz  -0.35890     3 1s   -0.39374     4 1s   -0.39372     5 1s   -0.39372     6 1s   -0.39374
   19.1    -0.00000     0.87155     1 2px  -0.80169     1 2px   1.09734     2 2px   0.80169     2 2px  -1.09734
   20.1    -0.00000     0.92515     1 1s   -0.62422     1 2pz   0.61893     1 2pz  -0.62047     2 1s    0.62422     2 2pz   0.61893
                                    2 2pz  -0.62047     3 1s    0.37413     4 1s    0.37499     5 1s   -0.37499     6 1s   -0.37413
   21.1    -0.00000     1.11117     1 2py  -0.68358     1 2py   1.10708     2 2py  -0.68358     2 2py   1.10708     3 1s    0.38361
                                    3 1s   -1.07365     4 1s   -0.38563     4 1s    1.07674     5 1s    0.38563     5 1s   -1.07674
                                    6 1s   -0.38361     6 1s    1.07365
   22.1    -0.00000     1.15003     1 2py   0.92267     1 2py  -2.97601     2 2py  -0.92267     2 2py   2.97601     3 1s    1.54158
                                    4 1s   -1.54251     5 1s   -1.54251     6 1s    1.54158
   23.1    -0.00000     1.21698     1 1s    1.03328     1 1s   -1.73152     1 2pz   0.36873     1 2pz  -0.50047     2 1s    1.03328
                                    2 1s   -1.73152     2 2pz  -0.36873     2 2pz   0.50047     3 1s   -0.44088     3 1s    0.87277
                                    4 1s   -0.44108     4 1s    0.86609     5 1s   -0.44108     5 1s    0.86609     6 1s   -0.44088
                                    6 1s    0.87277
   24.1    -0.00000     1.22162     1 1s   -0.35482     1 2pz  -0.64408     1 2pz   1.41921     2 1s    0.35482     2 2pz  -0.64408
                                    2 2pz   1.41921     3 1s    0.48527     3 1s   -0.93155     4 1s    0.48395     4 1s   -0.92752
                                    5 1s   -0.48395     5 1s    0.92752     6 1s   -0.48527     6 1s    0.93155
   25.1    -0.00000     1.31119     1 1s   -1.64149     1 1s    5.33240     1 2pz  -1.72562     2 1s    1.64149     2 1s   -5.33240
                                    2 2pz  -1.72562     3 1s   -0.44751     4 1s   -0.44838     5 1s    0.44838     6 1s    0.44751
   26.1    -0.00000     1.46674     1 2py   2.50794     2 2py  -2.50794     3 1s   -0.69740     3 1s   -0.67019     4 1s    0.69654
                                    4 1s    0.66868     5 1s    0.69654     5 1s    0.66868     6 1s   -0.69740     6 1s   -0.67019
   27.1    -0.00000     1.70922     1 3d1+  0.62091     2 3d1+ -0.62091
   28.1    -0.00000     1.81282     1 3d2-  0.68266     2 3d2-  0.68266
   29.1    -0.00000     2.09778     1 3d2-  0.73438     2 3d2- -0.73438
   30.1    -0.00000     2.20344     1 1s   -0.61035     1 3d2+  0.70640     2 1s   -0.61035     2 3d2+  0.70640     3 1s    0.37037
                                    4 1s    0.37121     5 1s    0.37121     6 1s    0.37037
   31.1    -0.00000     2.32039     1 2py   0.28397     1 3d1-  0.69462     2 2py   0.28397     2 3d1- -0.69462     3 1s   -0.52790
                                    4 1s    0.52713     5 1s   -0.52713     6 1s    0.52790
   32.1    -0.00000     2.37394     1 1s   -0.49103     1 2pz   0.28026     1 2pz  -0.45151     1 3d0   0.67566     2 1s   -0.49103
                                    2 2pz  -0.28026     2 2pz   0.45151     2 3d0   0.67566
   33.1    -0.00000     2.60994     1 1s    0.28573     1 1s   -1.34601     1 2pz   0.27459     1 3d2+  0.79898     2 1s   -0.28573
                                    2 1s    1.34601     2 2pz   0.27459     2 3d2+ -0.79898     3 1s    0.45411     4 1s    0.45452
                                    5 1s   -0.45452     6 1s   -0.45411
   34.1    -0.00000     2.66944     1 2px  -0.26231     1 3d1+  0.89345     2 2px   0.26231     2 3d1+  0.89345
   35.1    -0.00000     3.02713     1 1s    0.26008     1 1s    2.02023     1 2pz  -0.74714     1 2pz  -1.18298     1 3d0   1.10301
                                    2 1s   -0.26008     2 1s   -2.02023     2 2pz  -0.74714     2 2pz  -1.18298     2 3d0  -1.10301
   36.1    -0.00000     3.03879     1 2py   0.58769     1 3d1-  0.96174     2 2py  -0.58769     2 3d1-  0.96174     3 1s   -0.48854
                                    4 1s    0.48727     5 1s    0.48727     6 1s   -0.48854


 Natural orbital dump (state averaged) at molpro section  2140.2    (Orbital set 2)



 **********************************************************************************************************************************
 DATASETS  * FILE   NREC   LENGTH (MB)   RECORD NAMES
              1      20       31.36       500      610      700      900      950      970     1000      129      960     1100   
                                          VAR    BASINP    GEOM    SYMINP    ZMAT    AOBASIS   BASIS     P2S    ABASIS      S 
                                         1400     1410     1200     1210     1080     1600     1650     1300     1700     1380   
                                           T        V       H0       H01     AOSYM     SMH    MOLCAS    ERIS     OPER     JKOP   

              2       5        5.42       700     1000      520     2100     2140   
                                         GEOM     BASIS   MCVARS     RHF     MCSCF   

 PROGRAMS   *        TOTAL     MULTI    HF-SCF       INT
 CPU TIMES  *         0.53      0.15      0.08      0.22
 REAL TIME  *         0.82 SEC
 DISK USED  *        38.55 MB
 **********************************************************************************************************************************
 Molecular orbitals read from record     2140.2  Type=MCSCF/NATURAL (state averaged)
 Occupation numbers read from record     2140.2  Type=MCSCF/NATURAL (state averaged)
 Orbital energies read from record       2140.2  Type=MCSCF/NATURAL (state averaged)
 Redundancy group numbers read from rec  2140.2  Type=MCSCF/NATURAL (state averaged)

 MULTI/6-31G* energy=    -77.496806003028

           MULTI          HF-SCF
    -77.49680600    -78.02963296
 **********************************************************************************************************************************
 Molpro calculation terminated
