
 Primary working directories    : /scratch.local/johan406.molpro_temp/molpro.2raURVSkV6
 Secondary working directories  : /scratch.local/johan406.molpro_temp/molpro.2raURVSkV6
 Wavefunction directory         : /home/goodpast/johan406/wfu/
 Main file repository           : /scratch.local/johan406.molpro_temp/molpro.2raURVSkV6/

 id        : roweumn

 Nodes     nprocs
 cn0416       1

 Using customized tuning parameters: mindgm=1; mindgv=20; mindgc=4; mindgr=1; noblas=0; minvec=7
 default implementation of scratch files=df  


 Variables initialized (934), CPU time= 0.00 sec
                                                                                 !leave this line blank
 
 gprint, orbitals=30
 memory, 125., m
 symmetry, nosym
 nelect=16
 basis=6-31g*
 
 geometry={
 C 0.000 0.000 0.678
 C 0.000 -0.000 -0.678
 H 0.000 0.910 1.239
 H 0.000 -0.911 1.238
 H 0.000 0.911 -1.238
 H 0.000 -0.910 -1.239
 }
 
 hf
 {multi,
 closed 7
 occ 9
 wf,spin=0;STATE,3
 }
 
 Commands  initialized (763), CPU time= 0.01 sec, 617 directives.
 Default parameters read. Elapsed time= 0.05 sec

 Checking input...
 Passed
1


                                         ***  PROGRAM SYSTEM MOLPRO  ***
                                       Copyright, TTI GmbH Stuttgart, 2015
                                    Version 2019.2 linked Oct 25 2019 22:50:27


 **********************************************************************************************************************************
 LABEL *                                                                                 
  64 bit serial version                                                                  DATE: 15-Mar-23          TIME: 16:58:51  
 **********************************************************************************************************************************

 SHA1:             8dbd9ae1082e4ce945b0f27595c9eb2d4aa09004
 **********************************************************************************************************************************


 Variable memory set to  125000000 words,  buffer space 

 SETTING NELECT         =        16.00000000                                  
 SETTING BASIS          =    6-31G*
 ZSYMEL=NOSYM


Geometry recognized as XYZ



 Recomputing integrals since basis changed


 Using spherical harmonics

 Library entry C      S 6-31G                selected for orbital group  1
 Library entry C      P 6-31G                selected for orbital group  1
 Library entry C      D 6-31G*               selected for orbital group  1
 Library entry H      S 6-31G                selected for orbital group  2


 PROGRAM * SEWARD (Integral evaluation for generally contracted gaussian basis sets)     Author: Roland Lindh, 1990

 Geometry written to block  1 of record 700


 Point group  C1  



 ATOMIC COORDINATES

 NR  ATOM    CHARGE       X              Y              Z

   1  C       6.00    0.000000000    0.000000000    1.281234312
   2  C       6.00    0.000000000   -0.000000000   -1.281234312
   3  H       1.00    0.000000000    1.719650773    2.341370668
   4  H       1.00    0.000000000   -1.721540499    2.339480942
   5  H       1.00    0.000000000    1.721540499   -2.339480942
   6  H       1.00    0.000000000   -1.719650773   -2.341370668

 Bond lengths in Bohr (Angstrom)

 1-2  2.562468625  1-3  2.020170259  1-4  2.020788861  2-5  2.020788861  2-6  2.020170259
     ( 1.356000000)     ( 1.069028063)     ( 1.069355413)     ( 1.069355413)     ( 1.069028063)

 Bond angles

  1-2-5  121.57942124   1-2-6  121.65314785   2-1-3  121.65314785   2-1-4  121.57942124

  3-1-4  116.76743091   5-2-6  116.76743091

 NUCLEAR CHARGE:                   16
 NUMBER OF PRIMITIVE AOS:          72
 NUMBER OF SYMMETRY AOS:           70
 NUMBER OF CONTRACTIONS:           36   (   36A   )
 NUMBER OF CORE ORBITALS:           2   (    2A   )
 NUMBER OF VALENCE ORBITALS:       12   (   12A   )


 NUCLEAR REPULSION ENERGY   33.26567976

 EXTRA SYMMETRY OF AOS IN SYMMETRY 1:   1 1 1 2 1 1 2 1 1 1   2 2 1 1 1 1 1 2 1 1   2 1 1 1 2 2 1 1 1 1   1 1 1 1 1 1

 Eigenvalues of metric

         1 0.881E-02 0.173E-01 0.371E-01 0.455E-01 0.698E-01 0.204E+00 0.210E+00 0.228E+00


 Contracted 2-electron integrals neglected if value below      1.0D-11
 AO integral compression algorithm  1   Integral accuracy      1.0D-11

     0.786 MB (compressed) written to integral file ( 37.9%)


 NUMBER OF SORTED TWO-ELECTRON INTEGRALS:     222111.     BUFFER LENGTH:  32768
 NUMBER OF SEGMENTS:   1  SEGMENT LENGTH:     222111      RECORD LENGTH: 524288

 Memory used in sort:       0.78 MW

 SORT1 READ      284735. AND WROTE       98699. INTEGRALS IN      1 RECORDS. CPU TIME:     0.00 SEC, REAL TIME:     0.01 SEC
 SORT2 READ       98699. AND WROTE      222111. INTEGRALS IN      3 RECORDS. CPU TIME:     0.02 SEC, REAL TIME:     0.02 SEC

 FILE SIZES:   FILE 1:    30.9 MBYTE,  FILE 4:     4.2 MBYTE,   TOTAL:     35.1 MBYTE

 OPERATOR DM      FOR CENTER  0  COORDINATES:    0.000000    0.000000    0.000000


 **********************************************************************************************************************************
 DATASETS  * FILE   NREC   LENGTH (MB)   RECORD NAMES
              1      19       30.63       500      610      700      900      950      970     1000      129      960     1100   
                                          VAR    BASINP    GEOM    SYMINP    ZMAT    AOBASIS   BASIS     P2S    ABASIS      S 
                                         1400     1410     1200     1210     1080     1600     1650     1300     1700   
                                           T        V       H0       H01     AOSYM     SMH    MOLCAS    ERIS     OPER   

 PROGRAMS   *        TOTAL       INT
 CPU TIMES  *         0.30      0.21
 REAL TIME  *         0.48 SEC
 DISK USED  *        35.45 MB
 **********************************************************************************************************************************


 PROGRAM * RHF-SCF (CLOSED SHELL)       Authors: W. Meyer, H.-J. Werner


 NUMBER OF ELECTRONS:       8+    8-    SPACE SYMMETRY=1    SPIN SYMMETRY: Singlet 
 CONVERGENCE THRESHOLDS:    1.00E-05 (Density)    1.00E-07 (Energy)
 MAX. NUMBER OF ITERATIONS:       60
 INTERPOLATION TYPE:            DIIS
 INTERPOLATION STEPS:              2 (START)      1 (STEP)
 LEVEL SHIFTS:                  0.00 (CLOSED)  0.00 (OPEN) 



 Orbital guess generated from atomic densities. Full valence occupancy:    8

 Molecular orbital dump at record        2100.2

 Initial occupancy:   8

 ITERATION    DDIFF          GRAD             ENERGY        2-EL.EN.            DIPOLE MOMENTS         DIIS   ORB.
    1      0.000D+00      0.000D+00       -78.00577103    118.363623   -0.00000   -0.00000   -0.00000    0    start
    2      0.000D+00      0.842D-02       -78.02720517    116.625598   -0.00000   -0.00000    0.00000    1    diag
    3      0.809D-02      0.281D-02       -78.02920921    117.225062   -0.00000   -0.00000   -0.00000    2    diag
    4      0.255D-02      0.703D-03       -78.02941168    117.125922    0.00000    0.00000   -0.00000    3    diag
    5      0.104D-02      0.659D-04       -78.02941364    117.128720    0.00000   -0.00000   -0.00000    4    diag
    6      0.140D-03      0.747D-05       -78.02941367    117.128318   -0.00000   -0.00000   -0.00000    5    diag
    7      0.137D-04      0.111D-05       -78.02941367    117.128326   -0.00000   -0.00000   -0.00000    6    diag
    8      0.163D-05      0.126D-06       -78.02941367    117.128320   -0.00000   -0.00000    0.00000    0    orth

 Final occupancy:   8

 !RHF STATE  1.1 Energy               -78.029413668183
 Nuclear energy                        33.26567976
 One-electron energy                 -169.85925362
 Two-electron energy                   58.56416019
 Virial quotient                       -1.00028472
 !RHF STATE  1.1 Dipole moment         -0.00000000    -0.00000000     0.00000000
 Dipole moment /Debye                  -0.00000000    -0.00000000     0.00000000

 ELECTRON ORBITALS
 =================

  Orbital  Occupation    Energy     Coefficients
    1.1     2.00000   -11.22628     1 1s    0.70421     2 1s    0.70421
    2.1     2.00000   -11.22482     1 1s    0.70453     2 1s   -0.70453
    3.1     2.00000    -1.02266     1 1s    0.30145     2 1s    0.30145
    4.1     2.00000    -0.79662     2 1s   -0.24065
    5.1     2.00000    -0.63915     1 2py   0.32211     2 2py   0.32211
    6.1     2.00000    -0.58026     1 2pz   0.40750     2 2pz  -0.40750
    7.1     2.00000    -0.51087     1 2py   0.30783     2 2py  -0.30783
    8.1     2.00000    -0.36480     1 2px   0.37151     1 2px   0.31148     2 2px   0.37151     2 2px   0.31148
    9.1     0.00000     0.17439     1 2px   0.34366     1 2px   0.72278     2 2px  -0.34366     2 2px  -0.72278
   10.1     0.00000     0.26757     1 1s   -1.51306     1 2pz  -0.64598     2 1s   -1.51306     2 2pz   0.64598     3 1s    1.05096
                                    4 1s    1.05128     5 1s    1.05128     6 1s    1.05096
   11.1     0.00000     0.29796     1 2py   0.25044     1 2py   0.82339     2 2py   0.25044     2 2py   0.82339     3 1s   -1.11838
                                    4 1s    1.11745     5 1s   -1.11745     6 1s    1.11838
   12.1     0.00000     0.31040     1 1s    1.95826     2 1s   -1.95826     3 1s   -1.08104     4 1s   -1.08158     5 1s    1.08158
                                    6 1s    1.08104
   13.1     0.00000     0.39045     1 2py  -1.86672     2 2py   1.86672     3 1s    1.64323     4 1s   -1.64092     5 1s   -1.64092
                                    6 1s    1.64323
   14.1     0.00000     0.48657     1 1s   -2.78198     1 2pz   2.87544     2 1s    2.78198     2 2pz   2.87544     3 1s   -0.60366
                                    4 1s   -0.60129     5 1s    0.60129     6 1s    0.60366
   15.1     0.00000     0.67480     1 1s    0.27952     1 2pz  -0.56077     1 2pz   1.03698     2 1s    0.27952     2 2pz   0.56077
                                    2 2pz  -1.03698
   16.1     0.00000     0.75633     1 2py  -0.39802     1 2py   0.77877     2 2py  -0.39802     2 2py   0.77877     3 1s   -0.38315
                                    4 1s    0.38213     5 1s   -0.38213     6 1s    0.38315
   17.1     0.00000     0.78118     1 2px  -0.74465     1 2px   0.63962     2 2px  -0.74465     2 2px   0.63962
   18.1     0.00000     0.86231     1 1s   -0.89521     1 1s    1.48255     1 2pz   0.32390     2 1s   -0.89521     2 1s    1.48255
                                    2 2pz  -0.32390     3 1s   -0.39125     4 1s   -0.39121     5 1s   -0.39121     6 1s   -0.39125
   19.1     0.00000     0.88827     1 2px  -0.81675     1 2px   1.06737     2 2px   0.81675     2 2px  -1.06737
   20.1     0.00000     0.94118     1 1s   -0.74542     1 2pz   0.61568     1 2pz  -0.57044     2 1s    0.74542     2 2pz   0.61568
                                    2 2pz  -0.57044     3 1s    0.37273     4 1s    0.37357     5 1s   -0.37357     6 1s   -0.37273
   21.1     0.00000     1.12713     1 2py  -0.69397     1 2py   1.10199     2 2py  -0.69397     2 2py   1.10199     3 1s    0.38356
                                    3 1s   -1.06467     4 1s   -0.38572     4 1s    1.06802     5 1s    0.38572     5 1s   -1.06802
                                    6 1s   -0.38356     6 1s    1.06467
   22.1     0.00000     1.16197     1 2py   0.92491     1 2py  -2.97038     2 2py  -0.92491     2 2py   2.97038     3 1s    1.53436
                                    4 1s   -1.53538     5 1s   -1.53538     6 1s    1.53436
   23.1     0.00000     1.22203     1 1s    1.03700     1 1s   -1.73509     1 2pz   0.36551     1 2pz  -0.49643     2 1s    1.03700
                                    2 1s   -1.73509     2 2pz  -0.36551     2 2pz   0.49643     3 1s   -0.44185     3 1s    0.87425
                                    4 1s   -0.44207     4 1s    0.86746     5 1s   -0.44207     5 1s    0.86746     6 1s   -0.44185
                                    6 1s    0.87425
   24.1     0.00000     1.22630     1 1s   -0.44243     1 2pz  -0.63002     1 2pz   1.31968     2 1s    0.44243     2 2pz  -0.63002
                                    2 2pz   1.31968     3 1s    0.48375     3 1s   -0.95314     4 1s    0.48232     4 1s   -0.94888
                                    5 1s   -0.48232     5 1s    0.94888     6 1s   -0.48375     6 1s    0.95314
   25.1     0.00000     1.32846     1 1s   -1.61759     1 1s    5.29413     1 2pz  -1.78724     2 1s    1.61759     2 1s   -5.29413
                                    2 2pz  -1.78724     3 1s   -0.39585     4 1s   -0.39690     5 1s    0.39690     6 1s    0.39585
   26.1     0.00000     1.46865     1 2py   2.47502     2 2py  -2.47502     3 1s   -0.69649     3 1s   -0.65654     4 1s    0.69563
                                    4 1s    0.65507     5 1s    0.69563     5 1s    0.65507     6 1s   -0.69649     6 1s   -0.65654
   27.1     0.00000     1.73295     1 3d1+  0.62142     2 3d1+ -0.62142
   28.1     0.00000     1.82669     1 3d2-  0.68284     2 3d2-  0.68284
   29.1     0.00000     2.11939     1 3d2-  0.73416     2 3d2- -0.73416
   30.1     0.00000     2.21882     1 1s   -0.61817     1 3d2+  0.70747     2 1s   -0.61817     2 3d2+  0.70747     3 1s    0.37004
                                    4 1s    0.37088     5 1s    0.37088     6 1s    0.37004
   31.1     0.00000     2.33828     1 2py   0.27854     1 3d1-  0.69736     2 2py   0.27854     2 3d1- -0.69736     3 1s   -0.52578
                                    4 1s    0.52500     5 1s   -0.52500     6 1s    0.52578
   32.1     0.00000     2.38959     1 1s   -0.49165     1 2pz   0.27549     1 2pz  -0.44978     1 3d0   0.67551     2 1s   -0.49165
                                    2 2pz  -0.27549     2 2pz   0.44978     2 3d0   0.67551
   33.1     0.00000     2.62542     1 1s    0.28306     1 1s   -1.31233     1 2pz   0.25585     1 3d2+  0.79907     2 1s   -0.28306
                                    2 1s    1.31233     2 2pz   0.25585     2 3d2+ -0.79907     3 1s    0.45033     4 1s    0.45077
                                    5 1s   -0.45077     6 1s   -0.45033
   34.1     0.00000     2.68895     1 2px  -0.26137     1 3d1+  0.89189     2 2px   0.26137     2 3d1+  0.89189
   35.1     0.00000     3.04192     1 1s    0.26008     1 1s    1.99985     1 2pz  -0.74826     1 2pz  -1.17474     1 3d0   1.10026
                                    2 1s   -0.26008     2 1s   -1.99985     2 2pz  -0.74826     2 2pz  -1.17474     2 3d0  -1.10026
   36.1     0.00000     3.05677     1 2py   0.58654     1 3d1-  0.96270     2 2py  -0.58654     2 3d1-  0.96270     3 1s   -0.48893
                                    4 1s    0.48768     5 1s    0.48768     6 1s   -0.48893


 HOMO      8.1    -0.364796 =      -9.9266eV
 LUMO      9.1     0.174390 =       4.7454eV
 LUMO-HOMO         0.539186 =      14.6720eV


 **********************************************************************************************************************************
 DATASETS  * FILE   NREC   LENGTH (MB)   RECORD NAMES
              1      19       30.63       500      610      700      900      950      970     1000      129      960     1100   
                                          VAR    BASINP    GEOM    SYMINP    ZMAT    AOBASIS   BASIS     P2S    ABASIS      S 
                                         1400     1410     1200     1210     1080     1600     1650     1300     1700   
                                           T        V       H0       H01     AOSYM     SMH    MOLCAS    ERIS     OPER   

              2       4        2.86       700     1000      520     2100   
                                         GEOM     BASIS   MCVARS     RHF  

 PROGRAMS   *        TOTAL    HF-SCF       INT
 CPU TIMES  *         0.40      0.09      0.21
 REAL TIME  *         0.65 SEC
 DISK USED  *        35.45 MB
 **********************************************************************************************************************************


 PROGRAM * MULTI (Direct Multiconfiguration SCF)       Authors: P.J. Knowles, H.-J. Werner (1984)


 Number of closed-shell orbitals:   7 (   7 )
 Number of active  orbitals:        2 (   2 )
 Number of external orbitals:      27 (  27 )

 State symmetry 1

 Number of electrons:     2    Spin symmetry=Singlet   Space symmetry=1
 Number of states:        3
 Number of CSFs:          3   (4 determinants, 4 intermediate states)

 Molecular orbitals read from record     2100.2  Type=RHF/CANONICAL (state 1.1)

 EXTRA SYMMETRY OF MOS IN SYMMETRY 1:   1 1 1 1 1 1 1 2 2 1   1 1 1 1 1 1 2 1 2 1   1 1 1 1 1 1 2 2 2 1   1 1 1 2 1 1

 Wavefunction dump at record             2140.2

 Convergence thresholds  0.10E-01 (gradient)  0.10E-05 (energy)  0.10E-02 (step length)

 Weight factors for state symmetry  1:    0.33333   0.33333   0.33333

 Number of orbital rotations:      257   (    14 Core/Active    189 Core/Virtual   0 Active/Active     54 Active/Virtual)
 Total number of variables:        269

 Micro-Iterations solved by the two-step solver

 ITER. MIC  NCI  NEG     ENERGY(VAR)     ENERGY(PROJ)   ENERGY CHANGE     GRAD(0)  GRAD(ORB)   GRAD(CI)     STEP       TIME

   1    3    3    0     -77.73520521     -77.74113106   -0.00592584    0.12893565 0.00000134 0.00000000  0.61D-01      0.05
   2    2    3    0     -77.74104197     -77.74104526   -0.00000328    0.00284589 0.00000162 0.00000000  0.15D-02      0.09
   3    2    3    0     -77.74104526     -77.74104526   -0.00000000    0.00000187 0.00000000 0.00000000  0.11D-05      0.12

 ** WVFN ****  CONVERGENCE REACHED, FINAL GRADIENT:  0.94D-12



 Results for state 1.1
 =====================

 !MCSCF STATE  1.1 Energy             -78.048153210538
 Nuclear energy                        33.26567976
 Kinetic energy                        78.06802471
 One electron energy                 -169.97329386
 Two electron energy                   58.65946089
 Virial ratio                           1.99974546

 !MCSCF STATE  1.1 Dipole moment        0.00000000    -0.00000000     0.00000000
 Dipole moment /Debye                   0.00000000    -0.00000000     0.00000000

 Results for state 2.1
 =====================

 !MCSCF STATE  2.1 Energy             -77.676817571886
 Nuclear energy                        33.26567976
 Kinetic energy                        78.25426367
 One electron energy                 -169.43611959
 Two electron energy                   58.49362226
 Virial ratio                           1.99262090

 !MCSCF STATE  2.1 Dipole moment        0.00000000    -0.00000000     0.00000000
 Dipole moment /Debye                   0.00000000    -0.00000000     0.00000000

 Results for state 3.1
 =====================

 !MCSCF STATE  3.1 Energy             -77.498164995837
 Nuclear energy                        33.26567976
 Kinetic energy                        78.44050262
 One electron energy                 -168.89894532
 Two electron energy                   58.13510056
 Virial ratio                           1.98798659

 !MCSCF STATE  3.1 Dipole moment        0.00000000    -0.00000000    -0.00000000
 Dipole moment /Debye                   0.00000000    -0.00000000    -0.00000000

 State-averaged charge density matrix saved on record  2140.2 (density set 1)

 !MCSCF trans         <2.1|DMY|1.1>    -0.000007160638 au =    -0.000018199335 Debye
 !MCSCF trans         <3.1|DMY|2.1>    -0.000010930551 au =    -0.000027780870 Debye

 !MCSCF trans         <2.1|DMZ|1.1>    -1.511812108504 au =    -3.842391418731 Debye
 !MCSCF trans         <3.1|DMZ|2.1>    -2.307746694019 au =    -5.865322842584 Debye


 NATURAL ORBITALS (state averaged)
 =================================

  Orbital  Occupation    Energy     Coefficients
    1.1     2.00000   -11.24076     1 1s    0.70422     2 1s    0.70422
    2.1     2.00000   -11.23957     1 1s    0.70449     2 1s   -0.70449
    3.1     2.00000    -1.03621     1 1s    0.30934     2 1s    0.30934
    4.1     2.00000    -0.80403     1 1s    0.28352     2 1s   -0.28352
    5.1     2.00000    -0.65127     1 2py   0.32743     2 2py   0.32743
    6.1     2.00000    -0.59503     1 2pz   0.40937     2 2pz  -0.40937
    7.1     2.00000    -0.51717     1 2py   0.31394     2 2py  -0.31394
    8.1     1.00000     0.03032     1 2px   0.38031     1 2px   0.67760     2 2px  -0.38031     2 2px  -0.67760
    9.1     1.00000    -0.22178     1 2px   0.35578     1 2px   0.32318     2 2px   0.35578     2 2px   0.32318
   10.1    -0.00000     0.26496     1 1s   -1.50934     1 2pz  -0.65202     2 1s   -1.50934     2 2pz   0.65202     3 1s    1.05045
                                    4 1s    1.05101     5 1s    1.05101     6 1s    1.05045
   11.1    -0.00000     0.28993     1 2py   0.81471     2 2py   0.81471     3 1s   -1.11004     4 1s    1.10977     5 1s   -1.10977
                                    6 1s    1.11004
   12.1    -0.00000     0.30742     1 1s    1.98314     2 1s   -1.98314     3 1s   -1.07542     4 1s   -1.07529     5 1s    1.07529
                                    6 1s    1.07542
   13.1    -0.00000     0.38660     1 2py  -0.25024     1 2py  -1.85338     2 2py   0.25024     2 2py   1.85338     3 1s    1.63687
                                    4 1s   -1.63440     5 1s   -1.63440     6 1s    1.63687
   14.1    -0.00000     0.48357     1 1s   -2.75643     1 2pz   2.85559     2 1s    2.75643     2 2pz   2.85559     3 1s   -0.61387
                                    4 1s   -0.61146     5 1s    0.61146     6 1s    0.61387
   15.1    -0.00000     0.66397     1 2pz  -0.55388     1 2pz   1.01341     2 2pz   0.55388     2 2pz  -1.01341
   16.1    -0.00000     0.74605     1 2py  -0.40889     1 2py   0.78473     2 2py  -0.40889     2 2py   0.78473     3 1s   -0.37884
                                    4 1s    0.37782     5 1s   -0.37782     6 1s    0.37884
   17.1    -0.00000     0.77537     1 2px  -0.75149     1 2px   0.63411     2 2px  -0.75149     2 2px   0.63411
   18.1    -0.00000     0.85948     1 1s   -0.88902     1 1s    1.50910     1 2pz   0.37274     2 1s   -0.88902     2 1s    1.50910
                                    2 2pz  -0.37274     3 1s   -0.39352     3 1s   -0.25417     4 1s   -0.39350     4 1s   -0.25388
                                    5 1s   -0.39350     5 1s   -0.25388     6 1s   -0.39352     6 1s   -0.25417
   19.1    -0.00000     0.87129     1 2px  -0.80154     1 2px   1.09645     2 2px   0.80154     2 2px  -1.09645
   20.1    -0.00000     0.92306     1 1s   -0.59444     1 2pz   0.61882     1 2pz  -0.65158     2 1s    0.59444     2 2pz   0.61882
                                    2 2pz  -0.65158     3 1s    0.37342     4 1s    0.37427     5 1s   -0.37427     6 1s   -0.37342
   21.1    -0.00000     1.11220     1 2py  -0.68297     1 2py   1.10396     2 2py  -0.68297     2 2py   1.10396     3 1s    0.38402
                                    3 1s   -1.07349     4 1s   -0.38601     4 1s    1.07652     5 1s    0.38601     5 1s   -1.07652
                                    6 1s   -0.38402     6 1s    1.07349
   22.1    -0.00000     1.15003     1 2py   0.92212     1 2py  -2.97486     2 2py  -0.92212     2 2py   2.97486     3 1s    1.54203
                                    4 1s   -1.54278     5 1s   -1.54278     6 1s    1.54203
   23.1    -0.00000     1.21913     1 1s    1.03215     1 1s   -1.73104     1 2pz   0.36928     1 2pz  -0.50202     2 1s    1.03215
                                    2 1s   -1.73104     2 2pz  -0.36928     2 2pz   0.50202     3 1s   -0.44231     3 1s    0.87351
                                    4 1s   -0.44256     4 1s    0.86714     5 1s   -0.44256     5 1s    0.86714     6 1s   -0.44231
                                    6 1s    0.87351
   24.1    -0.00000     1.22360     1 1s   -0.35090     1 2pz  -0.64529     1 2pz   1.41938     2 1s    0.35090     2 2pz  -0.64529
                                    2 2pz   1.41938     3 1s    0.48651     3 1s   -0.92905     4 1s    0.48521     4 1s   -0.92507
                                    5 1s   -0.48521     5 1s    0.92507     6 1s   -0.48651     6 1s    0.92905
   25.1    -0.00000     1.30989     1 1s   -1.64152     1 1s    5.30917     1 2pz  -1.70711     2 1s    1.64152     2 1s   -5.30917
                                    2 2pz  -1.70711     3 1s   -0.45116     4 1s   -0.45204     5 1s    0.45204     6 1s    0.45116
   26.1    -0.00000     1.46018     1 2py   2.47841     2 2py  -2.47841     3 1s   -0.69534     3 1s   -0.65770     4 1s    0.69447
                                    4 1s    0.65624     5 1s    0.69447     5 1s    0.65624     6 1s   -0.69534     6 1s   -0.65770
   27.1    -0.00000     1.70835     1 3d1+  0.62119     2 3d1+ -0.62119
   28.1    -0.00000     1.81361     1 3d2-  0.68284     2 3d2-  0.68284
   29.1    -0.00000     2.09712     1 3d2-  0.73416     2 3d2- -0.73416
   30.1    -0.00000     2.20412     1 1s   -0.61400     1 3d2+  0.70658     2 1s   -0.61400     2 3d2+  0.70658     3 1s    0.37150
                                    4 1s    0.37233     5 1s    0.37233     6 1s    0.37150
   31.1    -0.00000     2.32275     1 2py   0.28537     1 3d1-  0.69561     2 2py   0.28537     2 3d1- -0.69561     3 1s   -0.52913
                                    4 1s    0.52833     5 1s   -0.52833     6 1s    0.52913
   32.1    -0.00000     2.37009     1 1s   -0.48938     1 2pz   0.28097     1 2pz  -0.45296     1 3d0   0.67492     2 1s   -0.48938
                                    2 2pz  -0.28097     2 2pz   0.45296     2 3d0   0.67492
   33.1    -0.00000     2.60647     1 1s    0.28377     1 1s   -1.31769     1 2pz   0.25449     1 3d2+  0.79833     2 1s   -0.28377
                                    2 1s    1.31769     2 2pz   0.25449     2 3d2+ -0.79833     3 1s    0.45334     4 1s    0.45379
                                    5 1s   -0.45379     6 1s   -0.45334
   34.1    -0.00000     2.66699     1 2px  -0.26200     1 3d1+  0.89226     2 2px   0.26200     2 3d1+  0.89226
   35.1    -0.00000     3.02478     1 1s    0.25321     1 1s    2.02410     1 2pz  -0.74091     1 2pz  -1.18740     1 3d0   1.10177
                                    2 1s   -0.25321     2 1s   -2.02410     2 2pz  -0.74091     2 2pz  -1.18740     2 3d0  -1.10177
   36.1    -0.00000     3.04445     1 2py   0.58664     1 3d1-  0.96230     2 2py  -0.58664     2 3d1-  0.96230     3 1s   -0.49120
                                    4 1s    0.48995     5 1s    0.48995     6 1s   -0.49120


 Natural orbital dump (state averaged) at molpro section  2140.2    (Orbital set 2)



 **********************************************************************************************************************************
 DATASETS  * FILE   NREC   LENGTH (MB)   RECORD NAMES
              1      20       31.36       500      610      700      900      950      970     1000      129      960     1100   
                                          VAR    BASINP    GEOM    SYMINP    ZMAT    AOBASIS   BASIS     P2S    ABASIS      S 
                                         1400     1410     1200     1210     1080     1600     1650     1300     1700     1380   
                                           T        V       H0       H01     AOSYM     SMH    MOLCAS    ERIS     OPER     JKOP   

              2       5        5.42       700     1000      520     2100     2140   
                                         GEOM     BASIS   MCVARS     RHF     MCSCF   

 PROGRAMS   *        TOTAL     MULTI    HF-SCF       INT
 CPU TIMES  *         0.55      0.15      0.09      0.21
 REAL TIME  *         0.87 SEC
 DISK USED  *        38.55 MB
 **********************************************************************************************************************************
 Molecular orbitals read from record     2140.2  Type=MCSCF/NATURAL (state averaged)
 Occupation numbers read from record     2140.2  Type=MCSCF/NATURAL (state averaged)
 Orbital energies read from record       2140.2  Type=MCSCF/NATURAL (state averaged)
 Redundancy group numbers read from rec  2140.2  Type=MCSCF/NATURAL (state averaged)

 MULTI/6-31G* energy=    -77.498164995837

           MULTI          HF-SCF
    -77.49816500    -78.02941367
 **********************************************************************************************************************************
 Molpro calculation terminated
