
 Primary working directories    : /scratch.local/johan406.molpro_temp/molpro.TbyHeTaF4O
 Secondary working directories  : /scratch.local/johan406.molpro_temp/molpro.TbyHeTaF4O
 Wavefunction directory         : /home/goodpast/johan406/wfu/
 Main file repository           : /scratch.local/johan406.molpro_temp/molpro.TbyHeTaF4O/

 id        : roweumn

 Nodes     nprocs
 cn0416       1

 Using customized tuning parameters: mindgm=1; mindgv=20; mindgc=4; mindgr=1; noblas=0; minvec=7
 default implementation of scratch files=df  


 Variables initialized (934), CPU time= 0.00 sec
                                                                                 !leave this line blank
 
 gprint, orbitals=30
 memory, 125., m
 symmetry, nosym
 nelect=16
 basis=6-31g*
 
 geometry={
 C 0.000 0.000 0.683
 C 0.000 -0.000 -0.683
 H 0.000 0.915 1.231
 H 0.000 -0.915 1.231
 H 0.000 0.915 -1.231
 H 0.000 -0.915 -1.231
 }
 
 hf
 {multi,
 closed 7
 occ 9
 wf,spin=0;STATE,3
 }
 
 Commands  initialized (763), CPU time= 0.00 sec, 617 directives.
 Default parameters read. Elapsed time= 0.05 sec

 Checking input...
 Passed
1


                                         ***  PROGRAM SYSTEM MOLPRO  ***
                                       Copyright, TTI GmbH Stuttgart, 2015
                                    Version 2019.2 linked Oct 25 2019 22:50:27


 **********************************************************************************************************************************
 LABEL *                                                                                 
  64 bit serial version                                                                  DATE: 15-Mar-23          TIME: 16:18:14  
 **********************************************************************************************************************************

 SHA1:             8dbd9ae1082e4ce945b0f27595c9eb2d4aa09004
 **********************************************************************************************************************************


 Variable memory set to  125000000 words,  buffer space 

 SETTING NELECT         =        16.00000000                                  
 SETTING BASIS          =    6-31G*
 ZSYMEL=NOSYM


Geometry recognized as XYZ



 Recomputing integrals since basis changed


 Using spherical harmonics

 Library entry C      S 6-31G                selected for orbital group  1
 Library entry C      P 6-31G                selected for orbital group  1
 Library entry C      D 6-31G*               selected for orbital group  1
 Library entry H      S 6-31G                selected for orbital group  2


 PROGRAM * SEWARD (Integral evaluation for generally contracted gaussian basis sets)     Author: Roland Lindh, 1990

 Geometry written to block  1 of record 700


 Point group  C1  



 ATOMIC COORDINATES

 NR  ATOM    CHARGE       X              Y              Z

   1  C       6.00    0.000000000    0.000000000    1.290682943
   2  C       6.00    0.000000000   -0.000000000   -1.290682943
   3  H       1.00    0.000000000    1.729099404    2.326252859
   4  H       1.00    0.000000000   -1.729099404    2.326252859
   5  H       1.00    0.000000000    1.729099404   -2.326252859
   6  H       1.00    0.000000000   -1.729099404   -2.326252859

 Bond lengths in Bohr (Angstrom)

 1-2  2.581365886  1-3  2.015487485  1-4  2.015487485  2-5  2.015487485  2-6  2.015487485
     ( 1.366000000)     ( 1.066550046)     ( 1.066550046)     ( 1.066550046)     ( 1.066550046)

 Bond angles

  1-2-5  120.91769144   1-2-6  120.91769144   2-1-3  120.91769144   2-1-4  120.91769144

  3-1-4  118.16461713   5-2-6  118.16461713

 NUCLEAR CHARGE:                   16
 NUMBER OF PRIMITIVE AOS:          72
 NUMBER OF SYMMETRY AOS:           70
 NUMBER OF CONTRACTIONS:           36   (   36A   )
 NUMBER OF CORE ORBITALS:           2   (    2A   )
 NUMBER OF VALENCE ORBITALS:       12   (   12A   )


 NUCLEAR REPULSION ENERGY   33.19365693

 EXTRA SYMMETRY OF AOS IN SYMMETRY 1:   1 1 1 2 1 1 2 1 1 1   3 2 1 1 1 1 1 2 1 1   2 1 1 1 3 2 1 1 1 1   1 1 1 1 1 1

 Eigenvalues of metric

         1 0.902E-02 0.169E-01 0.376E-01 0.463E-01 0.684E-01 0.211E+00 0.211E+00 0.231E+00


 Contracted 2-electron integrals neglected if value below      1.0D-11
 AO integral compression algorithm  1   Integral accuracy      1.0D-11

     0.786 MB (compressed) written to integral file ( 37.7%)


 NUMBER OF SORTED TWO-ELECTRON INTEGRALS:     222111.     BUFFER LENGTH:  32768
 NUMBER OF SEGMENTS:   1  SEGMENT LENGTH:     222111      RECORD LENGTH: 524288

 Memory used in sort:       0.78 MW

 SORT1 READ      284735. AND WROTE       98267. INTEGRALS IN      1 RECORDS. CPU TIME:     0.01 SEC, REAL TIME:     0.01 SEC
 SORT2 READ       98267. AND WROTE      222111. INTEGRALS IN      3 RECORDS. CPU TIME:     0.01 SEC, REAL TIME:     0.02 SEC

 FILE SIZES:   FILE 1:    30.9 MBYTE,  FILE 4:     4.2 MBYTE,   TOTAL:     35.1 MBYTE

 OPERATOR DM      FOR CENTER  0  COORDINATES:    0.000000    0.000000    0.000000


 **********************************************************************************************************************************
 DATASETS  * FILE   NREC   LENGTH (MB)   RECORD NAMES
              1      19       30.63       500      610      700      900      950      970     1000      129      960     1100   
                                          VAR    BASINP    GEOM    SYMINP    ZMAT    AOBASIS   BASIS     P2S    ABASIS      S 
                                         1400     1410     1200     1210     1080     1600     1650     1300     1700   
                                           T        V       H0       H01     AOSYM     SMH    MOLCAS    ERIS     OPER   

 PROGRAMS   *        TOTAL       INT
 CPU TIMES  *         0.30      0.22
 REAL TIME  *         0.49 SEC
 DISK USED  *        35.45 MB
 **********************************************************************************************************************************


 PROGRAM * RHF-SCF (CLOSED SHELL)       Authors: W. Meyer, H.-J. Werner


 NUMBER OF ELECTRONS:       8+    8-    SPACE SYMMETRY=1    SPIN SYMMETRY: Singlet 
 CONVERGENCE THRESHOLDS:    1.00E-05 (Density)    1.00E-07 (Energy)
 MAX. NUMBER OF ITERATIONS:       60
 INTERPOLATION TYPE:            DIIS
 INTERPOLATION STEPS:              2 (START)      1 (STEP)
 LEVEL SHIFTS:                  0.00 (CLOSED)  0.00 (OPEN) 



 Orbital guess generated from atomic densities. Full valence occupancy:    8

 Molecular orbital dump at record        2100.2

 Initial occupancy:   8

 ITERATION    DDIFF          GRAD             ENERGY        2-EL.EN.            DIPOLE MOMENTS         DIIS   ORB.
    1      0.000D+00      0.000D+00       -78.00500625    118.188449   -0.00000   -0.00000   -0.00000    0    start
    2      0.000D+00      0.833D-02       -78.02612786    116.502330   -0.00000    0.00000   -0.00000    1    diag
    3      0.802D-02      0.275D-02       -78.02806382    117.085471    0.00000    0.00000    0.00000    2    diag
    4      0.250D-02      0.696D-03       -78.02826111    116.986306   -0.00000   -0.00000    0.00000    3    diag
    5      0.103D-02      0.646D-04       -78.02826300    116.989014    0.00000   -0.00000    0.00000    4    diag
    6      0.138D-03      0.695D-05       -78.02826302    116.988632    0.00000   -0.00000    0.00000    5    diag
    7      0.125D-04      0.104D-05       -78.02826302    116.988640   -0.00000   -0.00000   -0.00000    6    diag
    8      0.143D-05      0.112D-06       -78.02826302    116.988635    0.00000   -0.00000    0.00000    0    orth

 Final occupancy:   8

 !RHF STATE  1.1 Energy               -78.028263020019
 Nuclear energy                        33.19365693
 One-electron energy                 -169.71623744
 Two-electron energy                   58.49431749
 Virial quotient                       -1.00041028
 !RHF STATE  1.1 Dipole moment          0.00000000    -0.00000000     0.00000000
 Dipole moment /Debye                   0.00000000    -0.00000000     0.00000000

 ELECTRON ORBITALS
 =================

  Orbital  Occupation    Energy     Coefficients
    1.1     2.00000   -11.22672     1 1s    0.70422     2 1s    0.70422
    2.1     2.00000   -11.22533     1 1s    0.70452     2 1s   -0.70452
    3.1     2.00000    -1.02068     1 1s    0.30076     2 1s    0.30076
    4.1     2.00000    -0.79691     1 1s    0.24204
    5.1     2.00000    -0.64157     1 2py   0.32190     2 2py   0.32190
    6.1     2.00000    -0.57542     1 2pz   0.40782     2 2pz  -0.40782
    7.1     2.00000    -0.51495     1 2py   0.30921     2 2py  -0.30921
    8.1     2.00000    -0.36223     1 2px   0.37037     1 2px   0.31358     2 2px   0.37037     2 2px   0.31358
    9.1     0.00000     0.17234     1 2px   0.34454     1 2px   0.71677     2 2px  -0.34454     2 2px  -0.71677
   10.1     0.00000     0.26651     1 1s   -1.50745     1 2pz  -0.63288     2 1s   -1.50745     2 2pz   0.63288     3 1s    1.04547
                                    4 1s    1.04547     5 1s    1.04547     6 1s    1.04547
   11.1     0.00000     0.29984     1 2py  -0.83891     2 2py  -0.83891     3 1s    1.13161     4 1s   -1.13161     5 1s    1.13161
                                    6 1s   -1.13161
   12.1     0.00000     0.31174     1 1s    1.97554     2 1s   -1.97554     3 1s   -1.08296     4 1s   -1.08296     5 1s    1.08296
                                    6 1s    1.08296
   13.1     0.00000     0.38943     1 2py  -1.87391     2 2py   1.87391     3 1s    1.65351     4 1s   -1.65351     5 1s   -1.65351
                                    6 1s    1.65351
   14.1     0.00000     0.48183     1 1s   -2.65868     1 2pz   2.79480     2 1s    2.65868     2 2pz   2.79480     3 1s   -0.58592
                                    4 1s   -0.58592     5 1s    0.58592     6 1s    0.58592
   15.1     0.00000     0.67629     1 1s    0.30035     1 2pz  -0.56130     1 2pz   1.02827     2 1s    0.30035     2 2pz   0.56130
                                    2 2pz  -1.02827
   16.1     0.00000     0.75851     1 2py  -0.39723     1 2py   0.79850     2 2py  -0.39723     2 2py   0.79850     3 1s   -0.38175
                                    4 1s    0.38175     5 1s   -0.38175     6 1s    0.38175
   17.1     0.00000     0.78338     1 2px  -0.74692     1 2px   0.63960     2 2px  -0.74692     2 2px   0.63960
   18.1     0.00000     0.86053     1 1s   -0.89723     1 1s    1.45405     1 2pz   0.27263     2 1s   -0.89723     2 1s    1.45405
                                    2 2pz  -0.27263     3 1s   -0.38778     4 1s   -0.38778     5 1s   -0.38778     6 1s   -0.38778
   19.1     0.00000     0.88732     1 2px  -0.81578     1 2px   1.06377     2 2px   0.81578     2 2px  -1.06377
   20.1     0.00000     0.93603     1 1s   -0.72416     1 2pz   0.62578     1 2pz  -0.57260     2 1s    0.72416     2 2pz   0.62578
                                    2 2pz  -0.57260     3 1s    0.36595     4 1s    0.36595     5 1s   -0.36595     6 1s   -0.36595
   21.1     0.00000     1.13342     1 2py   0.69903     1 2py  -1.10999     2 2py   0.69903     2 2py  -1.10999     3 1s   -0.38610
                                    3 1s    1.06854     4 1s    0.38610     4 1s   -1.06854     5 1s   -0.38610     5 1s    1.06854
                                    6 1s    0.38610     6 1s   -1.06854
   22.1     0.00000     1.16300     1 2py   0.92578     1 2py  -2.99196     2 2py  -0.92578     2 2py   2.99196     3 1s    1.55278
                                    4 1s   -1.55278     5 1s   -1.55278     6 1s    1.55278
   23.1     0.00000     1.22068     1 1s    1.04083     1 1s   -1.74273     1 2pz   0.36310     1 2pz  -0.49175     2 1s    1.04083
                                    2 1s   -1.74273     2 2pz  -0.36310     2 2pz   0.49175     3 1s   -0.43932     3 1s    0.87152
                                    4 1s   -0.43932     4 1s    0.87152     5 1s   -0.43932     5 1s    0.87152     6 1s   -0.43932
                                    6 1s    0.87152
   24.1     0.00000     1.22333     1 1s   -0.36631     1 2pz  -0.62902     1 2pz   1.39743     2 1s    0.36631     2 2pz  -0.62902
                                    2 2pz   1.39743     3 1s    0.49043     3 1s   -0.93392     4 1s    0.49043     4 1s   -0.93392
                                    5 1s   -0.49043     5 1s    0.93392     6 1s   -0.49043     6 1s    0.93392
   25.1     0.00000     1.32438     1 1s   -1.63819     1 1s    5.26724     1 2pz  -1.71389     2 1s    1.63819     2 1s   -5.26724
                                    2 2pz  -1.71389     3 1s   -0.44735     4 1s   -0.44735     5 1s    0.44735     6 1s    0.44735
   26.1     0.00000     1.48154     1 2py   2.49839     2 2py  -2.49839     3 1s   -0.70038     3 1s   -0.67645     4 1s    0.70038
                                    4 1s    0.67645     5 1s    0.70038     5 1s    0.67645     6 1s   -0.70038     6 1s   -0.67645
   27.1     0.00000     1.73073     1 3d1+  0.62280     2 3d1+ -0.62280
   28.1     0.00000     1.82905     1 3d2-  0.68372     2 3d2-  0.68372
   29.1     0.00000     2.11434     1 3d2-  0.73307     2 3d2- -0.73307
   30.1     0.00000     2.22501     1 1s    0.25928     1 1s   -0.61644     1 3d2+  0.69683     2 1s    0.25928     2 1s   -0.61644
                                    2 3d2+  0.69683     3 1s    0.35932     4 1s    0.35932     5 1s    0.35932     6 1s    0.35932
   31.1     0.00000     2.33591     1 2py   0.27482     1 3d1-  0.69901     2 2py   0.27482     2 3d1- -0.69901     3 1s   -0.52689
                                    4 1s    0.52689     5 1s   -0.52689     6 1s    0.52689
   32.1     0.00000     2.38542     1 1s   -0.47772     1 2pz   0.26506     1 2pz  -0.44829     1 3d0   0.66163     2 1s   -0.47772
                                    2 2pz  -0.26506     2 2pz   0.44829     2 3d0   0.66163
   33.1     0.00000     2.63336     1 1s    0.28175     1 1s   -1.35783     1 2pz   0.29574     1 3d2+  0.80057     2 1s   -0.28175
                                    2 1s    1.35783     2 2pz   0.29574     2 3d2+ -0.80057     3 1s    0.45679     4 1s    0.45679
                                    5 1s   -0.45679     6 1s   -0.45679
   34.1     0.00000     2.67916     1 2px  -0.25945     1 3d1+  0.88606     2 2px   0.25945     2 3d1+  0.88606
   35.1     0.00000     3.03214     1 1s    1.96571     1 2pz  -0.72481     1 2pz  -1.15796     1 3d0   1.09349     2 1s   -1.96571
                                    2 2pz  -0.72481     2 2pz  -1.15796     2 3d0  -1.09349
   36.1     0.00000     3.03369     1 2py   0.60338     1 3d1-  0.95392     2 2py  -0.60338     2 3d1-  0.95392     3 1s   -0.48828
                                    4 1s    0.48828     5 1s    0.48828     6 1s   -0.48828


 HOMO      8.1    -0.362233 =      -9.8569eV
 LUMO      9.1     0.172339 =       4.6896eV
 LUMO-HOMO         0.534572 =      14.5464eV


 **********************************************************************************************************************************
 DATASETS  * FILE   NREC   LENGTH (MB)   RECORD NAMES
              1      19       30.63       500      610      700      900      950      970     1000      129      960     1100   
                                          VAR    BASINP    GEOM    SYMINP    ZMAT    AOBASIS   BASIS     P2S    ABASIS      S 
                                         1400     1410     1200     1210     1080     1600     1650     1300     1700   
                                           T        V       H0       H01     AOSYM     SMH    MOLCAS    ERIS     OPER   

              2       4        2.86       700     1000      520     2100   
                                         GEOM     BASIS   MCVARS     RHF  

 PROGRAMS   *        TOTAL    HF-SCF       INT
 CPU TIMES  *         0.39      0.09      0.22
 REAL TIME  *         0.65 SEC
 DISK USED  *        35.45 MB
 **********************************************************************************************************************************


 PROGRAM * MULTI (Direct Multiconfiguration SCF)       Authors: P.J. Knowles, H.-J. Werner (1984)


 Number of closed-shell orbitals:   7 (   7 )
 Number of active  orbitals:        2 (   2 )
 Number of external orbitals:      27 (  27 )

 State symmetry 1

 Number of electrons:     2    Spin symmetry=Singlet   Space symmetry=1
 Number of states:        3
 Number of CSFs:          3   (4 determinants, 4 intermediate states)

 Molecular orbitals read from record     2100.2  Type=RHF/CANONICAL (state 1.1)

 EXTRA SYMMETRY OF MOS IN SYMMETRY 1:   1 1 1 1 1 1 1 2 2 1   1 1 1 1 1 1 2 1 2 1   1 1 1 1 1 1 2 3 3 1   1 1 1 2 1 1

 Wavefunction dump at record             2140.2

 Convergence thresholds  0.10E-01 (gradient)  0.10E-05 (energy)  0.10E-02 (step length)

 Weight factors for state symmetry  1:    0.33333   0.33333   0.33333

 Number of orbital rotations:      257   (    14 Core/Active    189 Core/Virtual   0 Active/Active     54 Active/Virtual)
 Total number of variables:        269

 Micro-Iterations solved by the two-step solver

 ITER. MIC  NCI  NEG     ENERGY(VAR)     ENERGY(PROJ)   ENERGY CHANGE     GRAD(0)  GRAD(ORB)   GRAD(CI)     STEP       TIME

   1    3    3    0     -77.73772463     -77.74347020   -0.00574557    0.12681305 0.00000123 0.00000000  0.60D-01      0.05
   2    2    3    0     -77.74338629     -77.74338932   -0.00000303    0.00273533 0.00000149 0.00000000  0.14D-02      0.08
   3    2    3    0     -77.74338932     -77.74338932   -0.00000000    0.00000172 0.00000000 0.00000000  0.11D-05      0.11

 ** WVFN ****  CONVERGENCE REACHED, FINAL GRADIENT:  0.79D-12



 Results for state 1.1
 =====================

 !MCSCF STATE  1.1 Energy             -78.047596524640
 Nuclear energy                        33.19365693
 Kinetic energy                        78.05333906
 One electron energy                 -169.81979162
 Two electron energy                   58.57853817
 Virial ratio                           1.99992643

 !MCSCF STATE  1.1 Dipole moment        0.00000000     0.00000000     0.00000000
 Dipole moment /Debye                   0.00000000     0.00000000     0.00000000

 Results for state 2.1
 =====================

 !MCSCF STATE  2.1 Energy             -77.678637308053
 Nuclear energy                        33.19365693
 Kinetic energy                        78.24324763
 One electron energy                 -169.30170629
 Two electron energy                   58.42941205
 Virial ratio                           1.99278391

 !MCSCF STATE  2.1 Dipole moment        0.00000000     0.00000000     0.00000000
 Dipole moment /Debye                   0.00000000     0.00000000     0.00000000

 Results for state 3.1
 =====================

 !MCSCF STATE  3.1 Energy             -77.503934136185
 Nuclear energy                        33.19365693
 Kinetic energy                        78.43315620
 One electron energy                 -168.78362095
 Two electron energy                   58.08602989
 Virial ratio                           1.98815269

 !MCSCF STATE  3.1 Dipole moment        0.00000000     0.00000000    -0.00000000
 Dipole moment /Debye                   0.00000000     0.00000000    -0.00000000

 State-averaged charge density matrix saved on record  2140.2 (density set 1)

 !MCSCF trans         <2.1|DMZ|1.1>    -1.512570589631 au =    -3.844319159195 Debye
 !MCSCF trans         <3.1|DMZ|2.1>    -2.326644721973 au =    -5.913353692472 Debye


 NATURAL ORBITALS (state averaged)
 =================================

  Orbital  Occupation    Energy     Coefficients
    1.1     2.00000   -11.24056     1 1s    0.70424     2 1s    0.70424
    2.1     2.00000   -11.23943     1 1s    0.70448     2 1s   -0.70448
    3.1     2.00000    -1.03368     1 1s    0.30855     2 1s    0.30855
    4.1     2.00000    -0.80422     1 1s    0.28295     2 1s   -0.28295
    5.1     2.00000    -0.65338     1 2py   0.32695     2 2py   0.32695
    6.1     2.00000    -0.58999     1 2pz   0.40976     2 2pz  -0.40976
    7.1     2.00000    -0.52117     1 2py   0.31508     2 2py  -0.31508
    8.1     1.00000    -0.21974     1 2px   0.35444     1 2px   0.32543     2 2px   0.35444     2 2px   0.32543
    9.1     1.00000     0.02870     1 2px   0.38053     1 2px   0.67250     2 2px  -0.38053     2 2px  -0.67250
   10.1    -0.00000     0.26390     1 1s   -1.50367     1 2pz  -0.63895     2 1s   -1.50367     2 2pz   0.63895     3 1s    1.04502
                                    4 1s    1.04502     5 1s    1.04502     6 1s    1.04502
   11.1    -0.00000     0.29203     1 2py  -0.83077     2 2py  -0.83077     3 1s    1.12389     4 1s   -1.12389     5 1s    1.12389
                                    6 1s   -1.12389
   12.1    -0.00000     0.30878     1 1s    2.00105     2 1s   -2.00105     3 1s   -1.07686     4 1s   -1.07686     5 1s    1.07686
                                    6 1s    1.07686
   13.1    -0.00000     0.38572     1 2py  -1.86115     2 2py   1.86115     3 1s    1.64731     4 1s   -1.64731     5 1s   -1.64731
                                    6 1s    1.64731
   14.1    -0.00000     0.47892     1 1s   -2.63191     1 2pz   2.77530     2 1s    2.63191     2 2pz   2.77530     3 1s   -0.59692
                                    4 1s   -0.59692     5 1s    0.59692     6 1s    0.59692
   15.1    -0.00000     0.66623     1 2pz  -0.55573     1 2pz   1.00659     2 2pz   0.55573     2 2pz  -1.00659
   16.1    -0.00000     0.74819     1 2py  -0.40774     1 2py   0.80354     2 2py  -0.40774     2 2py   0.80354     3 1s   -0.37773
                                    4 1s    0.37773     5 1s   -0.37773     6 1s    0.37773
   17.1    -0.00000     0.77764     1 2px  -0.75388     1 2px   0.63396     2 2px  -0.75388     2 2px   0.63396
   18.1    -0.00000     0.85730     1 1s   -0.89210     1 1s    1.48297     1 2pz   0.32316     2 1s   -0.89210     2 1s    1.48297
                                    2 2pz  -0.32316     3 1s   -0.39080     4 1s   -0.39080     5 1s   -0.39080     6 1s   -0.39080
   19.1    -0.00000     0.87065     1 2px  -0.80073     1 2px   1.09216     2 2px   0.80073     2 2px  -1.09216
   20.1    -0.00000     0.91811     1 1s   -0.57831     1 2pz   0.62797     1 2pz  -0.64968     2 1s    0.57831     2 2pz   0.62797
                                    2 2pz  -0.64968     3 1s    0.36724     4 1s    0.36724     5 1s   -0.36724     6 1s   -0.36724
   21.1    -0.00000     1.11875     1 2py   0.68849     1 2py  -1.11231     2 2py   0.68849     2 2py  -1.11231     3 1s   -0.38625
                                    3 1s    1.07700     4 1s    0.38625     4 1s   -1.07700     5 1s   -0.38625     5 1s    1.07700
                                    6 1s    0.38625     6 1s   -1.07700
   22.1    -0.00000     1.15138     1 2py   0.92309     1 2py  -2.99633     2 2py  -0.92309     2 2py   2.99633     3 1s    1.56005
                                    4 1s   -1.56005     5 1s   -1.56005     6 1s    1.56005
   23.1    -0.00000     1.21790     1 1s    1.03588     1 1s   -1.73846     1 2pz   0.36718     1 2pz  -0.49752     2 1s    1.03588
                                    2 1s   -1.73846     2 2pz  -0.36718     2 2pz   0.49752     3 1s   -0.43978     3 1s    0.87086
                                    4 1s   -0.43978     4 1s    0.87086     5 1s   -0.43978     5 1s    0.87086     6 1s   -0.43978
                                    6 1s    0.87086
   24.1    -0.00000     1.22020     1 1s   -0.26108     1 1s   -0.34807     1 2pz  -0.64380     1 2pz   1.50541     2 1s    0.26108
                                    2 1s    0.34807     2 2pz  -0.64380     2 2pz   1.50541     3 1s    0.49217     3 1s   -0.90317
                                    4 1s    0.49217     4 1s   -0.90317     5 1s   -0.49217     5 1s    0.90317     6 1s   -0.49217
                                    6 1s    0.90317
   25.1    -0.00000     1.30667     1 1s   -1.65964     1 1s    5.26520     1 2pz  -1.61778     2 1s    1.65964     2 1s   -5.26520
                                    2 2pz  -1.61778     3 1s   -0.50840     4 1s   -0.50840     5 1s    0.50840     6 1s    0.50840
   26.1    -0.00000     1.47308     1 2py   2.50140     2 2py  -2.50140     3 1s   -0.69921     3 1s   -0.67745     4 1s    0.69921
                                    4 1s    0.67745     5 1s    0.69921     5 1s    0.67745     6 1s   -0.69921     6 1s   -0.67745
   27.1    -0.00000     1.70675     1 3d1+  0.62258     2 3d1+ -0.62258
   28.1    -0.00000     1.81637     1 3d2-  0.68372     2 3d2-  0.68372
   29.1    -0.00000     2.09250     1 3d2-  0.73307     2 3d2- -0.73307
   30.1    -0.00000     2.21054     1 1s    0.25735     1 1s   -0.61211     1 3d2+  0.69530     2 1s    0.25735     2 1s   -0.61211
                                    2 3d2+  0.69530     3 1s    0.36014     4 1s    0.36014     5 1s    0.36014     6 1s    0.36014
   31.1    -0.00000     2.32084     1 2py   0.28165     1 3d1-  0.69727     2 2py   0.28165     2 3d1- -0.69727     3 1s   -0.53020
                                    4 1s    0.53020     5 1s   -0.53020     6 1s    0.53020
   32.1    -0.00000     2.36630     1 1s   -0.47506     1 2pz   0.27000     1 2pz  -0.45173     1 3d0   0.66045     2 1s   -0.47506
                                    2 2pz  -0.27000     2 2pz   0.45173     2 3d0   0.66045
   33.1    -0.00000     2.61487     1 1s    0.28252     1 1s   -1.36321     1 2pz   0.29465     1 3d2+  0.79984     2 1s   -0.28252
                                    2 1s    1.36321     2 2pz   0.29465     2 3d2+ -0.79984     3 1s    0.45976     4 1s    0.45976
                                    5 1s   -0.45976     6 1s   -0.45976
   34.1    -0.00000     2.65753     1 2px  -0.26001     1 3d1+  0.88642     2 2px   0.26001     2 3d1+  0.88642
   35.1    -0.00000     3.01545     1 1s    1.98944     1 2pz  -0.71759     1 2pz  -1.17031     1 3d0   1.09494     2 1s   -1.98944
                                    2 2pz  -0.71759     2 2pz  -1.17031     2 3d0  -1.09494
   36.1    -0.00000     3.02172     1 2py   0.60377     1 3d1-  0.95349     2 2py  -0.60377     2 3d1-  0.95349     3 1s   -0.49059
                                    4 1s    0.49059     5 1s    0.49059     6 1s   -0.49059


 Natural orbital dump (state averaged) at molpro section  2140.2    (Orbital set 2)



 **********************************************************************************************************************************
 DATASETS  * FILE   NREC   LENGTH (MB)   RECORD NAMES
              1      20       31.36       500      610      700      900      950      970     1000      129      960     1100   
                                          VAR    BASINP    GEOM    SYMINP    ZMAT    AOBASIS   BASIS     P2S    ABASIS      S 
                                         1400     1410     1200     1210     1080     1600     1650     1300     1700     1380   
                                           T        V       H0       H01     AOSYM     SMH    MOLCAS    ERIS     OPER     JKOP   

              2       5        5.42       700     1000      520     2100     2140   
                                         GEOM     BASIS   MCVARS     RHF     MCSCF   

 PROGRAMS   *        TOTAL     MULTI    HF-SCF       INT
 CPU TIMES  *         0.54      0.15      0.09      0.22
 REAL TIME  *         0.83 SEC
 DISK USED  *        38.54 MB
 **********************************************************************************************************************************
 Molecular orbitals read from record     2140.2  Type=MCSCF/NATURAL (state averaged)
 Occupation numbers read from record     2140.2  Type=MCSCF/NATURAL (state averaged)
 Orbital energies read from record       2140.2  Type=MCSCF/NATURAL (state averaged)
 Redundancy group numbers read from rec  2140.2  Type=MCSCF/NATURAL (state averaged)

 MULTI/6-31G* energy=    -77.503934136185

           MULTI          HF-SCF
    -77.50393414    -78.02826302
 **********************************************************************************************************************************
 Molpro calculation terminated
