
 Primary working directories    : /scratch.local/johan406.molpro_temp/molpro.EeZCR1XXOL
 Secondary working directories  : /scratch.local/johan406.molpro_temp/molpro.EeZCR1XXOL
 Wavefunction directory         : /home/goodpast/johan406/wfu/
 Main file repository           : /scratch.local/johan406.molpro_temp/molpro.EeZCR1XXOL/

 id        : roweumn

 Nodes     nprocs
 cn0416       1

 Using customized tuning parameters: mindgm=1; mindgv=20; mindgc=4; mindgr=1; noblas=0; minvec=7
 default implementation of scratch files=df  


 Variables initialized (934), CPU time= 0.00 sec
                                                                                 !leave this line blank
 
 gprint, orbitals=30
 memory, 125., m
 symmetry, nosym
 nelect=16
 basis=6-31g*
 
 geometry={
 C 0.000 0.000 0.681
 C 0.000 -0.000 -0.681
 H 0.000 0.906 1.248
 H 0.000 -0.907 1.246
 H 0.000 0.907 -1.246
 H 0.000 -0.906 -1.248
 }
 
 hf
 {multi,
 closed 7
 occ 9
 wf,spin=0;STATE,3
 }
 
 Commands  initialized (763), CPU time= 0.00 sec, 617 directives.
 Default parameters read. Elapsed time= 0.05 sec

 Checking input...
 Passed
1


                                         ***  PROGRAM SYSTEM MOLPRO  ***
                                       Copyright, TTI GmbH Stuttgart, 2015
                                    Version 2019.2 linked Oct 25 2019 22:50:27


 **********************************************************************************************************************************
 LABEL *                                                                                 
  64 bit serial version                                                                  DATE: 15-Mar-23          TIME: 16:59:53  
 **********************************************************************************************************************************

 SHA1:             8dbd9ae1082e4ce945b0f27595c9eb2d4aa09004
 **********************************************************************************************************************************


 Variable memory set to  125000000 words,  buffer space 

 SETTING NELECT         =        16.00000000                                  
 SETTING BASIS          =    6-31G*
 ZSYMEL=NOSYM


Geometry recognized as XYZ



 Recomputing integrals since basis changed


 Using spherical harmonics

 Library entry C      S 6-31G                selected for orbital group  1
 Library entry C      P 6-31G                selected for orbital group  1
 Library entry C      D 6-31G*               selected for orbital group  1
 Library entry H      S 6-31G                selected for orbital group  2


 PROGRAM * SEWARD (Integral evaluation for generally contracted gaussian basis sets)     Author: Roland Lindh, 1990

 Geometry written to block  1 of record 700


 Point group  C1  



 ATOMIC COORDINATES

 NR  ATOM    CHARGE       X              Y              Z

   1  C       6.00    0.000000000    0.000000000    1.286903491
   2  C       6.00    0.000000000   -0.000000000   -1.286903491
   3  H       1.00    0.000000000    1.712091869    2.358378203
   4  H       1.00    0.000000000   -1.713981595    2.354598751
   5  H       1.00    0.000000000    1.713981595   -2.354598751
   6  H       1.00    0.000000000   -1.712091869   -2.358378203

 Bond lengths in Bohr (Angstrom)

 1-2  2.573806982  1-3  2.019731821  1-4  2.019333077  2-5  2.019333077  2-6  2.019731821
     ( 1.362000000)     ( 1.068796052)     ( 1.068585046)     ( 1.068585046)     ( 1.068796052)

 Bond angles

  1-2-5  121.92013015   1-2-6  122.03947769   2-1-3  122.03947769   2-1-4  121.92013015

  3-1-4  116.04039216   5-2-6  116.04039216

 NUCLEAR CHARGE:                   16
 NUMBER OF PRIMITIVE AOS:          72
 NUMBER OF SYMMETRY AOS:           70
 NUMBER OF CONTRACTIONS:           36   (   36A   )
 NUMBER OF CORE ORBITALS:           2   (    2A   )
 NUMBER OF VALENCE ORBITALS:       12   (   12A   )


 NUCLEAR REPULSION ENERGY   33.18359840

 EXTRA SYMMETRY OF AOS IN SYMMETRY 1:   1 1 1 2 1 1 2 1 1 1   2 2 1 1 1 1 1 2 1 1   2 1 1 1 2 2 1 1 1 1   1 1 1 1 1 1

 Eigenvalues of metric

         1 0.903E-02 0.176E-01 0.366E-01 0.450E-01 0.704E-01 0.209E+00 0.210E+00 0.228E+00


 Contracted 2-electron integrals neglected if value below      1.0D-11
 AO integral compression algorithm  1   Integral accuracy      1.0D-11

     0.786 MB (compressed) written to integral file ( 37.8%)


 NUMBER OF SORTED TWO-ELECTRON INTEGRALS:     222111.     BUFFER LENGTH:  32768
 NUMBER OF SEGMENTS:   1  SEGMENT LENGTH:     222111      RECORD LENGTH: 524288

 Memory used in sort:       0.78 MW

 SORT1 READ      284735. AND WROTE       98687. INTEGRALS IN      1 RECORDS. CPU TIME:     0.00 SEC, REAL TIME:     0.01 SEC
 SORT2 READ       98687. AND WROTE      222111. INTEGRALS IN      3 RECORDS. CPU TIME:     0.02 SEC, REAL TIME:     0.02 SEC

 FILE SIZES:   FILE 1:    30.9 MBYTE,  FILE 4:     4.2 MBYTE,   TOTAL:     35.1 MBYTE

 OPERATOR DM      FOR CENTER  0  COORDINATES:    0.000000    0.000000    0.000000


 **********************************************************************************************************************************
 DATASETS  * FILE   NREC   LENGTH (MB)   RECORD NAMES
              1      19       30.63       500      610      700      900      950      970     1000      129      960     1100   
                                          VAR    BASINP    GEOM    SYMINP    ZMAT    AOBASIS   BASIS     P2S    ABASIS      S 
                                         1400     1410     1200     1210     1080     1600     1650     1300     1700   
                                           T        V       H0       H01     AOSYM     SMH    MOLCAS    ERIS     OPER   

 PROGRAMS   *        TOTAL       INT
 CPU TIMES  *         0.31      0.22
 REAL TIME  *         0.48 SEC
 DISK USED  *        35.45 MB
 **********************************************************************************************************************************


 PROGRAM * RHF-SCF (CLOSED SHELL)       Authors: W. Meyer, H.-J. Werner


 NUMBER OF ELECTRONS:       8+    8-    SPACE SYMMETRY=1    SPIN SYMMETRY: Singlet 
 CONVERGENCE THRESHOLDS:    1.00E-05 (Density)    1.00E-07 (Energy)
 MAX. NUMBER OF ITERATIONS:       60
 INTERPOLATION TYPE:            DIIS
 INTERPOLATION STEPS:              2 (START)      1 (STEP)
 LEVEL SHIFTS:                  0.00 (CLOSED)  0.00 (OPEN) 



 Orbital guess generated from atomic densities. Full valence occupancy:    8

 Molecular orbital dump at record        2100.2

 Initial occupancy:   8

 ITERATION    DDIFF          GRAD             ENERGY        2-EL.EN.            DIPOLE MOMENTS         DIIS   ORB.
    1      0.000D+00      0.000D+00       -78.00530549    118.171882   -0.00000    0.00000   -0.00000    0    start
    2      0.000D+00      0.835D-02       -78.02655394    116.468517   -0.00000   -0.00000    0.00000    1    diag
    3      0.804D-02      0.278D-02       -78.02852478    117.058602   -0.00000    0.00000    0.00000    2    diag
    4      0.253D-02      0.701D-03       -78.02872610    116.958947   -0.00000    0.00000   -0.00000    3    diag
    5      0.104D-02      0.657D-04       -78.02872805    116.961765    0.00000   -0.00000   -0.00000    4    diag
    6      0.139D-03      0.749D-05       -78.02872808    116.961366   -0.00000    0.00000    0.00000    5    diag
    7      0.136D-04      0.113D-05       -78.02872808    116.961374   -0.00000   -0.00000   -0.00000    6    diag
    8      0.168D-05      0.128D-06       -78.02872808    116.961368    0.00000    0.00000    0.00000    0    orth

 Final occupancy:   8

 !RHF STATE  1.1 Energy               -78.028728078510
 Nuclear energy                        33.18359840
 One-electron energy                 -169.69301068
 Two-electron energy                   58.48068421
 Virial quotient                       -1.00048386
 !RHF STATE  1.1 Dipole moment          0.00000000     0.00000000     0.00000000
 Dipole moment /Debye                   0.00000000     0.00000000     0.00000000

 ELECTRON ORBITALS
 =================

  Orbital  Occupation    Energy     Coefficients
    1.1     2.00000   -11.22744     1 1s    0.70422     2 1s    0.70422
    2.1     2.00000   -11.22603     1 1s    0.70452     2 1s   -0.70452
    3.1     2.00000    -1.02077     1 1s    0.30139     2 1s    0.30139
    4.1     2.00000    -0.79855     2 1s   -0.24086
    5.1     2.00000    -0.63727     1 2py   0.32226     2 2py   0.32226
    6.1     2.00000    -0.58121     1 2pz   0.40715     2 2pz  -0.40715
    7.1     2.00000    -0.51106     1 2py   0.30811     2 2py  -0.30811
    8.1     2.00000    -0.36350     1 2px   0.37111     1 2px   0.31251     2 2px   0.37111     2 2px   0.31251
    9.1     0.00000     0.17278     1 2px   0.34424     1 2px   0.71900     2 2px  -0.34424     2 2px  -0.71900
   10.1     0.00000     0.26843     1 1s   -1.52095     1 2pz  -0.65178     2 1s   -1.52095     2 2pz   0.65178     3 1s    1.05711
                                    4 1s    1.05792     5 1s    1.05792     6 1s    1.05711
   11.1     0.00000     0.29823     1 2py  -0.25004     1 2py  -0.81999     2 2py  -0.25004     2 2py  -0.81999     3 1s    1.12617
                                    4 1s   -1.10404     5 1s    1.10404     6 1s   -1.12617
   12.1     0.00000     0.30934     1 1s    1.94992     2 1s   -1.94992     3 1s   -1.06724     4 1s   -1.09203     5 1s    1.09203
                                    6 1s    1.06724
   13.1     0.00000     0.39033     1 2py  -1.84769     2 2py   1.84769     3 1s    1.63483     4 1s   -1.63353     5 1s   -1.63353
                                    6 1s    1.63483
   14.1     0.00000     0.48646     1 1s   -2.72882     1 2pz   2.86998     2 1s    2.72882     2 2pz   2.86998     3 1s   -0.61717
                                    4 1s   -0.61474     5 1s    0.61474     6 1s    0.61717
   15.1     0.00000     0.67769     1 1s    0.28425     1 2pz  -0.56382     1 2pz   1.03993     2 1s    0.28425     2 2pz   0.56382
                                    2 2pz  -1.03993
   16.1     0.00000     0.75164     1 2py  -0.39876     1 2py   0.76823     2 2py  -0.39876     2 2py   0.76823     3 1s   -0.38180
                                    4 1s    0.38038     5 1s   -0.38038     6 1s    0.38180
   17.1     0.00000     0.78225     1 2px  -0.74587     1 2px   0.63972     2 2px  -0.74587     2 2px   0.63972
   18.1     0.00000     0.86367     1 1s   -0.89697     1 1s    1.50478     1 2pz   0.34662     2 1s   -0.89697     2 1s    1.50478
                                    2 2pz  -0.34662     3 1s   -0.39162     3 1s   -0.25217     4 1s   -0.39135     4 1s   -0.25490
                                    5 1s   -0.39135     5 1s   -0.25490     6 1s   -0.39162     6 1s   -0.25217
   19.1     0.00000     0.88723     1 2px  -0.81614     1 2px   1.06526     2 2px   0.81614     2 2px  -1.06526
   20.1     0.00000     0.93547     1 1s   -0.66699     1 2pz   0.61686     1 2pz  -0.63527     2 1s    0.66699     2 2pz   0.61686
                                    2 2pz  -0.63527     3 1s    0.37104     4 1s    0.37167     5 1s   -0.37167     6 1s   -0.37104
   21.1     0.00000     1.12857     1 2py  -0.69314     1 2py   1.09551     2 2py  -0.69314     2 2py   1.09551     3 1s    0.38517
                                    3 1s   -1.06443     4 1s   -0.38612     4 1s    1.06440     5 1s    0.38612     5 1s   -1.06440
                                    6 1s   -0.38517     6 1s    1.06443
   22.1     0.00000     1.16089     1 2py   0.92335     1 2py  -2.95212     2 2py  -0.92335     2 2py   2.95212     3 1s    1.53196
                                    4 1s   -1.52639     5 1s   -1.52639     6 1s    1.53196
   23.1     0.00000     1.22416     1 1s    1.03519     1 1s   -1.73333     1 2pz   0.36555     1 2pz  -0.49838     2 1s    1.03519
                                    2 1s   -1.73333     2 2pz  -0.36555     2 2pz   0.49838     3 1s   -0.44400     3 1s    0.86876
                                    4 1s   -0.44420     4 1s    0.87485     5 1s   -0.44420     5 1s    0.87485     6 1s   -0.44400
                                    6 1s    0.86876
   24.1     0.00000     1.22808     1 1s   -0.43600     1 2pz  -0.63157     1 2pz   1.31755     2 1s    0.43600     2 2pz  -0.63157
                                    2 2pz   1.31755     3 1s    0.48528     3 1s   -0.94635     4 1s    0.48530     4 1s   -0.94630
                                    5 1s   -0.48530     5 1s    0.94630     6 1s   -0.48528     6 1s    0.94635
   25.1     0.00000     1.32476     1 1s   -1.61759     1 1s    5.23692     1 2pz  -1.74930     2 1s    1.61759     2 1s   -5.23692
                                    2 2pz  -1.74930     3 1s   -0.40006     4 1s   -0.40333     5 1s    0.40333     6 1s    0.40006
   26.1     0.00000     1.45561     1 2py   2.42331     2 2py  -2.42331     3 1s   -0.69182     3 1s   -0.63496     4 1s    0.69134
                                    4 1s    0.63206     5 1s    0.69134     5 1s    0.63206     6 1s   -0.69182     6 1s   -0.63496
   27.1     0.00000     1.73046     1 3d1+  0.62224     2 3d1+ -0.62224
   28.1     0.00000     1.82876     1 3d2-  0.68337     2 3d2-  0.68337
   29.1     0.00000     2.11713     1 3d2-  0.73350     2 3d2- -0.73350
   30.1     0.00000     2.21950     1 1s   -0.62379     1 3d2+  0.70679     2 1s   -0.62379     2 3d2+  0.70679     3 1s    0.36951
                                    4 1s    0.37138     5 1s    0.37138     6 1s    0.36951
   31.1     0.00000     2.33967     1 2py   0.27859     1 3d1-  0.69906     2 2py   0.27859     2 3d1- -0.69906     3 1s   -0.52731
                                    4 1s    0.52530     5 1s   -0.52530     6 1s    0.52731
   32.1     0.00000     2.38004     1 1s   -0.48596     1 2pz   0.27667     1 2pz  -0.45215     1 3d0   0.67257     2 1s   -0.48596
                                    2 2pz  -0.27667     2 2pz   0.45215     2 3d0   0.67257
   33.1     0.00000     2.61659     1 1s    0.27992     1 1s   -1.25654     1 3d2+  0.79723     2 1s   -0.27992     2 1s    1.25654
                                    2 3d2+ -0.79723     3 1s    0.44650     4 1s    0.44968     5 1s   -0.44968     6 1s   -0.44650
   34.1     0.00000     2.68187     1 2px  -0.26042     1 3d1+  0.88837     2 2px   0.26042     2 3d1+  0.88837
   35.1     0.00000     3.03512     1 1s    2.00309     1 2pz  -0.73070     1 2pz  -1.18149     1 3d0   1.09649     2 1s   -2.00309
                                    2 2pz  -0.73070     2 2pz  -1.18149     2 3d0  -1.09649
   36.1     0.00000     3.06172     1 2py   0.58010     1 3d1-  0.96143     2 2py  -0.58010     2 3d1-  0.96143     3 1s   -0.49168
                                    4 1s    0.49083     5 1s    0.49083     6 1s   -0.49168


 HOMO      8.1    -0.363501 =      -9.8914eV
 LUMO      9.1     0.172776 =       4.7015eV
 LUMO-HOMO         0.536277 =      14.5928eV


 **********************************************************************************************************************************
 DATASETS  * FILE   NREC   LENGTH (MB)   RECORD NAMES
              1      19       30.63       500      610      700      900      950      970     1000      129      960     1100   
                                          VAR    BASINP    GEOM    SYMINP    ZMAT    AOBASIS   BASIS     P2S    ABASIS      S 
                                         1400     1410     1200     1210     1080     1600     1650     1300     1700   
                                           T        V       H0       H01     AOSYM     SMH    MOLCAS    ERIS     OPER   

              2       4        2.86       700     1000      520     2100   
                                         GEOM     BASIS   MCVARS     RHF  

 PROGRAMS   *        TOTAL    HF-SCF       INT
 CPU TIMES  *         0.40      0.10      0.22
 REAL TIME  *         0.60 SEC
 DISK USED  *        35.45 MB
 **********************************************************************************************************************************


 PROGRAM * MULTI (Direct Multiconfiguration SCF)       Authors: P.J. Knowles, H.-J. Werner (1984)


 Number of closed-shell orbitals:   7 (   7 )
 Number of active  orbitals:        2 (   2 )
 Number of external orbitals:      27 (  27 )

 State symmetry 1

 Number of electrons:     2    Spin symmetry=Singlet   Space symmetry=1
 Number of states:        3
 Number of CSFs:          3   (4 determinants, 4 intermediate states)

 Molecular orbitals read from record     2100.2  Type=RHF/CANONICAL (state 1.1)

 EXTRA SYMMETRY OF MOS IN SYMMETRY 1:   1 1 1 1 1 1 1 2 2 1   1 1 1 1 1 1 2 1 2 1   1 1 1 1 1 1 2 2 2 1   1 1 1 2 1 1

 Wavefunction dump at record             2140.2

 Convergence thresholds  0.10E-01 (gradient)  0.10E-05 (energy)  0.10E-02 (step length)

 Weight factors for state symmetry  1:    0.33333   0.33333   0.33333

 Number of orbital rotations:      257   (    14 Core/Active    189 Core/Virtual   0 Active/Active     54 Active/Virtual)
 Total number of variables:        269

 Micro-Iterations solved by the two-step solver

 ITER. MIC  NCI  NEG     ENERGY(VAR)     ENERGY(PROJ)   ENERGY CHANGE     GRAD(0)  GRAD(ORB)   GRAD(CI)     STEP       TIME

   1    3    3    0     -77.73685558     -77.74268904   -0.00583345    0.12779799 0.00000128 0.00000000  0.61D-01      0.05
   2    2    3    0     -77.74260256     -77.74260572   -0.00000316    0.00279046 0.00000155 0.00000000  0.15D-02      0.09
   3    2    3    0     -77.74260572     -77.74260572   -0.00000000    0.00000180 0.00000000 0.00000000  0.11D-05      0.12

 ** WVFN ****  CONVERGENCE REACHED, FINAL GRADIENT:  0.86D-12



 Results for state 1.1
 =====================

 !MCSCF STATE  1.1 Energy             -78.047832725804
 Nuclear energy                        33.18359840
 Kinetic energy                        78.04923497
 One electron energy                 -169.80196624
 Two electron energy                   58.57053512
 Virial ratio                           1.99998203

 !MCSCF STATE  1.1 Dipole moment        0.00000000     0.00000000    -0.00000000
 Dipole moment /Debye                   0.00000000     0.00000000    -0.00000000

 Results for state 2.1
 =====================

 !MCSCF STATE  2.1 Energy             -77.678048224719
 Nuclear energy                        33.18359840
 Kinetic energy                        78.23703012
 One electron energy                 -169.27706960
 Two electron energy                   58.41542298
 Virial ratio                           1.99285528

 !MCSCF STATE  2.1 Dipole moment        0.00000000     0.00000000    -0.00000000
 Dipole moment /Debye                   0.00000000     0.00000000    -0.00000000

 Results for state 3.1
 =====================

 !MCSCF STATE  3.1 Energy             -77.501936206578
 Nuclear energy                        33.18359840
 Kinetic energy                        78.42482528
 One electron energy                 -168.75217297
 Two electron energy                   58.06663836
 Virial ratio                           1.98823218

 !MCSCF STATE  3.1 Dipole moment        0.00000000     0.00000000    -0.00000000
 Dipole moment /Debye                   0.00000000     0.00000000    -0.00000000

 State-averaged charge density matrix saved on record  2140.2 (density set 1)

 !MCSCF trans         <2.1|DMY|1.1>     0.000010461257 au =     0.000026588121 Debye
 !MCSCF trans         <3.1|DMY|2.1>     0.000016048488 au =     0.000040788517 Debye

 !MCSCF trans         <2.1|DMZ|1.1>    -1.511906916064 au =    -3.842632379729 Debye
 !MCSCF trans         <3.1|DMZ|2.1>    -2.319398268353 au =    -5.894936250881 Debye


 NATURAL ORBITALS (state averaged)
 =================================

  Orbital  Occupation    Energy     Coefficients
    1.1     2.00000   -11.24145     1 1s    0.70423     2 1s    0.70423
    2.1     2.00000   -11.24030     1 1s    0.70448     2 1s   -0.70448
    3.1     2.00000    -1.03387     1 1s    0.30923     2 1s    0.30923
    4.1     2.00000    -0.80574     1 1s    0.28212     2 1s   -0.28212
    5.1     2.00000    -0.64907     1 2py   0.32750     2 2py   0.32750
    6.1     2.00000    -0.59577     1 2pz   0.40906     2 2pz  -0.40906
    7.1     2.00000    -0.51713     1 2py   0.31413     2 2py  -0.31413
    8.1     1.00000     0.02902     1 2px   0.38042     1 2px   0.67447     2 2px  -0.38042     2 2px  -0.67447
    9.1     1.00000    -0.22071     1 2px   0.35524     1 2px   0.32432     2 2px   0.35524     2 2px   0.32432
   10.1    -0.00000     0.26595     1 1s   -1.51750     1 2pz  -0.65789     2 1s   -1.51750     2 2pz   0.65789     3 1s    1.05667
                                    4 1s    1.05778     5 1s    1.05778     6 1s    1.05667
   11.1    -0.00000     0.29031     1 2py  -0.81166     2 2py  -0.81166     3 1s    1.11470     4 1s   -1.09993     5 1s    1.09993
                                    6 1s   -1.11470
   12.1    -0.00000     0.30640     1 1s    1.97530     2 1s   -1.97530     3 1s   -1.06480     4 1s   -1.08203     5 1s    1.08203
                                    6 1s    1.06480
   13.1    -0.00000     0.38657     1 2py  -0.25145     1 2py  -1.83470     2 2py   0.25145     2 2py   1.83470     3 1s    1.62863
                                    4 1s   -1.62711     5 1s   -1.62711     6 1s    1.62863
   14.1    -0.00000     0.48325     1 1s   -2.70155     1 2pz   2.84888     2 1s    2.70155     2 2pz   2.84888     3 1s   -0.62768
                                    4 1s   -0.62515     5 1s    0.62515     6 1s    0.62768
   15.1    -0.00000     0.66675     1 2pz  -0.55677     1 2pz   1.01533     2 2pz   0.55677     2 2pz  -1.01533
   16.1    -0.00000     0.74159     1 2py  -0.40958     1 2py   0.77403     2 2py  -0.40958     2 2py   0.77403     3 1s   -0.37749
                                    4 1s    0.37611     5 1s   -0.37611     6 1s    0.37749
   17.1    -0.00000     0.77655     1 2px  -0.75279     1 2px   0.63412     2 2px  -0.75279     2 2px   0.63412
   18.1    -0.00000     0.86113     1 1s   -0.89049     1 1s    1.53106     1 2pz   0.39525     2 1s   -0.89049     2 1s    1.53106
                                    2 2pz  -0.39525     3 1s   -0.39373     3 1s   -0.26398     4 1s   -0.39351     4 1s   -0.26687
                                    5 1s   -0.39351     5 1s   -0.26687     6 1s   -0.39373     6 1s   -0.26398
   19.1    -0.00000     0.87050     1 2px  -0.80106     1 2px   1.09386     2 2px   0.80106     2 2px  -1.09386
   20.1    -0.00000     0.91784     1 1s   -0.51799     1 2pz   0.61970     1 2pz  -0.71677     2 1s    0.51799     2 2pz   0.61970
                                    2 2pz  -0.71677     3 1s    0.37166     4 1s    0.37228     5 1s   -0.37228     6 1s   -0.37166
   21.1    -0.00000     1.11394     1 2py  -0.68224     1 2py   1.09738     2 2py  -0.68224     2 2py   1.09738     3 1s    0.38548
                                    3 1s   -1.07281     4 1s   -0.38650     4 1s    1.07304     5 1s    0.38650     5 1s   -1.07304
                                    6 1s   -0.38548     6 1s    1.07281
   22.1    -0.00000     1.14920     1 2py   0.92059     1 2py  -2.95667     2 2py  -0.92059     2 2py   2.95667     3 1s    1.53911
                                    4 1s   -1.53417     5 1s   -1.53417     6 1s    1.53911
   23.1    -0.00000     1.22143     1 1s    1.03040     1 1s   -1.72930     1 2pz   0.36926     1 2pz  -0.50387     2 1s    1.03040
                                    2 1s   -1.72930     2 2pz  -0.36926     2 2pz   0.50387     3 1s   -0.44453     3 1s    0.86880
                                    4 1s   -0.44459     4 1s    0.87376     5 1s   -0.44459     5 1s    0.87376     6 1s   -0.44453
                                    6 1s    0.86880
   24.1    -0.00000     1.22545     1 1s   -0.33689     1 2pz  -0.64718     1 2pz   1.42261     2 1s    0.33689     2 2pz  -0.64718
                                    2 2pz   1.42261     3 1s    0.48856     3 1s   -0.92013     4 1s    0.48847     4 1s   -0.91966
                                    5 1s   -0.48847     5 1s    0.91966     6 1s   -0.48856     6 1s    0.92013
   25.1    -0.00000     1.30649     1 1s   -1.64255     1 1s    5.24992     1 2pz  -1.66198     2 1s    1.64255     2 1s   -5.24992
                                    2 2pz  -1.66198     3 1s   -0.45936     4 1s   -0.46258     5 1s    0.46258     6 1s    0.45936
   26.1    -0.00000     1.44730     1 2py   2.42641     2 2py  -2.42641     3 1s   -0.69071     3 1s   -0.63598     4 1s    0.69024
                                    4 1s    0.63305     5 1s    0.69024     5 1s    0.63305     6 1s   -0.69071     6 1s   -0.63598
   27.1    -0.00000     1.70627     1 3d1+  0.62202     2 3d1+ -0.62202
   28.1    -0.00000     1.81599     1 3d2-  0.68337     2 3d2-  0.68337
   29.1    -0.00000     2.09518     1 3d2-  0.73350     2 3d2- -0.73350
   30.1    -0.00000     2.20514     1 1s   -0.61967     1 3d2+  0.70578     2 1s   -0.61967     2 3d2+  0.70578     3 1s    0.37088
                                    4 1s    0.37273     5 1s    0.37273     6 1s    0.37088
   31.1    -0.00000     2.32435     1 2py   0.28539     1 3d1-  0.69731     2 2py   0.28539     2 3d1- -0.69731     3 1s   -0.53066
                                    4 1s    0.52859     5 1s   -0.52859     6 1s    0.53066
   32.1    -0.00000     2.36081     1 1s   -0.48354     1 2pz   0.28207     1 2pz  -0.45543     1 3d0   0.67188     2 1s   -0.48354
                                    2 2pz  -0.28207     2 2pz   0.45543     2 3d0   0.67188
   33.1    -0.00000     2.59792     1 1s    0.28054     1 1s   -1.26159     1 3d2+  0.79649     2 1s   -0.28054     2 1s    1.26159
                                    2 3d2+ -0.79649     3 1s    0.44945     4 1s    0.45269     5 1s   -0.45269     6 1s   -0.44945
   34.1    -0.00000     2.66015     1 2px  -0.26101     1 3d1+  0.88873     2 2px   0.26101     2 3d1+  0.88873
   35.1    -0.00000     3.01835     1 1s    2.02664     1 2pz  -0.72341     1 2pz  -1.19382     1 3d0   1.09794     2 1s   -2.02664
                                    2 2pz  -0.72341     2 2pz  -1.19382     2 3d0  -1.09794
   36.1    -0.00000     3.04954     1 2py   0.58001     1 3d1-  0.96104     2 2py  -0.58001     2 3d1-  0.96104     3 1s   -0.49390
                                    4 1s    0.49304     5 1s    0.49304     6 1s   -0.49390


 Natural orbital dump (state averaged) at molpro section  2140.2    (Orbital set 2)



 **********************************************************************************************************************************
 DATASETS  * FILE   NREC   LENGTH (MB)   RECORD NAMES
              1      20       31.36       500      610      700      900      950      970     1000      129      960     1100   
                                          VAR    BASINP    GEOM    SYMINP    ZMAT    AOBASIS   BASIS     P2S    ABASIS      S 
                                         1400     1410     1200     1210     1080     1600     1650     1300     1700     1380   
                                           T        V       H0       H01     AOSYM     SMH    MOLCAS    ERIS     OPER     JKOP   

              2       5        5.42       700     1000      520     2100     2140   
                                         GEOM     BASIS   MCVARS     RHF     MCSCF   

 PROGRAMS   *        TOTAL     MULTI    HF-SCF       INT
 CPU TIMES  *         0.55      0.15      0.10      0.22
 REAL TIME  *         0.79 SEC
 DISK USED  *        38.55 MB
 **********************************************************************************************************************************
 Molecular orbitals read from record     2140.2  Type=MCSCF/NATURAL (state averaged)
 Occupation numbers read from record     2140.2  Type=MCSCF/NATURAL (state averaged)
 Orbital energies read from record       2140.2  Type=MCSCF/NATURAL (state averaged)
 Redundancy group numbers read from rec  2140.2  Type=MCSCF/NATURAL (state averaged)

 MULTI/6-31G* energy=    -77.501936206578

           MULTI          HF-SCF
    -77.50193621    -78.02872808
 **********************************************************************************************************************************
 Molpro calculation terminated
