
 Primary working directories    : /scratch.local/johan406.molpro_temp/molpro.4lf7lFq1iZ
 Secondary working directories  : /scratch.local/johan406.molpro_temp/molpro.4lf7lFq1iZ
 Wavefunction directory         : /home/goodpast/johan406/wfu/
 Main file repository           : /scratch.local/johan406.molpro_temp/molpro.4lf7lFq1iZ/

 id        : roweumn

 Nodes     nprocs
 cn0416       1

 Using customized tuning parameters: mindgm=1; mindgv=20; mindgc=4; mindgr=1; noblas=0; minvec=7
 default implementation of scratch files=df  


 Variables initialized (934), CPU time= 0.00 sec
                                                                                 !leave this line blank
 
 gprint, orbitals=30
 memory, 125., m
 symmetry, nosym
 nelect=16
 basis=6-31g*
 
 geometry={
 C 0.000 0.000 0.681
 C 0.000 -0.000 -0.681
 H 0.000 0.905 1.249
 H 0.000 -0.907 1.247
 H 0.000 0.907 -1.247
 H 0.000 -0.905 -1.249
 }
 
 hf
 {multi,
 closed 7
 occ 9
 wf,spin=0;STATE,3
 }
 
 Commands  initialized (763), CPU time= 0.01 sec, 617 directives.
 Default parameters read. Elapsed time= 0.04 sec

 Checking input...
 Passed
1


                                         ***  PROGRAM SYSTEM MOLPRO  ***
                                       Copyright, TTI GmbH Stuttgart, 2015
                                    Version 2019.2 linked Oct 25 2019 22:50:27


 **********************************************************************************************************************************
 LABEL *                                                                                 
  64 bit serial version                                                                  DATE: 15-Mar-23          TIME: 16:59:58  
 **********************************************************************************************************************************

 SHA1:             8dbd9ae1082e4ce945b0f27595c9eb2d4aa09004
 **********************************************************************************************************************************


 Variable memory set to  125000000 words,  buffer space 

 SETTING NELECT         =        16.00000000                                  
 SETTING BASIS          =    6-31G*
 ZSYMEL=NOSYM


Geometry recognized as XYZ



 Recomputing integrals since basis changed


 Using spherical harmonics

 Library entry C      S 6-31G                selected for orbital group  1
 Library entry C      P 6-31G                selected for orbital group  1
 Library entry C      D 6-31G*               selected for orbital group  1
 Library entry H      S 6-31G                selected for orbital group  2


 PROGRAM * SEWARD (Integral evaluation for generally contracted gaussian basis sets)     Author: Roland Lindh, 1990

 Geometry written to block  1 of record 700


 Point group  C1  



 ATOMIC COORDINATES

 NR  ATOM    CHARGE       X              Y              Z

   1  C       6.00    0.000000000    0.000000000    1.286903491
   2  C       6.00    0.000000000   -0.000000000   -1.286903491
   3  H       1.00    0.000000000    1.710202143    2.360267930
   4  H       1.00    0.000000000   -1.713981595    2.356488477
   5  H       1.00    0.000000000    1.713981595   -2.356488477
   6  H       1.00    0.000000000   -1.710202143   -2.360267930

 Bond lengths in Bohr (Angstrom)

 1-2  2.573806982  1-3  2.019134118  1-4  2.020332881  2-5  2.020332881  2-6  2.019134118
     ( 1.362000000)     ( 1.068479761)     ( 1.069114119)     ( 1.069114119)     ( 1.068479761)

 Bond angles

  1-2-5  121.96561815   1-2-6  122.11338108   2-1-3  122.11338108   2-1-4  121.96561815

  3-1-4  115.92100077   5-2-6  115.92100077

 NUCLEAR CHARGE:                   16
 NUMBER OF PRIMITIVE AOS:          72
 NUMBER OF SYMMETRY AOS:           70
 NUMBER OF CONTRACTIONS:           36   (   36A   )
 NUMBER OF CORE ORBITALS:           2   (    2A   )
 NUMBER OF VALENCE ORBITALS:       12   (   12A   )


 NUCLEAR REPULSION ENERGY   33.18034589

 EXTRA SYMMETRY OF AOS IN SYMMETRY 1:   1 1 1 2 1 1 2 1 1 1   2 2 1 1 1 1 1 2 1 1   2 1 1 1 2 2 1 1 1 1   1 1 1 1 1 1

 Eigenvalues of metric

         1 0.903E-02 0.177E-01 0.366E-01 0.449E-01 0.705E-01 0.209E+00 0.210E+00 0.228E+00


 Contracted 2-electron integrals neglected if value below      1.0D-11
 AO integral compression algorithm  1   Integral accuracy      1.0D-11

     0.786 MB (compressed) written to integral file ( 37.8%)


 NUMBER OF SORTED TWO-ELECTRON INTEGRALS:     222111.     BUFFER LENGTH:  32768
 NUMBER OF SEGMENTS:   1  SEGMENT LENGTH:     222111      RECORD LENGTH: 524288

 Memory used in sort:       0.78 MW

 SORT1 READ      284735. AND WROTE       98687. INTEGRALS IN      1 RECORDS. CPU TIME:     0.00 SEC, REAL TIME:     0.01 SEC
 SORT2 READ       98687. AND WROTE      222111. INTEGRALS IN      3 RECORDS. CPU TIME:     0.02 SEC, REAL TIME:     0.02 SEC

 FILE SIZES:   FILE 1:    30.9 MBYTE,  FILE 4:     4.2 MBYTE,   TOTAL:     35.1 MBYTE

 OPERATOR DM      FOR CENTER  0  COORDINATES:    0.000000    0.000000    0.000000


 **********************************************************************************************************************************
 DATASETS  * FILE   NREC   LENGTH (MB)   RECORD NAMES
              1      19       30.63       500      610      700      900      950      970     1000      129      960     1100   
                                          VAR    BASINP    GEOM    SYMINP    ZMAT    AOBASIS   BASIS     P2S    ABASIS      S 
                                         1400     1410     1200     1210     1080     1600     1650     1300     1700   
                                           T        V       H0       H01     AOSYM     SMH    MOLCAS    ERIS     OPER   

 PROGRAMS   *        TOTAL       INT
 CPU TIMES  *         0.31      0.22
 REAL TIME  *         0.47 SEC
 DISK USED  *        35.45 MB
 **********************************************************************************************************************************


 PROGRAM * RHF-SCF (CLOSED SHELL)       Authors: W. Meyer, H.-J. Werner


 NUMBER OF ELECTRONS:       8+    8-    SPACE SYMMETRY=1    SPIN SYMMETRY: Singlet 
 CONVERGENCE THRESHOLDS:    1.00E-05 (Density)    1.00E-07 (Energy)
 MAX. NUMBER OF ITERATIONS:       60
 INTERPOLATION TYPE:            DIIS
 INTERPOLATION STEPS:              2 (START)      1 (STEP)
 LEVEL SHIFTS:                  0.00 (CLOSED)  0.00 (OPEN) 



 Orbital guess generated from atomic densities. Full valence occupancy:    8

 Molecular orbital dump at record        2100.2

 Initial occupancy:   8

 ITERATION    DDIFF          GRAD             ENERGY        2-EL.EN.            DIPOLE MOMENTS         DIIS   ORB.
    1      0.000D+00      0.000D+00       -78.00528955    118.164753    0.00000   -0.00000    0.00000    0    start
    2      0.000D+00      0.835D-02       -78.02653806    116.461623    0.00000    0.00000    0.00000    1    diag
    3      0.804D-02      0.278D-02       -78.02850959    117.051762    0.00000    0.00000    0.00000    2    diag
    4      0.253D-02      0.701D-03       -78.02871108    116.952066    0.00000   -0.00000   -0.00000    3    diag
    5      0.104D-02      0.657D-04       -78.02871303    116.954890   -0.00000    0.00000    0.00000    4    diag
    6      0.139D-03      0.752D-05       -78.02871306    116.954490    0.00000    0.00000    0.00000    5    diag
    7      0.136D-04      0.113D-05       -78.02871306    116.954498   -0.00000    0.00000    0.00000    6    diag
    8      0.169D-05      0.129D-06       -78.02871306    116.954493   -0.00000    0.00000    0.00000    0    orth

 Final occupancy:   8

 !RHF STATE  1.1 Energy               -78.028713056674
 Nuclear energy                        33.18034589
 One-electron energy                 -169.68630532
 Two-electron energy                   58.47724637
 Virial quotient                       -1.00049484
 !RHF STATE  1.1 Dipole moment         -0.00000000     0.00000000     0.00000000
 Dipole moment /Debye                  -0.00000000     0.00000000     0.00000000

 ELECTRON ORBITALS
 =================

  Orbital  Occupation    Energy     Coefficients
    1.1     2.00000   -11.22752     1 1s    0.70422     2 1s    0.70422
    2.1     2.00000   -11.22610     1 1s    0.70452     2 1s   -0.70452
    3.1     2.00000    -1.02071     1 1s    0.30142     2 1s    0.30142
    4.1     2.00000    -0.79868     2 1s   -0.24081
    5.1     2.00000    -0.63701     1 2py   0.32228     2 2py   0.32228
    6.1     2.00000    -0.58150     1 2pz   0.40710     2 2pz  -0.40710
    7.1     2.00000    -0.51087     1 2py   0.30806     2 2py  -0.30806
    8.1     2.00000    -0.36352     1 2px   0.37114     1 2px   0.31249     2 2px   0.37114     2 2px   0.31249
    9.1     0.00000     0.17275     1 2px   0.34424     1 2px   0.71899     2 2px  -0.34424     2 2px  -0.71899
   10.1     0.00000     0.26854     1 1s   -1.52174     1 2pz  -0.65281     2 1s   -1.52174     2 2pz   0.65281     3 1s    1.05788
                                    4 1s    1.05855     5 1s    1.05855     6 1s    1.05788
   11.1     0.00000     0.29815     1 2py   0.25006     1 2py   0.81906     2 2py   0.25006     2 2py   0.81906     3 1s   -1.11574
                                    4 1s    1.11285     5 1s   -1.11285     6 1s    1.11574
   12.1     0.00000     0.30918     1 1s    1.94842     2 1s   -1.94842     3 1s   -1.07837     4 1s   -1.08058     5 1s    1.08058
                                    6 1s    1.07837
   13.1     0.00000     0.39036     1 2py  -1.84585     2 2py   1.84585     3 1s    1.63526     4 1s   -1.63075     5 1s   -1.63075
                                    6 1s    1.63526
   14.1     0.00000     0.48667     1 1s   -2.73062     1 2pz   2.87332     2 1s    2.73062     2 2pz   2.87332     3 1s   -0.62010
                                    4 1s   -0.61529     5 1s    0.61529     6 1s    0.62010
   15.1     0.00000     0.67784     1 1s    0.28352     1 2pz  -0.56400     1 2pz   1.04048     2 1s    0.28352     2 2pz   0.56400
                                    2 2pz  -1.04048
   16.1     0.00000     0.75121     1 2py  -0.39887     1 2py   0.76655     2 2py  -0.39887     2 2py   0.76655     3 1s   -0.38201
                                    4 1s    0.38002     5 1s   -0.38002     6 1s    0.38201
   17.1     0.00000     0.78223     1 2px  -0.74586     1 2px   0.63973     2 2px  -0.74586     2 2px   0.63973
   18.1     0.00000     0.86388     1 1s   -0.89697     1 1s    1.50780     1 2pz   0.35083     2 1s   -0.89697     2 1s    1.50780
                                    2 2pz  -0.35083     3 1s   -0.39170     3 1s   -0.25532     4 1s   -0.39161     4 1s   -0.25473
                                    5 1s   -0.39161     5 1s   -0.25473     6 1s   -0.39170     6 1s   -0.25532
   19.1     0.00000     0.88719     1 2px  -0.81613     1 2px   1.06527     2 2px   0.81613     2 2px  -1.06527
   20.1     0.00000     0.93528     1 1s   -0.66171     1 2pz   0.61649     1 2pz  -0.64030     2 1s    0.66171     2 2pz   0.61649
                                    2 2pz  -0.64030     3 1s    0.37073     4 1s    0.37237     5 1s   -0.37237     6 1s   -0.37073
   21.1     0.00000     1.12838     1 2py  -0.69284     1 2py   1.09463     2 2py  -0.69284     2 2py   1.09463     3 1s    0.38355
                                    3 1s   -1.06090     4 1s   -0.38777     4 1s    1.06739     5 1s    0.38777     5 1s   -1.06739
                                    6 1s   -0.38355     6 1s    1.06090
   22.1     0.00000     1.16075     1 2py   0.92318     1 2py  -2.94956     2 2py  -0.92318     2 2py   2.94956     3 1s    1.52714
                                    4 1s   -1.52857     5 1s   -1.52857     6 1s    1.52714
   23.1     0.00000     1.22435     1 1s    1.03485     1 1s   -1.73278     1 2pz   0.36564     1 2pz  -0.49873     2 1s    1.03485
                                    2 1s   -1.73278     2 2pz  -0.36564     2 2pz   0.49873     3 1s   -0.44408     3 1s    0.87800
                                    4 1s   -0.44468     4 1s    0.86564     5 1s   -0.44468     5 1s    0.86564     6 1s   -0.44408
                                    6 1s    0.87800
   24.1     0.00000     1.22832     1 1s   -0.43921     1 2pz  -0.63166     1 2pz   1.31348     2 1s    0.43921     2 2pz  -0.63166
                                    2 2pz   1.31348     3 1s    0.48649     3 1s   -0.95087     4 1s    0.48368     4 1s   -0.94259
                                    5 1s   -0.48368     5 1s    0.94259     6 1s   -0.48649     6 1s    0.95087
   25.1     0.00000     1.32467     1 1s   -1.61650     1 1s    5.23344     1 2pz  -1.74988     2 1s    1.61650     2 1s   -5.23344
                                    2 2pz  -1.74988     3 1s   -0.39853     4 1s   -0.40065     5 1s    0.40065     6 1s    0.39853
   26.1     0.00000     1.45401     1 2py   2.41834     2 2py  -2.41834     3 1s   -0.69193     3 1s   -0.63223     4 1s    0.69017
                                    4 1s    0.62949     5 1s    0.69017     5 1s    0.62949     6 1s   -0.69193     6 1s   -0.63223
   27.1     0.00000     1.73037     1 3d1+  0.62224     2 3d1+ -0.62224
   28.1     0.00000     1.82881     1 3d2-  0.68337     2 3d2-  0.68337
   29.1     0.00000     2.11719     1 3d2-  0.73350     2 3d2- -0.73350
   30.1     0.00000     2.21924     1 1s   -0.62431     1 3d2+  0.70716     2 1s   -0.62431     2 3d2+  0.70716     3 1s    0.37007
                                    4 1s    0.37172     5 1s    0.37172     6 1s    0.37007
   31.1     0.00000     2.33982     1 2py   0.27873     1 3d1-  0.69910     2 2py   0.27873     2 3d1- -0.69910     3 1s   -0.52710
                                    4 1s    0.52546     5 1s   -0.52546     6 1s    0.52710
   32.1     0.00000     2.37954     1 1s   -0.48611     1 2pz   0.27722     1 2pz  -0.45232     1 3d0   0.67295     2 1s   -0.48611
                                    2 2pz  -0.27722     2 2pz   0.45232     2 3d0   0.67295
   33.1     0.00000     2.61553     1 1s    0.27974     1 1s   -1.25020     1 3d2+  0.79702     2 1s   -0.27974     2 1s    1.25020
                                    2 3d2+ -0.79702     3 1s    0.44706     4 1s    0.44812     5 1s   -0.44812     6 1s   -0.44706
   34.1     0.00000     2.68177     1 2px  -0.26044     1 3d1+  0.88837     2 2px   0.26044     2 3d1+  0.88837
   35.1     0.00000     3.03507     1 1s    2.00477     1 2pz  -0.73043     1 2pz  -1.18271     1 3d0   1.09651     2 1s   -2.00477
                                    2 2pz  -0.73043     2 2pz  -1.18271     2 3d0  -1.09651
   36.1     0.00000     3.06305     1 2py   0.57858     1 3d1-  0.96172     2 2py  -0.57858     2 3d1-  0.96172     3 1s   -0.49262
                                    4 1s    0.49019     5 1s    0.49019     6 1s   -0.49262


 HOMO      8.1    -0.363521 =      -9.8919eV
 LUMO      9.1     0.172747 =       4.7007eV
 LUMO-HOMO         0.536268 =      14.5926eV


 **********************************************************************************************************************************
 DATASETS  * FILE   NREC   LENGTH (MB)   RECORD NAMES
              1      19       30.63       500      610      700      900      950      970     1000      129      960     1100   
                                          VAR    BASINP    GEOM    SYMINP    ZMAT    AOBASIS   BASIS     P2S    ABASIS      S 
                                         1400     1410     1200     1210     1080     1600     1650     1300     1700   
                                           T        V       H0       H01     AOSYM     SMH    MOLCAS    ERIS     OPER   

              2       4        2.86       700     1000      520     2100   
                                         GEOM     BASIS   MCVARS     RHF  

 PROGRAMS   *        TOTAL    HF-SCF       INT
 CPU TIMES  *         0.40      0.09      0.22
 REAL TIME  *         0.61 SEC
 DISK USED  *        35.45 MB
 **********************************************************************************************************************************


 PROGRAM * MULTI (Direct Multiconfiguration SCF)       Authors: P.J. Knowles, H.-J. Werner (1984)


 Number of closed-shell orbitals:   7 (   7 )
 Number of active  orbitals:        2 (   2 )
 Number of external orbitals:      27 (  27 )

 State symmetry 1

 Number of electrons:     2    Spin symmetry=Singlet   Space symmetry=1
 Number of states:        3
 Number of CSFs:          3   (4 determinants, 4 intermediate states)

 Molecular orbitals read from record     2100.2  Type=RHF/CANONICAL (state 1.1)

 EXTRA SYMMETRY OF MOS IN SYMMETRY 1:   1 1 1 1 1 1 1 2 2 1   1 1 1 1 1 1 2 1 2 1   1 1 1 1 1 1 2 2 2 1   1 1 1 2 1 1

 Wavefunction dump at record             2140.2

 Convergence thresholds  0.10E-01 (gradient)  0.10E-05 (energy)  0.10E-02 (step length)

 Weight factors for state symmetry  1:    0.33333   0.33333   0.33333

 Number of orbital rotations:      257   (    14 Core/Active    189 Core/Virtual   0 Active/Active     54 Active/Virtual)
 Total number of variables:        269

 Micro-Iterations solved by the two-step solver

 ITER. MIC  NCI  NEG     ENERGY(VAR)     ENERGY(PROJ)   ENERGY CHANGE     GRAD(0)  GRAD(ORB)   GRAD(CI)     STEP       TIME

   1    3    3    0     -77.73684932     -77.74268410   -0.00583478    0.12780904 0.00000129 0.00000000  0.61D-01      0.05
   2    2    3    0     -77.74259759     -77.74260074   -0.00000316    0.00279139 0.00000155 0.00000000  0.15D-02      0.08
   3    2    3    0     -77.74260074     -77.74260074   -0.00000000    0.00000180 0.00000000 0.00000000  0.11D-05      0.11

 ** WVFN ****  CONVERGENCE REACHED, FINAL GRADIENT:  0.87D-12



 Results for state 1.1
 =====================

 !MCSCF STATE  1.1 Energy             -78.047818310790
 Nuclear energy                        33.18034589
 Kinetic energy                        78.04834083
 One electron energy                 -169.79535963
 Two electron energy                   58.56719543
 Virial ratio                           1.99999331

 !MCSCF STATE  1.1 Dipole moment        0.00000000     0.00000000     0.00000000
 Dipole moment /Debye                   0.00000000     0.00000000     0.00000000

 Results for state 2.1
 =====================

 !MCSCF STATE  2.1 Energy             -77.678042159641
 Nuclear energy                        33.18034589
 Kinetic energy                        78.23608524
 One electron energy                 -169.27052050
 Two electron energy                   58.41213245
 Virial ratio                           1.99286719

 !MCSCF STATE  2.1 Dipole moment        0.00000000     0.00000000     0.00000000
 Dipole moment /Debye                   0.00000000     0.00000000     0.00000000

 Results for state 3.1
 =====================

 !MCSCF STATE  3.1 Energy             -77.501941764191
 Nuclear energy                        33.18034589
 Kinetic energy                        78.42382964
 One electron energy                 -168.74568137
 Two electron energy                   58.06339371
 Virial ratio                           1.98824480

 !MCSCF STATE  3.1 Dipole moment        0.00000000     0.00000000     0.00000000
 Dipole moment /Debye                   0.00000000     0.00000000     0.00000000

 State-averaged charge density matrix saved on record  2140.2 (density set 1)

 !MCSCF trans         <2.1|DMY|1.1>    -0.000013197228 au =    -0.000033541810 Debye
 !MCSCF trans         <3.1|DMY|2.1>    -0.000020246294 au =    -0.000051457576 Debye

 !MCSCF trans         <2.1|DMZ|1.1>    -1.511877326588 au =    -3.842557175710 Debye
 !MCSCF trans         <3.1|DMZ|2.1>    -2.319419934835 au =    -5.894991317977 Debye


 NATURAL ORBITALS (state averaged)
 =================================

  Orbital  Occupation    Energy     Coefficients
    1.1     2.00000   -11.24152     1 1s    0.70423     2 1s    0.70423
    2.1     2.00000   -11.24036     1 1s    0.70448     2 1s   -0.70448
    3.1     2.00000    -1.03381     1 1s    0.30926     2 1s    0.30926
    4.1     2.00000    -0.80585     1 1s    0.28205     2 1s   -0.28205
    5.1     2.00000    -0.64880     1 2py   0.32753     2 2py   0.32753
    6.1     2.00000    -0.59605     1 2pz   0.40901     2 2pz  -0.40901
    7.1     2.00000    -0.51694     1 2py   0.31408     2 2py  -0.31408
    8.1     1.00000     0.02900     1 2px   0.38041     1 2px   0.67447     2 2px  -0.38041     2 2px  -0.67447
    9.1     1.00000    -0.22072     1 2px   0.35526     1 2px   0.32430     2 2px   0.35526     2 2px   0.32430
   10.1    -0.00000     0.26607     1 1s   -1.51831     1 2pz  -0.65893     2 1s   -1.51831     2 2pz   0.65893     3 1s    1.05736
                                    4 1s    1.05850     5 1s    1.05850     6 1s    1.05736
   11.1    -0.00000     0.29023     1 2py   0.81070     2 2py   0.81070     3 1s   -1.10705     4 1s    1.10590     5 1s   -1.10590
                                    6 1s    1.10705
   12.1    -0.00000     0.30625     1 1s    1.97376     2 1s   -1.97376     3 1s   -1.07295     4 1s   -1.07345     5 1s    1.07345
                                    6 1s    1.07295
   13.1    -0.00000     0.38661     1 2py  -0.25163     1 2py  -1.83286     2 2py   0.25163     2 2py   1.83286     3 1s    1.62912
                                    4 1s   -1.62427     5 1s   -1.62427     6 1s    1.62912
   14.1    -0.00000     0.48344     1 1s   -2.70327     1 2pz   2.85209     2 1s    2.70327     2 2pz   2.85209     3 1s   -0.63058
                                    4 1s   -0.62570     5 1s    0.62570     6 1s    0.63058
   15.1    -0.00000     0.66685     1 2pz  -0.55689     1 2pz   1.01572     2 2pz   0.55689     2 2pz  -1.01572
   16.1    -0.00000     0.74118     1 2py  -0.40971     1 2py   0.77239     2 2py  -0.40971     2 2py   0.77239     3 1s   -0.37770
                                    4 1s    0.37572     5 1s   -0.37572     6 1s    0.37770
   17.1    -0.00000     0.77654     1 2px  -0.75278     1 2px   0.63413     2 2px  -0.75278     2 2px   0.63413
   18.1    -0.00000     0.86138     1 1s   -0.89042     1 1s    1.53393     1 2pz   0.39934     2 1s   -0.89042     2 1s    1.53393
                                    2 2pz  -0.39934     3 1s   -0.39376     3 1s   -0.26716     4 1s   -0.39373     4 1s   -0.26667
                                    5 1s   -0.39373     5 1s   -0.26667     6 1s   -0.39376     6 1s   -0.26716
   19.1    -0.00000     0.87047     1 2px  -0.80106     1 2px   1.09386     2 2px   0.80106     2 2px  -1.09386
   20.1    -0.00000     0.91769     1 1s   -0.51262     1 2pz   0.61935     1 2pz  -0.72202     2 1s    0.51262     2 2pz   0.61935
                                    2 2pz  -0.72202     3 1s    0.37131     4 1s    0.37295     5 1s   -0.37295     6 1s   -0.37131
   21.1    -0.00000     1.11375     1 2py  -0.68193     1 2py   1.09647     2 2py  -0.68193     2 2py   1.09647     3 1s    0.38407
                                    3 1s   -1.06971     4 1s   -0.38795     4 1s    1.07559     5 1s    0.38795     5 1s   -1.07559
                                    6 1s   -0.38407     6 1s    1.06971
   22.1    -0.00000     1.14906     1 2py   0.92042     1 2py  -2.95412     2 2py  -0.92042     2 2py   2.95412     3 1s    1.53483
                                    4 1s   -1.53582     5 1s   -1.53582     6 1s    1.53483
   23.1    -0.00000     1.22163     1 1s    1.03008     1 1s   -1.72876     1 2pz   0.36934     1 2pz  -0.50420     2 1s    1.03008
                                    2 1s   -1.72876     2 2pz  -0.36934     2 2pz   0.50420     3 1s   -0.44451     3 1s    0.87716
                                    4 1s   -0.44517     4 1s    0.86544     5 1s   -0.44517     5 1s    0.86544     6 1s   -0.44451
                                    6 1s    0.87716
   24.1    -0.00000     1.22572     1 1s   -0.34028     1 2pz  -0.64731     1 2pz   1.41845     2 1s    0.34028     2 2pz  -0.64731
                                    2 2pz   1.41845     3 1s    0.48965     3 1s   -0.92435     4 1s    0.48711     4 1s   -0.91658
                                    5 1s   -0.48711     5 1s    0.91658     6 1s   -0.48965     6 1s    0.92435
   25.1    -0.00000     1.30639     1 1s   -1.64163     1 1s    5.24708     1 2pz  -1.66285     2 1s    1.64163     2 1s   -5.24708
                                    2 2pz  -1.66285     3 1s   -0.45797     4 1s   -0.45971     5 1s    0.45971     6 1s    0.45797
   26.1    -0.00000     1.44571     1 2py   2.42144     2 2py  -2.42144     3 1s   -0.69083     3 1s   -0.63323     4 1s    0.68906
                                    4 1s    0.63050     5 1s    0.68906     5 1s    0.63050     6 1s   -0.69083     6 1s   -0.63323
   27.1    -0.00000     1.70618     1 3d1+  0.62202     2 3d1+ -0.62202
   28.1    -0.00000     1.81605     1 3d2-  0.68337     2 3d2-  0.68337
   29.1    -0.00000     2.09525     1 3d2-  0.73350     2 3d2- -0.73350
   30.1    -0.00000     2.20489     1 1s   -0.62020     1 3d2+  0.70617     2 1s   -0.62020     2 3d2+  0.70617     3 1s    0.37146
                                    4 1s    0.37309     5 1s    0.37309     6 1s    0.37146
   31.1    -0.00000     2.32450     1 2py   0.28552     1 3d1-  0.69735     2 2py   0.28552     2 3d1- -0.69735     3 1s   -0.53044
                                    4 1s    0.52876     5 1s   -0.52876     6 1s    0.53044
   32.1    -0.00000     2.36031     1 1s   -0.48369     1 2pz   0.28264     1 2pz  -0.45559     1 3d0   0.67227     2 1s   -0.48369
                                    2 2pz  -0.28264     2 2pz   0.45559     2 3d0   0.67227
   33.1    -0.00000     2.59686     1 1s    0.28035     1 1s   -1.25523     1 3d2+  0.79627     2 1s   -0.28035     2 1s    1.25523
                                    2 3d2+ -0.79627     3 1s    0.45003     4 1s    0.45112     5 1s   -0.45112     6 1s   -0.45003
   34.1    -0.00000     2.66006     1 2px  -0.26103     1 3d1+  0.88873     2 2px   0.26103     2 3d1+  0.88873
   35.1    -0.00000     3.01831     1 1s    2.02829     1 2pz  -0.72314     1 2pz  -1.19504     1 3d0   1.09796     2 1s   -2.02829
                                    2 2pz  -0.72314     2 2pz  -1.19504     2 3d0  -1.09796
   36.1    -0.00000     3.05087     1 2py   0.57846     1 3d1-  0.96133     2 2py  -0.57846     2 3d1-  0.96133     3 1s   -0.49483
                                    4 1s    0.49240     5 1s    0.49240     6 1s   -0.49483


 Natural orbital dump (state averaged) at molpro section  2140.2    (Orbital set 2)



 **********************************************************************************************************************************
 DATASETS  * FILE   NREC   LENGTH (MB)   RECORD NAMES
              1      20       31.36       500      610      700      900      950      970     1000      129      960     1100   
                                          VAR    BASINP    GEOM    SYMINP    ZMAT    AOBASIS   BASIS     P2S    ABASIS      S 
                                         1400     1410     1200     1210     1080     1600     1650     1300     1700     1380   
                                           T        V       H0       H01     AOSYM     SMH    MOLCAS    ERIS     OPER     JKOP   

              2       5        5.42       700     1000      520     2100     2140   
                                         GEOM     BASIS   MCVARS     RHF     MCSCF   

 PROGRAMS   *        TOTAL     MULTI    HF-SCF       INT
 CPU TIMES  *         0.56      0.16      0.09      0.22
 REAL TIME  *         0.80 SEC
 DISK USED  *        38.55 MB
 **********************************************************************************************************************************
 Molecular orbitals read from record     2140.2  Type=MCSCF/NATURAL (state averaged)
 Occupation numbers read from record     2140.2  Type=MCSCF/NATURAL (state averaged)
 Orbital energies read from record       2140.2  Type=MCSCF/NATURAL (state averaged)
 Redundancy group numbers read from rec  2140.2  Type=MCSCF/NATURAL (state averaged)

 MULTI/6-31G* energy=    -77.501941764191

           MULTI          HF-SCF
    -77.50194176    -78.02871306
 **********************************************************************************************************************************
 Molpro calculation terminated
