
 Primary working directories    : /scratch.local/johan406.molpro_temp/molpro.W6K4ZFYfea
 Secondary working directories  : /scratch.local/johan406.molpro_temp/molpro.W6K4ZFYfea
 Wavefunction directory         : /home/goodpast/johan406/wfu/
 Main file repository           : /scratch.local/johan406.molpro_temp/molpro.W6K4ZFYfea/

 id        : roweumn

 Nodes     nprocs
 cn0416       1

 Using customized tuning parameters: mindgm=1; mindgv=20; mindgc=4; mindgr=1; noblas=0; minvec=7
 default implementation of scratch files=df  


 Variables initialized (934), CPU time= 0.01 sec
                                                                                 !leave this line blank
 
 gprint, orbitals=30
 memory, 125., m
 symmetry, nosym
 nelect=16
 basis=6-31g*
 
 geometry={
 C 0.000 0.000 0.681
 C 0.000 -0.000 -0.681
 H 0.000 0.905 1.249
 H 0.000 -0.907 1.248
 H 0.000 0.907 -1.248
 H 0.000 -0.905 -1.249
 }
 
 hf
 {multi,
 closed 7
 occ 9
 wf,spin=0;STATE,3
 }
 
 Commands  initialized (763), CPU time= 0.01 sec, 617 directives.
 Default parameters read. Elapsed time= 0.04 sec

 Checking input...
 Passed
1


                                         ***  PROGRAM SYSTEM MOLPRO  ***
                                       Copyright, TTI GmbH Stuttgart, 2015
                                    Version 2019.2 linked Oct 25 2019 22:50:27


 **********************************************************************************************************************************
 LABEL *                                                                                 
  64 bit serial version                                                                  DATE: 15-Mar-23          TIME: 17:00:03  
 **********************************************************************************************************************************

 SHA1:             8dbd9ae1082e4ce945b0f27595c9eb2d4aa09004
 **********************************************************************************************************************************


 Variable memory set to  125000000 words,  buffer space 

 SETTING NELECT         =        16.00000000                                  
 SETTING BASIS          =    6-31G*
 ZSYMEL=NOSYM


Geometry recognized as XYZ



 Recomputing integrals since basis changed


 Using spherical harmonics

 Library entry C      S 6-31G                selected for orbital group  1
 Library entry C      P 6-31G                selected for orbital group  1
 Library entry C      D 6-31G*               selected for orbital group  1
 Library entry H      S 6-31G                selected for orbital group  2


 PROGRAM * SEWARD (Integral evaluation for generally contracted gaussian basis sets)     Author: Roland Lindh, 1990

 Geometry written to block  1 of record 700


 Point group  C1  



 ATOMIC COORDINATES

 NR  ATOM    CHARGE       X              Y              Z

   1  C       6.00    0.000000000    0.000000000    1.286903491
   2  C       6.00    0.000000000   -0.000000000   -1.286903491
   3  H       1.00    0.000000000    1.710202143    2.360267930
   4  H       1.00    0.000000000   -1.713981595    2.358378203
   5  H       1.00    0.000000000    1.713981595   -2.358378203
   6  H       1.00    0.000000000   -1.710202143   -2.360267930

 Bond lengths in Bohr (Angstrom)

 1-2  2.573806982  1-3  2.019134118  1-4  2.021333957  2-5  2.021333957  2-6  2.019134118
     ( 1.362000000)     ( 1.068479761)     ( 1.069643866)     ( 1.069643866)     ( 1.068479761)

 Bond angles

  1-2-5  122.01106112   1-2-6  122.11338108   2-1-3  122.11338108   2-1-4  122.01106112

  3-1-4  115.87555781   5-2-6  115.87555781

 NUCLEAR CHARGE:                   16
 NUMBER OF PRIMITIVE AOS:          72
 NUMBER OF SYMMETRY AOS:           70
 NUMBER OF CONTRACTIONS:           36   (   36A   )
 NUMBER OF CORE ORBITALS:           2   (    2A   )
 NUMBER OF VALENCE ORBITALS:       12   (   12A   )


 NUCLEAR REPULSION ENERGY   33.17587954

 EXTRA SYMMETRY OF AOS IN SYMMETRY 1:   1 1 1 2 1 1 2 1 1 1   2 2 1 1 1 1 1 2 1 1   2 1 1 1 2 2 1 1 1 1   1 1 1 1 1 1

 Eigenvalues of metric

         1 0.904E-02 0.177E-01 0.366E-01 0.449E-01 0.706E-01 0.209E+00 0.210E+00 0.228E+00


 Contracted 2-electron integrals neglected if value below      1.0D-11
 AO integral compression algorithm  1   Integral accuracy      1.0D-11

     0.786 MB (compressed) written to integral file ( 37.8%)


 NUMBER OF SORTED TWO-ELECTRON INTEGRALS:     222111.     BUFFER LENGTH:  32768
 NUMBER OF SEGMENTS:   1  SEGMENT LENGTH:     222111      RECORD LENGTH: 524288

 Memory used in sort:       0.78 MW

 SORT1 READ      284735. AND WROTE       98687. INTEGRALS IN      1 RECORDS. CPU TIME:     0.00 SEC, REAL TIME:     0.00 SEC
 SORT2 READ       98687. AND WROTE      222111. INTEGRALS IN      3 RECORDS. CPU TIME:     0.01 SEC, REAL TIME:     0.02 SEC

 FILE SIZES:   FILE 1:    30.9 MBYTE,  FILE 4:     4.2 MBYTE,   TOTAL:     35.1 MBYTE

 OPERATOR DM      FOR CENTER  0  COORDINATES:    0.000000    0.000000    0.000000


 **********************************************************************************************************************************
 DATASETS  * FILE   NREC   LENGTH (MB)   RECORD NAMES
              1      19       30.63       500      610      700      900      950      970     1000      129      960     1100   
                                          VAR    BASINP    GEOM    SYMINP    ZMAT    AOBASIS   BASIS     P2S    ABASIS      S 
                                         1400     1410     1200     1210     1080     1600     1650     1300     1700   
                                           T        V       H0       H01     AOSYM     SMH    MOLCAS    ERIS     OPER   

 PROGRAMS   *        TOTAL       INT
 CPU TIMES  *         0.30      0.21
 REAL TIME  *         0.50 SEC
 DISK USED  *        35.45 MB
 **********************************************************************************************************************************


 PROGRAM * RHF-SCF (CLOSED SHELL)       Authors: W. Meyer, H.-J. Werner


 NUMBER OF ELECTRONS:       8+    8-    SPACE SYMMETRY=1    SPIN SYMMETRY: Singlet 
 CONVERGENCE THRESHOLDS:    1.00E-05 (Density)    1.00E-07 (Energy)
 MAX. NUMBER OF ITERATIONS:       60
 INTERPOLATION TYPE:            DIIS
 INTERPOLATION STEPS:              2 (START)      1 (STEP)
 LEVEL SHIFTS:                  0.00 (CLOSED)  0.00 (OPEN) 



 Orbital guess generated from atomic densities. Full valence occupancy:    8

 Molecular orbital dump at record        2100.2

 Initial occupancy:   8

 ITERATION    DDIFF          GRAD             ENERGY        2-EL.EN.            DIPOLE MOMENTS         DIIS   ORB.
    1      0.000D+00      0.000D+00       -78.00529631    118.156155    0.00000    0.00000   -0.00000    0    start
    2      0.000D+00      0.834D-02       -78.02653972    116.453185   -0.00000   -0.00000   -0.00000    1    diag
    3      0.804D-02      0.278D-02       -78.02851147    117.043417    0.00000   -0.00000   -0.00000    2    diag
    4      0.253D-02      0.701D-03       -78.02871304    116.943677   -0.00000   -0.00000   -0.00000    3    diag
    5      0.104D-02      0.658D-04       -78.02871499    116.946507    0.00000   -0.00000   -0.00000    4    diag
    6      0.139D-03      0.754D-05       -78.02871502    116.946106    0.00000   -0.00000    0.00000    5    diag
    7      0.137D-04      0.113D-05       -78.02871502    116.946114   -0.00000    0.00000   -0.00000    6    diag
    8      0.170D-05      0.129D-06       -78.02871502    116.946108    0.00000    0.00000   -0.00000    0    orth

 Final occupancy:   8

 !RHF STATE  1.1 Energy               -78.028715019193
 Nuclear energy                        33.17587954
 One-electron energy                 -169.67764873
 Two-electron energy                   58.47305417
 Virial quotient                       -1.00051685
 !RHF STATE  1.1 Dipole moment          0.00000000     0.00000000    -0.00000000
 Dipole moment /Debye                   0.00000000     0.00000000    -0.00000000

 ELECTRON ORBITALS
 =================

  Orbital  Occupation    Energy     Coefficients
    1.1     2.00000   -11.22760     1 1s    0.70422     2 1s    0.70422
    2.1     2.00000   -11.22619     1 1s    0.70452     2 1s   -0.70452
    3.1     2.00000    -1.02066     1 1s    0.30143     2 1s    0.30143
    4.1     2.00000    -0.79864     1 1s    0.24077
    5.1     2.00000    -0.63683     1 2py   0.32226     2 2py   0.32226
    6.1     2.00000    -0.58158     1 2pz   0.40706     2 2pz  -0.40706
    7.1     2.00000    -0.51073     1 2py   0.30800     2 2py  -0.30800
    8.1     2.00000    -0.36354     1 2px   0.37115     1 2px   0.31248     2 2px   0.37115     2 2px   0.31248
    9.1     0.00000     0.17273     1 2px   0.34425     1 2px   0.71898     2 2px  -0.34425     2 2px  -0.71898
   10.1     0.00000     0.26853     1 1s   -1.52141     1 2pz  -0.65307     2 1s   -1.52141     2 2pz   0.65307     3 1s    1.05804
                                    4 1s    1.05823     5 1s    1.05823     6 1s    1.05804
   11.1     0.00000     0.29805     1 2py   0.25008     1 2py   0.81840     2 2py   0.25008     2 2py   0.81840     3 1s   -1.10444
                                    4 1s    1.12248     5 1s   -1.12248     6 1s    1.10444
   12.1     0.00000     0.30906     1 1s    1.94678     2 1s   -1.94678     3 1s   -1.08987     4 1s   -1.06817     5 1s    1.06817
                                    6 1s    1.08987
   13.1     0.00000     0.39036     1 2py  -1.84467     2 2py   1.84467     3 1s    1.63465     4 1s   -1.62918     5 1s   -1.62918
                                    6 1s    1.63465
   14.1     0.00000     0.48674     1 1s   -2.73209     1 2pz   2.87443     2 1s    2.73209     2 2pz   2.87443     3 1s   -0.62032
                                    4 1s   -0.61555     5 1s    0.61555     6 1s    0.62032
   15.1     0.00000     0.67791     1 1s    0.28278     1 2pz  -0.56412     1 2pz   1.04059     2 1s    0.28278     2 2pz   0.56412
                                    2 2pz  -1.04059
   16.1     0.00000     0.75112     1 2py  -0.39897     1 2py   0.76564     2 2py  -0.39897     2 2py   0.76564     3 1s   -0.38182
                                    4 1s    0.38025     5 1s   -0.38025     6 1s    0.38182
   17.1     0.00000     0.78220     1 2px  -0.74585     1 2px   0.63973     2 2px  -0.74585     2 2px   0.63973
   18.1     0.00000     0.86397     1 1s   -0.89680     1 1s    1.50819     1 2pz   0.35248     2 1s   -0.89680     2 1s    1.50819
                                    2 2pz  -0.35248     3 1s   -0.39177     3 1s   -0.25696     4 1s   -0.39191     4 1s   -0.25334
                                    5 1s   -0.39191     5 1s   -0.25334     6 1s   -0.39177     6 1s   -0.25696
   19.1     0.00000     0.88716     1 2px  -0.81613     1 2px   1.06527     2 2px   0.81613     2 2px  -1.06527
   20.1     0.00000     0.93521     1 1s   -0.65851     1 2pz   0.61631     1 2pz  -0.64200     2 1s    0.65851     2 2pz   0.61631
                                    2 2pz  -0.64200     3 1s    0.37079     4 1s    0.37263     5 1s   -0.37263     6 1s   -0.37079
   21.1     0.00000     1.12813     1 2py  -0.69268     1 2py   1.09416     2 2py  -0.69268     2 2py   1.09416     3 1s    0.38297
                                    3 1s   -1.05895     4 1s   -0.38833     4 1s    1.06870     5 1s    0.38833     5 1s   -1.06870
                                    6 1s   -0.38297     6 1s    1.05895
   22.1     0.00000     1.16058     1 2py   0.92306     1 2py  -2.94637     2 2py  -0.92306     2 2py   2.94637     3 1s    1.52243
                                    4 1s   -1.53015     5 1s   -1.53015     6 1s    1.52243
   23.1     0.00000     1.22419     1 1s    1.03472     1 1s   -1.73237     1 2pz   0.36558     1 2pz  -0.49878     2 1s    1.03472
                                    2 1s   -1.73237     2 2pz  -0.36558     2 2pz   0.49878     3 1s   -0.44406     3 1s    0.88401
                                    4 1s   -0.44476     4 1s    0.85941     5 1s   -0.44476     5 1s    0.85941     6 1s   -0.44406
                                    6 1s    0.88401
   24.1     0.00000     1.22819     1 1s   -0.44124     1 2pz  -0.63162     1 2pz   1.31087     2 1s    0.44124     2 2pz  -0.63162
                                    2 2pz   1.31087     3 1s    0.48697     3 1s   -0.95320     4 1s    0.48274     4 1s   -0.94084
                                    5 1s   -0.48274     5 1s    0.94084     6 1s   -0.48697     6 1s    0.95320
   25.1     0.00000     1.32464     1 1s   -1.61583     1 1s    5.23161     1 2pz  -1.75091     2 1s    1.61583     2 1s   -5.23161
                                    2 2pz  -1.75091     3 1s   -0.39805     4 1s   -0.39796     5 1s    0.39796     6 1s    0.39805
   26.1     0.00000     1.45332     1 2py   2.41751     2 2py  -2.41751     3 1s   -0.69184     3 1s   -0.63070     4 1s    0.68967
                                    4 1s    0.62949     5 1s    0.68967     5 1s    0.62949     6 1s   -0.69184     6 1s   -0.63070
   27.1     0.00000     1.73034     1 3d1+  0.62224     2 3d1+ -0.62224
   28.1     0.00000     1.82885     1 3d2-  0.68337     2 3d2-  0.68337
   29.1     0.00000     2.11724     1 3d2-  0.73350     2 3d2- -0.73350
   30.1     0.00000     2.21896     1 1s   -0.62429     1 3d2+  0.70734     2 1s   -0.62429     2 3d2+  0.70734     3 1s    0.37065
                                    4 1s    0.37126     5 1s    0.37126     6 1s    0.37065
   31.1     0.00000     2.33954     1 2py   0.27852     1 3d1-  0.69903     2 2py   0.27852     2 3d1- -0.69903     3 1s   -0.52628
                                    4 1s    0.52583     5 1s   -0.52583     6 1s    0.52628
   32.1     0.00000     2.37933     1 1s   -0.48616     1 2pz   0.27755     1 2pz  -0.45230     1 3d0   0.67316     2 1s   -0.48616
                                    2 2pz  -0.27755     2 2pz   0.45230     2 3d0   0.67316
   33.1     0.00000     2.61487     1 1s    0.27982     1 1s   -1.24746     1 3d2+  0.79686     2 1s   -0.27982     2 1s    1.24746
                                    2 3d2+ -0.79686     3 1s    0.44801     4 1s    0.44639     5 1s   -0.44639     6 1s   -0.44801
   34.1     0.00000     2.68174     1 2px  -0.26044     1 3d1+  0.88837     2 2px   0.26044     2 3d1+  0.88837
   35.1     0.00000     3.03506     1 1s    2.00547     1 2pz  -0.73032     1 2pz  -1.18318     1 3d0   1.09653     2 1s   -2.00547
                                    2 2pz  -0.73032     2 2pz  -1.18318     2 3d0  -1.09653
   36.1     0.00000     3.06321     1 2py   0.57738     1 3d1-  0.96172     2 2py  -0.57738     2 3d1-  0.96172     3 1s   -0.49257
                                    4 1s    0.48979     5 1s    0.48979     6 1s   -0.49257


 HOMO      8.1    -0.363538 =      -9.8924eV
 LUMO      9.1     0.172734 =       4.7003eV
 LUMO-HOMO         0.536272 =      14.5927eV


 **********************************************************************************************************************************
 DATASETS  * FILE   NREC   LENGTH (MB)   RECORD NAMES
              1      19       30.63       500      610      700      900      950      970     1000      129      960     1100   
                                          VAR    BASINP    GEOM    SYMINP    ZMAT    AOBASIS   BASIS     P2S    ABASIS      S 
                                         1400     1410     1200     1210     1080     1600     1650     1300     1700   
                                           T        V       H0       H01     AOSYM     SMH    MOLCAS    ERIS     OPER   

              2       4        2.86       700     1000      520     2100   
                                         GEOM     BASIS   MCVARS     RHF  

 PROGRAMS   *        TOTAL    HF-SCF       INT
 CPU TIMES  *         0.38      0.09      0.21
 REAL TIME  *         0.62 SEC
 DISK USED  *        35.45 MB
 **********************************************************************************************************************************


 PROGRAM * MULTI (Direct Multiconfiguration SCF)       Authors: P.J. Knowles, H.-J. Werner (1984)


 Number of closed-shell orbitals:   7 (   7 )
 Number of active  orbitals:        2 (   2 )
 Number of external orbitals:      27 (  27 )

 State symmetry 1

 Number of electrons:     2    Spin symmetry=Singlet   Space symmetry=1
 Number of states:        3
 Number of CSFs:          3   (4 determinants, 4 intermediate states)

 Molecular orbitals read from record     2100.2  Type=RHF/CANONICAL (state 1.1)

 EXTRA SYMMETRY OF MOS IN SYMMETRY 1:   1 1 1 1 1 1 1 2 2 1   1 1 1 1 1 1 2 1 2 1   1 1 1 1 1 1 2 2 2 1   1 1 1 2 1 1

 Wavefunction dump at record             2140.2

 Convergence thresholds  0.10E-01 (gradient)  0.10E-05 (energy)  0.10E-02 (step length)

 Weight factors for state symmetry  1:    0.33333   0.33333   0.33333

 Number of orbital rotations:      257   (    14 Core/Active    189 Core/Virtual   0 Active/Active     54 Active/Virtual)
 Total number of variables:        269

 Micro-Iterations solved by the two-step solver

 ITER. MIC  NCI  NEG     ENERGY(VAR)     ENERGY(PROJ)   ENERGY CHANGE     GRAD(0)  GRAD(ORB)   GRAD(CI)     STEP       TIME

   1    3    3    0     -77.73684896     -77.74268463   -0.00583567    0.12781367 0.00000129 0.00000000  0.61D-01      0.06
   2    2    3    0     -77.74259808     -77.74260124   -0.00000316    0.00279221 0.00000155 0.00000000  0.15D-02      0.09
   3    2    3    0     -77.74260124     -77.74260124   -0.00000000    0.00000180 0.00000000 0.00000000  0.11D-05      0.12

 ** WVFN ****  CONVERGENCE REACHED, FINAL GRADIENT:  0.87D-12



 Results for state 1.1
 =====================

 !MCSCF STATE  1.1 Energy             -78.047820034999
 Nuclear energy                        33.17587954
 Kinetic energy                        78.04661980
 One electron energy                 -169.78677951
 Two electron energy                   58.56307993
 Virial ratio                           2.00001538

 !MCSCF STATE  1.1 Dipole moment        0.00000000     0.00000000    -0.00000000
 Dipole moment /Debye                   0.00000000     0.00000000    -0.00000000

 Results for state 2.1
 =====================

 !MCSCF STATE  2.1 Energy             -77.678042056473
 Nuclear energy                        33.17587954
 Kinetic energy                        78.23434236
 One electron energy                 -169.26195465
 Two electron energy                   58.40803305
 Virial ratio                           1.99288931

 !MCSCF STATE  2.1 Dipole moment        0.00000000     0.00000000    -0.00000000
 Dipole moment /Debye                   0.00000000     0.00000000    -0.00000000

 Results for state 3.1
 =====================

 !MCSCF STATE  3.1 Energy             -77.501941620537
 Nuclear energy                        33.17587954
 Kinetic energy                        78.42206492
 One electron energy                 -168.73712979
 Two electron energy                   58.05930863
 Virial ratio                           1.98826704

 !MCSCF STATE  3.1 Dipole moment        0.00000000     0.00000000    -0.00000000
 Dipole moment /Debye                   0.00000000     0.00000000    -0.00000000

 State-averaged charge density matrix saved on record  2140.2 (density set 1)

 !MCSCF trans         <2.1|DMY|1.1>    -0.000030301488 au =    -0.000077013656 Debye
 !MCSCF trans         <3.1|DMY|2.1>    -0.000046486707 au =    -0.000118149684 Debye

 !MCSCF trans         <2.1|DMZ|1.1>    -1.511862158046 au =    -3.842518623646 Debye
 !MCSCF trans         <3.1|DMZ|2.1>    -2.319407308616 au =    -5.894959227431 Debye


 NATURAL ORBITALS (state averaged)
 =================================

  Orbital  Occupation    Energy     Coefficients
    1.1     2.00000   -11.24160     1 1s    0.70423     2 1s    0.70423
    2.1     2.00000   -11.24045     1 1s    0.70448     2 1s   -0.70448
    3.1     2.00000    -1.03375     1 1s    0.30927     2 1s    0.30927
    4.1     2.00000    -0.80580     1 1s    0.28209     2 1s   -0.28209
    5.1     2.00000    -0.64863     1 2py   0.32751     2 2py   0.32751
    6.1     2.00000    -0.59612     1 2pz   0.40897     2 2pz  -0.40897
    7.1     2.00000    -0.51679     1 2py   0.31402     2 2py  -0.31402
    8.1     1.00000     0.02899     1 2px   0.38042     1 2px   0.67446     2 2px  -0.38042     2 2px  -0.67446
    9.1     1.00000    -0.22073     1 2px   0.35528     1 2px   0.32429     2 2px   0.35528     2 2px   0.32429
   10.1    -0.00000     0.26607     1 1s   -1.51799     1 2pz  -0.65918     2 1s   -1.51799     2 2pz   0.65918     3 1s    1.05756
                                    4 1s    1.05815     5 1s    1.05815     6 1s    1.05756
   11.1    -0.00000     0.29012     1 2py   0.81005     2 2py   0.81005     3 1s   -1.09908     4 1s    1.11224     5 1s   -1.11224
                                    6 1s    1.09908
   12.1    -0.00000     0.30613     1 1s    1.97217     2 1s   -1.97217     3 1s   -1.08106     4 1s   -1.06445     5 1s    1.06445
                                    6 1s    1.08106
   13.1    -0.00000     0.38660     1 2py  -0.25176     1 2py  -1.83167     2 2py   0.25176     2 2py   1.83167     3 1s    1.62848
                                    4 1s   -1.62273     5 1s   -1.62273     6 1s    1.62848
   14.1    -0.00000     0.48350     1 1s   -2.70469     1 2pz   2.85317     2 1s    2.70469     2 2pz   2.85317     3 1s   -0.63078
                                    4 1s   -0.62599     5 1s    0.62599     6 1s    0.63078
   15.1    -0.00000     0.66690     1 2pz  -0.55697     1 2pz   1.01578     2 2pz   0.55697     2 2pz  -1.01578
   16.1    -0.00000     0.74110     1 2py  -0.40982     1 2py   0.77150     2 2py  -0.40982     2 2py   0.77150     3 1s   -0.37753
                                    4 1s    0.37593     5 1s   -0.37593     6 1s    0.37753
   17.1    -0.00000     0.77652     1 2px  -0.75277     1 2px   0.63414     2 2px  -0.75277     2 2px   0.63414
   18.1    -0.00000     0.86150     1 1s   -0.89022     1 1s    1.53424     1 2pz   0.40092     2 1s   -0.89022     2 1s    1.53424
                                    2 2pz  -0.40092     3 1s   -0.39382     3 1s   -0.26885     4 1s   -0.39399     4 1s   -0.26522
                                    5 1s   -0.39399     5 1s   -0.26522     6 1s   -0.39382     6 1s   -0.26885
   19.1    -0.00000     0.87044     1 2px  -0.80106     1 2px   1.09386     2 2px   0.80106     2 2px  -1.09386
   20.1    -0.00000     0.91763     1 1s   -0.50941     1 2pz   0.61918     1 2pz  -0.72381     2 1s    0.50941     2 2pz   0.61918
                                    2 2pz  -0.72381     3 1s    0.37134     4 1s    0.37320     5 1s   -0.37320     6 1s   -0.37134
   21.1    -0.00000     1.11352     1 2py  -0.68177     1 2py   1.09599     2 2py  -0.68177     2 2py   1.09599     3 1s    0.38361
                                    3 1s   -1.06803     4 1s   -0.38842     4 1s    1.07662     5 1s    0.38842     5 1s   -1.07662
                                    6 1s   -0.38361     6 1s    1.06803
   22.1    -0.00000     1.14889     1 2py   0.92030     1 2py  -2.95098     2 2py  -0.92030     2 2py   2.95098     3 1s    1.53056
                                    4 1s   -1.53700     5 1s   -1.53700     6 1s    1.53056
   23.1    -0.00000     1.22147     1 1s    1.02995     1 1s   -1.72836     1 2pz   0.36926     1 2pz  -0.50424     2 1s    1.02995
                                    2 1s   -1.72836     2 2pz  -0.36926     2 2pz   0.50424     3 1s   -0.44441     3 1s    0.88246
                                    4 1s   -0.44534     4 1s    0.85992     5 1s   -0.44534     5 1s    0.85992     6 1s   -0.44441
                                    6 1s    0.88246
   24.1    -0.00000     1.22561     1 1s   -0.34283     1 2pz  -0.64725     1 2pz   1.41542     2 1s    0.34283     2 2pz  -0.64725
                                    2 2pz   1.41542     3 1s    0.49005     3 1s   -0.92657     4 1s    0.48632     4 1s   -0.91538
                                    5 1s   -0.48632     5 1s    0.91538     6 1s   -0.49005     6 1s    0.92657
   25.1    -0.00000     1.30635     1 1s   -1.64098     1 1s    5.24567     1 2pz  -1.66444     2 1s    1.64098     2 1s   -5.24567
                                    2 2pz  -1.66444     3 1s   -0.45729     4 1s   -0.45671     5 1s    0.45671     6 1s    0.45729
   26.1    -0.00000     1.44503     1 2py   2.42057     2 2py  -2.42057     3 1s   -0.69076     3 1s   -0.63165     4 1s    0.68856
                                    4 1s    0.63050     5 1s    0.68856     5 1s    0.63050     6 1s   -0.69076     6 1s   -0.63165
   27.1    -0.00000     1.70616     1 3d1+  0.62202     2 3d1+ -0.62202
   28.1    -0.00000     1.81609     1 3d2-  0.68337     2 3d2-  0.68337
   29.1    -0.00000     2.09530     1 3d2-  0.73350     2 3d2- -0.73350
   30.1    -0.00000     2.20461     1 1s   -0.62018     1 3d2+  0.70636     2 1s   -0.62018     2 3d2+  0.70636     3 1s    0.37204
                                    4 1s    0.37265     5 1s    0.37265     6 1s    0.37204
   31.1    -0.00000     2.32422     1 2py   0.28531     1 3d1-  0.69729     2 2py   0.28531     2 3d1- -0.69729     3 1s   -0.52960
                                    4 1s    0.52915     5 1s   -0.52915     6 1s    0.52960
   32.1    -0.00000     2.36011     1 1s   -0.48374     1 2pz   0.28298     1 2pz  -0.45557     1 3d0   0.67249     2 1s   -0.48374
                                    2 2pz  -0.28298     2 2pz   0.45557     2 3d0   0.67249
   33.1    -0.00000     2.59620     1 1s    0.28043     1 1s   -1.25249     1 3d2+  0.79612     2 1s   -0.28043     2 1s    1.25249
                                    2 3d2+ -0.79612     3 1s    0.45100     4 1s    0.44937     5 1s   -0.44937     6 1s   -0.45100
   34.1    -0.00000     2.66004     1 2px  -0.26104     1 3d1+  0.88873     2 2px   0.26104     2 3d1+  0.88873
   35.1    -0.00000     3.01830     1 1s    2.02898     1 2pz  -0.72303     1 2pz  -1.19550     1 3d0   1.09797     2 1s   -2.02898
                                    2 2pz  -0.72303     2 2pz  -1.19550     2 3d0  -1.09797
   36.1    -0.00000     3.05103     1 2py   0.57724     1 3d1-  0.96132     2 2py  -0.57724     2 3d1-  0.96132     3 1s   -0.49478
                                    4 1s    0.49199     5 1s    0.49199     6 1s   -0.49478


 Natural orbital dump (state averaged) at molpro section  2140.2    (Orbital set 2)



 **********************************************************************************************************************************
 DATASETS  * FILE   NREC   LENGTH (MB)   RECORD NAMES
              1      20       31.36       500      610      700      900      950      970     1000      129      960     1100   
                                          VAR    BASINP    GEOM    SYMINP    ZMAT    AOBASIS   BASIS     P2S    ABASIS      S 
                                         1400     1410     1200     1210     1080     1600     1650     1300     1700     1380   
                                           T        V       H0       H01     AOSYM     SMH    MOLCAS    ERIS     OPER     JKOP   

              2       5        5.42       700     1000      520     2100     2140   
                                         GEOM     BASIS   MCVARS     RHF     MCSCF   

 PROGRAMS   *        TOTAL     MULTI    HF-SCF       INT
 CPU TIMES  *         0.53      0.15      0.09      0.21
 REAL TIME  *         0.83 SEC
 DISK USED  *        38.55 MB
 **********************************************************************************************************************************
 Molecular orbitals read from record     2140.2  Type=MCSCF/NATURAL (state averaged)
 Occupation numbers read from record     2140.2  Type=MCSCF/NATURAL (state averaged)
 Orbital energies read from record       2140.2  Type=MCSCF/NATURAL (state averaged)
 Redundancy group numbers read from rec  2140.2  Type=MCSCF/NATURAL (state averaged)

 MULTI/6-31G* energy=    -77.501941620537

           MULTI          HF-SCF
    -77.50194162    -78.02871502
 **********************************************************************************************************************************
 Molpro calculation terminated
