
 Primary working directories    : /scratch.local/johan406.molpro_temp/molpro.sHThAReKY7
 Secondary working directories  : /scratch.local/johan406.molpro_temp/molpro.sHThAReKY7
 Wavefunction directory         : /home/goodpast/johan406/wfu/
 Main file repository           : /scratch.local/johan406.molpro_temp/molpro.sHThAReKY7/

 id        : roweumn

 Nodes     nprocs
 cn0416       1

 Using customized tuning parameters: mindgm=1; mindgv=20; mindgc=4; mindgr=1; noblas=0; minvec=7
 default implementation of scratch files=df  


 Variables initialized (934), CPU time= 0.00 sec
                                                                                 !leave this line blank
 
 gprint, orbitals=30
 memory, 125., m
 symmetry, nosym
 nelect=16
 basis=6-31g*
 
 geometry={
 C 0.000 0.000 0.686
 C 0.000 -0.000 -0.686
 H 0.000 0.911 1.239
 H 0.000 -0.911 1.239
 H 0.000 0.911 -1.239
 H 0.000 -0.911 -1.239
 }
 
 hf
 {multi,
 closed 7
 occ 9
 wf,spin=0;STATE,3
 }
 
 Commands  initialized (763), CPU time= 0.01 sec, 617 directives.
 Default parameters read. Elapsed time= 0.05 sec

 Checking input...
 Passed
1


                                         ***  PROGRAM SYSTEM MOLPRO  ***
                                       Copyright, TTI GmbH Stuttgart, 2015
                                    Version 2019.2 linked Oct 25 2019 22:50:27


 **********************************************************************************************************************************
 LABEL *                                                                                 
  64 bit serial version                                                                  DATE: 15-Mar-23          TIME: 16:19:15  
 **********************************************************************************************************************************

 SHA1:             8dbd9ae1082e4ce945b0f27595c9eb2d4aa09004
 **********************************************************************************************************************************


 Variable memory set to  125000000 words,  buffer space 

 SETTING NELECT         =        16.00000000                                  
 SETTING BASIS          =    6-31G*
 ZSYMEL=NOSYM


Geometry recognized as XYZ



 Recomputing integrals since basis changed


 Using spherical harmonics

 Library entry C      S 6-31G                selected for orbital group  1
 Library entry C      P 6-31G                selected for orbital group  1
 Library entry C      D 6-31G*               selected for orbital group  1
 Library entry H      S 6-31G                selected for orbital group  2


 PROGRAM * SEWARD (Integral evaluation for generally contracted gaussian basis sets)     Author: Roland Lindh, 1990

 Geometry written to block  1 of record 700


 Point group  C1  



 ATOMIC COORDINATES

 NR  ATOM    CHARGE       X              Y              Z

   1  C       6.00    0.000000000    0.000000000    1.296352121
   2  C       6.00    0.000000000   -0.000000000   -1.296352121
   3  H       1.00    0.000000000    1.721540499    2.341370668
   4  H       1.00    0.000000000   -1.721540499    2.341370668
   5  H       1.00    0.000000000    1.721540499   -2.341370668
   6  H       1.00    0.000000000   -1.721540499   -2.341370668

 Bond lengths in Bohr (Angstrom)

 1-2  2.592704243  1-3  2.013893109  1-4  2.013893109  2-5  2.013893109  2-6  2.013893109
     ( 1.372000000)     ( 1.065706339)     ( 1.065706339)     ( 1.065706339)     ( 1.065706339)

 Bond angles

  1-2-5  121.25880783   1-2-6  121.25880783   2-1-3  121.25880783   2-1-4  121.25880783

  3-1-4  117.48238435   5-2-6  117.48238435

 NUCLEAR CHARGE:                   16
 NUMBER OF PRIMITIVE AOS:          72
 NUMBER OF SYMMETRY AOS:           70
 NUMBER OF CONTRACTIONS:           36   (   36A   )
 NUMBER OF CORE ORBITALS:           2   (    2A   )
 NUMBER OF VALENCE ORBITALS:       12   (   12A   )


 NUCLEAR REPULSION ENERGY   33.11785578

 EXTRA SYMMETRY OF AOS IN SYMMETRY 1:   1 1 1 2 1 1 2 1 1 1   3 2 1 1 1 1 1 2 1 1   2 1 1 1 3 2 1 1 1 1   1 1 1 1 1 1

 Eigenvalues of metric

         1 0.924E-02 0.173E-01 0.371E-01 0.458E-01 0.689E-01 0.211E+00 0.215E+00 0.231E+00


 Contracted 2-electron integrals neglected if value below      1.0D-11
 AO integral compression algorithm  1   Integral accuracy      1.0D-11

     0.786 MB (compressed) written to integral file ( 37.7%)


 NUMBER OF SORTED TWO-ELECTRON INTEGRALS:     222111.     BUFFER LENGTH:  32768
 NUMBER OF SEGMENTS:   1  SEGMENT LENGTH:     222111      RECORD LENGTH: 524288

 Memory used in sort:       0.78 MW

 SORT1 READ      284735. AND WROTE       98263. INTEGRALS IN      1 RECORDS. CPU TIME:     0.00 SEC, REAL TIME:     0.00 SEC
 SORT2 READ       98263. AND WROTE      222111. INTEGRALS IN      3 RECORDS. CPU TIME:     0.02 SEC, REAL TIME:     0.01 SEC

 FILE SIZES:   FILE 1:    30.9 MBYTE,  FILE 4:     4.2 MBYTE,   TOTAL:     35.1 MBYTE

 OPERATOR DM      FOR CENTER  0  COORDINATES:    0.000000    0.000000    0.000000


 **********************************************************************************************************************************
 DATASETS  * FILE   NREC   LENGTH (MB)   RECORD NAMES
              1      19       30.63       500      610      700      900      950      970     1000      129      960     1100   
                                          VAR    BASINP    GEOM    SYMINP    ZMAT    AOBASIS   BASIS     P2S    ABASIS      S 
                                         1400     1410     1200     1210     1080     1600     1650     1300     1700   
                                           T        V       H0       H01     AOSYM     SMH    MOLCAS    ERIS     OPER   

 PROGRAMS   *        TOTAL       INT
 CPU TIMES  *         0.30      0.21
 REAL TIME  *         0.47 SEC
 DISK USED  *        35.45 MB
 **********************************************************************************************************************************


 PROGRAM * RHF-SCF (CLOSED SHELL)       Authors: W. Meyer, H.-J. Werner


 NUMBER OF ELECTRONS:       8+    8-    SPACE SYMMETRY=1    SPIN SYMMETRY: Singlet 
 CONVERGENCE THRESHOLDS:    1.00E-05 (Density)    1.00E-07 (Energy)
 MAX. NUMBER OF ITERATIONS:       60
 INTERPOLATION TYPE:            DIIS
 INTERPOLATION STEPS:              2 (START)      1 (STEP)
 LEVEL SHIFTS:                  0.00 (CLOSED)  0.00 (OPEN) 



 Orbital guess generated from atomic densities. Full valence occupancy:    8

 Molecular orbital dump at record        2100.2

 Initial occupancy:   8

 ITERATION    DDIFF          GRAD             ENERGY        2-EL.EN.            DIPOLE MOMENTS         DIIS   ORB.
    1      0.000D+00      0.000D+00       -78.00449646    118.009105    0.00000    0.00000   -0.00000    0    start
    2      0.000D+00      0.827D-02       -78.02544828    116.356569    0.00000    0.00000    0.00000    1    diag
    3      0.798D-02      0.272D-02       -78.02735318    116.930488    0.00000    0.00000   -0.00000    2    diag
    4      0.248D-02      0.694D-03       -78.02754913    116.830888    0.00000    0.00000   -0.00000    3    diag
    5      0.102D-02      0.643D-04       -78.02755099    116.833610   -0.00000    0.00000    0.00000    4    diag
    6      0.136D-03      0.695D-05       -78.02755102    116.833233   -0.00000   -0.00000   -0.00000    5    diag
    7      0.123D-04      0.105D-05       -78.02755102    116.833241    0.00000    0.00000   -0.00000    6    diag
    8      0.147D-05      0.113D-06       -78.02755102    116.833236    0.00000    0.00000    0.00000    0    orth

 Final occupancy:   8

 !RHF STATE  1.1 Energy               -78.027551015913
 Nuclear energy                        33.11785578
 One-electron energy                 -169.56202457
 Two-electron energy                   58.41661777
 Virial quotient                       -1.00057339
 !RHF STATE  1.1 Dipole moment          0.00000000     0.00000000     0.00000000
 Dipole moment /Debye                   0.00000000     0.00000000     0.00000000

 ELECTRON ORBITALS
 =================

  Orbital  Occupation    Energy     Coefficients
    1.1     2.00000   -11.22776     1 1s    0.70423     2 1s    0.70423
    2.1     2.00000   -11.22641     1 1s    0.70452     2 1s   -0.70452
    3.1     2.00000    -1.01886     1 1s    0.30069     2 1s    0.30069
    4.1     2.00000    -0.79892     2 1s   -0.24229
    5.1     2.00000    -0.63991     1 2py   0.32209     2 2py   0.32209
    6.1     2.00000    -0.57627     1 2pz   0.40751     2 2pz  -0.40751
    7.1     2.00000    -0.51532     1 2py   0.30956     2 2py  -0.30956
    8.1     2.00000    -0.36094     1 2px   0.36997     1 2px   0.31461     2 2px   0.36997     2 2px   0.31461
    9.1     0.00000     0.17075     1 2px   0.34509     1 2px   0.71309     2 2px  -0.34509     2 2px  -0.71309
   10.1     0.00000     0.26744     1 1s   -1.51596     1 2pz  -0.63847     2 1s   -1.51596     2 2pz   0.63847     3 1s    1.05216
                                    4 1s    1.05216     5 1s    1.05216     6 1s    1.05216
   11.1     0.00000     0.30027     1 2py  -0.83618     2 2py  -0.83618     3 1s    1.12975     4 1s   -1.12975     5 1s    1.12975
                                    6 1s   -1.12975
   12.1     0.00000     0.31083     1 1s    1.96978     2 1s   -1.96978     3 1s   -1.08169     4 1s   -1.08169     5 1s    1.08169
                                    6 1s    1.08169
   13.1     0.00000     0.38930     1 2py  -1.85648     2 2py   1.85648     3 1s    1.64682     4 1s   -1.64682     5 1s   -1.64682
                                    6 1s    1.64682
   14.1     0.00000     0.48165     1 1s   -2.60439     1 2pz   2.78813     2 1s    2.60439     2 2pz   2.78813     3 1s   -0.59948
                                    4 1s   -0.59948     5 1s    0.59948     6 1s    0.59948
   15.1     0.00000     0.67912     1 1s    0.30734     1 2pz  -0.56427     1 2pz   1.03176     2 1s    0.30734     2 2pz   0.56427
                                    2 2pz  -1.03176
   16.1     0.00000     0.75372     1 2py  -0.39773     1 2py   0.78858     2 2py  -0.39773     2 2py   0.78858     3 1s   -0.38016
                                    4 1s    0.38016     5 1s   -0.38016     6 1s    0.38016
   17.1     0.00000     0.78444     1 2px  -0.74812     1 2px   0.63969     2 2px  -0.74812     2 2px   0.63969
   18.1     0.00000     0.86165     1 1s   -0.89929     1 1s    1.47507     1 2pz   0.29237     2 1s   -0.89929     2 1s    1.47507
                                    2 2pz  -0.29237     3 1s   -0.38788     4 1s   -0.38788     5 1s   -0.38788     6 1s   -0.38788
   19.1     0.00000     0.88634     1 2px  -0.81518     1 2px   1.06168     2 2px   0.81518     2 2px  -1.06168
   20.1     0.00000     0.93033     1 1s   -0.65305     1 2pz   0.62665     1 2pz  -0.63268     2 1s    0.65305     2 2pz   0.62665
                                    2 2pz  -0.63268     3 1s    0.36420     4 1s    0.36420     5 1s   -0.36420     6 1s   -0.36420
   21.1     0.00000     1.13517     1 2py   0.69836     1 2py  -1.10400     2 2py   0.69836     2 2py  -1.10400     3 1s   -0.38711
                                    3 1s    1.06697     4 1s    0.38711     4 1s   -1.06697     5 1s   -0.38711     5 1s    1.06697
                                    6 1s    0.38711     6 1s   -1.06697
   22.1     0.00000     1.16215     1 2py   0.92438     1 2py  -2.97726     2 2py  -0.92438     2 2py   2.97726     3 1s    1.54868
                                    4 1s   -1.54868     5 1s   -1.54868     6 1s    1.54868
   23.1     0.00000     1.22308     1 1s    1.03929     1 1s   -1.74200     1 2pz   0.36331     1 2pz  -0.49399     2 1s    1.03929
                                    2 1s   -1.74200     2 2pz  -0.36331     2 2pz   0.49399     3 1s   -0.44138     3 1s    0.87286
                                    4 1s   -0.44138     4 1s    0.87286     5 1s   -0.44138     5 1s    0.87286     6 1s   -0.44138
                                    6 1s    0.87286
   24.1     0.00000     1.22529     1 1s   -0.35437     1 2pz  -0.63093     1 2pz   1.39997     2 1s    0.35437     2 2pz  -0.63093
                                    2 2pz   1.39997     3 1s    0.49283     3 1s   -0.92767     4 1s    0.49283     4 1s   -0.92767
                                    5 1s   -0.49283     5 1s    0.92767     6 1s   -0.49283     6 1s    0.92767
   25.1     0.00000     1.32092     1 1s   -1.63916     1 1s    5.21222     1 2pz  -1.67206     2 1s    1.63916     2 1s   -5.21222
                                    2 2pz  -1.67206     3 1s   -0.45616     4 1s   -0.45616     5 1s    0.45616     6 1s    0.45616
   26.1     0.00000     1.46927     1 2py   2.44770     2 2py  -2.44770     3 1s   -0.69609     3 1s   -0.65498     4 1s    0.69609
                                    4 1s    0.65498     5 1s    0.69609     5 1s    0.65498     6 1s   -0.69609     6 1s   -0.65498
   27.1     0.00000     1.72842     1 3d1+  0.62363     2 3d1+ -0.62363
   28.1     0.00000     1.83105     1 3d2-  0.68424     2 3d2-  0.68424
   29.1     0.00000     2.11206     1 3d2-  0.73243     2 3d2- -0.73243
   30.1     0.00000     2.22574     1 1s    0.26171     1 1s   -0.62157     1 3d2+  0.69456     2 1s    0.26171     2 1s   -0.62157
                                    2 3d2+  0.69456     3 1s    0.35816     4 1s    0.35816     5 1s    0.35816     6 1s    0.35816
   31.1     0.00000     2.33811     1 2py   0.27530     1 3d1-  0.70088     2 2py   0.27530     2 3d1- -0.70088     3 1s   -0.52815
                                    4 1s    0.52815     5 1s   -0.52815     6 1s    0.52815
   32.1     0.00000     2.37609     1 1s   -0.47084     1 2pz   0.26498     1 2pz  -0.45148     1 3d0   0.65728     1 3d2+  0.25093
                                    2 1s   -0.47084     2 2pz  -0.26498     2 2pz   0.45148     2 3d0   0.65728     2 3d2+  0.25093
   33.1     0.00000     2.62522     1 1s    0.27860     1 1s   -1.30496     1 2pz   0.26081     1 3d2+  0.79896     2 1s   -0.27860
                                    2 1s    1.30496     2 2pz   0.26081     2 3d2+ -0.79896     3 1s    0.45481     4 1s    0.45481
                                    5 1s   -0.45481     6 1s   -0.45481
   34.1     0.00000     2.67214     1 2px  -0.25849     1 3d1+  0.88264     2 2px   0.25849     2 3d1+  0.88264
   35.1     0.00000     3.02554     1 1s    1.96895     1 2pz  -0.70787     1 2pz  -1.16447     1 3d0   1.08974     2 1s   -1.96895
                                    2 2pz  -0.70787     2 2pz  -1.16447     2 3d0  -1.08974
   36.1     0.00000     3.03915     1 2py   0.60016     1 3d1-  0.95283     2 2py  -0.60016     2 3d1-  0.95283     3 1s   -0.49196
                                    4 1s    0.49196     5 1s    0.49196     6 1s   -0.49196


 HOMO      8.1    -0.360937 =      -9.8216eV
 LUMO      9.1     0.170753 =       4.6464eV
 LUMO-HOMO         0.531690 =      14.4680eV


 **********************************************************************************************************************************
 DATASETS  * FILE   NREC   LENGTH (MB)   RECORD NAMES
              1      19       30.63       500      610      700      900      950      970     1000      129      960     1100   
                                          VAR    BASINP    GEOM    SYMINP    ZMAT    AOBASIS   BASIS     P2S    ABASIS      S 
                                         1400     1410     1200     1210     1080     1600     1650     1300     1700   
                                           T        V       H0       H01     AOSYM     SMH    MOLCAS    ERIS     OPER   

              2       4        2.86       700     1000      520     2100   
                                         GEOM     BASIS   MCVARS     RHF  

 PROGRAMS   *        TOTAL    HF-SCF       INT
 CPU TIMES  *         0.39      0.10      0.21
 REAL TIME  *         0.61 SEC
 DISK USED  *        35.45 MB
 **********************************************************************************************************************************


 PROGRAM * MULTI (Direct Multiconfiguration SCF)       Authors: P.J. Knowles, H.-J. Werner (1984)


 Number of closed-shell orbitals:   7 (   7 )
 Number of active  orbitals:        2 (   2 )
 Number of external orbitals:      27 (  27 )

 State symmetry 1

 Number of electrons:     2    Spin symmetry=Singlet   Space symmetry=1
 Number of states:        3
 Number of CSFs:          3   (4 determinants, 4 intermediate states)

 Molecular orbitals read from record     2100.2  Type=RHF/CANONICAL (state 1.1)

 EXTRA SYMMETRY OF MOS IN SYMMETRY 1:   1 1 1 1 1 1 1 2 2 1   1 1 1 1 1 1 2 1 2 1   1 1 1 1 1 1 2 3 3 1   1 1 1 2 1 1

 Wavefunction dump at record             2140.2

 Convergence thresholds  0.10E-01 (gradient)  0.10E-05 (energy)  0.10E-02 (step length)

 Weight factors for state symmetry  1:    0.33333   0.33333   0.33333

 Number of orbital rotations:      257   (    14 Core/Active    189 Core/Virtual   0 Active/Active     54 Active/Virtual)
 Total number of variables:        269

 Micro-Iterations solved by the two-step solver

 ITER. MIC  NCI  NEG     ENERGY(VAR)     ENERGY(PROJ)   ENERGY CHANGE     GRAD(0)  GRAD(ORB)   GRAD(CI)     STEP       TIME

   1    3    3    0     -77.73931586     -77.74497193   -0.00565607    0.12569934 0.00000118 0.00000000  0.60D-01      0.06
   2    2    3    0     -77.74489050     -77.74489341   -0.00000291    0.00268150 0.00000143 0.00000000  0.14D-02      0.08
   3    2    3    0     -77.74489341     -77.74489341   -0.00000000    0.00000165 0.00000000 0.00000000  0.10D-05      0.11

 ** WVFN ****  CONVERGENCE REACHED, FINAL GRADIENT:  0.72D-12



 Results for state 1.1
 =====================

 !MCSCF STATE  1.1 Energy             -78.047252570155
 Nuclear energy                        33.11785578
 Kinetic energy                        78.03742442
 One electron energy                 -169.66056369
 Two electron energy                   58.49545534
 Virial ratio                           2.00012594

 !MCSCF STATE  1.1 Dipole moment        0.00000000     0.00000000    -0.00000000
 Dipole moment /Debye                   0.00000000     0.00000000    -0.00000000

 Results for state 2.1
 =====================

 !MCSCF STATE  2.1 Energy             -77.679818300861
 Nuclear energy                        33.11785578
 Kinetic energy                        78.22879675
 One electron energy                 -169.15445458
 Two electron energy                   58.35678050
 Virial ratio                           1.99298240

 !MCSCF STATE  2.1 Dipole moment        0.00000000     0.00000000    -0.00000000
 Dipole moment /Debye                   0.00000000     0.00000000    -0.00000000

 Results for state 3.1
 =====================

 !MCSCF STATE  3.1 Energy             -77.507609370507
 Nuclear energy                        33.11785578
 Kinetic energy                        78.42016908
 One electron energy                 -168.64834548
 Two electron energy                   58.02288032
 Virial ratio                           1.98836320

 !MCSCF STATE  3.1 Dipole moment        0.00000000     0.00000000     0.00000000
 Dipole moment /Debye                   0.00000000     0.00000000     0.00000000

 State-averaged charge density matrix saved on record  2140.2 (density set 1)

 !MCSCF trans         <2.1|DMZ|1.1>    -1.512556951043 au =    -3.844284495632 Debye
 !MCSCF trans         <3.1|DMZ|2.1>    -2.338367605400 au =    -5.943148338532 Debye


 NATURAL ORBITALS (state averaged)
 =================================

  Orbital  Occupation    Energy     Coefficients
    1.1     2.00000   -11.24115     1 1s    0.70425     2 1s    0.70425
    2.1     2.00000   -11.24006     1 1s    0.70448     2 1s   -0.70448
    3.1     2.00000    -1.03144     1 1s    0.30843     2 1s    0.30843
    4.1     2.00000    -0.80601     1 1s    0.28154     2 1s   -0.28154
    5.1     2.00000    -0.65142     1 2py   0.32706     2 2py   0.32706
    6.1     2.00000    -0.59065     1 2pz   0.40950     2 2pz  -0.40950
    7.1     2.00000    -0.52134     1 2py   0.31533     2 2py  -0.31533
    8.1     1.00000    -0.21867     1 2px   0.35391     1 2px   0.32656     2 2px   0.35391     2 2px   0.32656
    9.1     1.00000     0.02743     1 2px   0.38062     1 2px   0.66946     2 2px  -0.38062     2 2px  -0.66946
   10.1    -0.00000     0.26494     1 1s   -1.51243     1 2pz  -0.64462     2 1s   -1.51243     2 2pz   0.64462     3 1s    1.05180
                                    4 1s    1.05180     5 1s    1.05180     6 1s    1.05180
   11.1    -0.00000     0.29257     1 2py  -0.82835     2 2py  -0.82835     3 1s    1.12221     4 1s   -1.12221     5 1s    1.12221
                                    6 1s   -1.12221
   12.1    -0.00000     0.30792     1 1s    1.99563     2 1s   -1.99563     3 1s   -1.07530     4 1s   -1.07530     5 1s    1.07530
                                    6 1s    1.07530
   13.1    -0.00000     0.38569     1 2py  -1.84406     2 2py   1.84406     3 1s    1.64074     4 1s   -1.64074     5 1s   -1.64074
                                    6 1s    1.64074
   14.1    -0.00000     0.47854     1 1s   -2.57603     1 2pz   2.76747     2 1s    2.57603     2 2pz   2.76747     3 1s   -0.61076
                                    4 1s   -0.61076     5 1s    0.61076     6 1s    0.61076
   15.1    -0.00000     0.66897     1 2pz  -0.55862     1 2pz   1.00906     2 2pz   0.55862     2 2pz  -1.00906
   16.1    -0.00000     0.74361     1 2py  -0.40821     1 2py   0.79343     2 2py  -0.40821     2 2py   0.79343     3 1s   -0.37617
                                    4 1s    0.37617     5 1s   -0.37617     6 1s    0.37617
   17.1    -0.00000     0.77880     1 2px  -0.75516     1 2px   0.63396     2 2px  -0.75516     2 2px   0.63396
   18.1    -0.00000     0.85869     1 1s   -0.89389     1 1s    1.50394     1 2pz   0.34296     2 1s   -0.89389     2 1s    1.50394
                                    2 2pz  -0.34296     3 1s   -0.39080     3 1s   -0.25198     4 1s   -0.39080     4 1s   -0.25198
                                    5 1s   -0.39080     5 1s   -0.25198     6 1s   -0.39080     6 1s   -0.25198
   19.1    -0.00000     0.86992     1 2px  -0.80027     1 2px   1.08960     2 2px   0.80027     2 2px  -1.08960
   20.1    -0.00000     0.91289     1 1s   -0.50917     1 2pz   0.62855     1 2pz  -0.71007     2 1s    0.50917     2 2pz   0.62855
                                    2 2pz  -0.71007     3 1s    0.36540     4 1s    0.36540     5 1s   -0.36540     6 1s   -0.36540
   21.1    -0.00000     1.12078     1 2py   0.68792     1 2py  -1.10623     2 2py   0.68792     2 2py  -1.10623     3 1s   -0.38722
                                    3 1s    1.07528     4 1s    0.38722     4 1s   -1.07528     5 1s   -0.38722     5 1s    1.07528
                                    6 1s    0.38722     6 1s   -1.07528
   22.1    -0.00000     1.15077     1 2py   0.92173     1 2py  -2.98168     2 2py  -0.92173     2 2py   2.98168     3 1s    1.55588
                                    4 1s   -1.55588     5 1s   -1.55588     6 1s    1.55588
   23.1    -0.00000     1.22047     1 1s    1.03441     1 1s   -1.73776     1 2pz   0.36733     1 2pz  -0.49965     2 1s    1.03441
                                    2 1s   -1.73776     2 2pz  -0.36733     2 2pz   0.49965     3 1s   -0.44182     3 1s    0.87219
                                    4 1s   -0.44182     4 1s    0.87219     5 1s   -0.44182     5 1s    0.87219     6 1s   -0.44182
                                    6 1s    0.87219
   24.1    -0.00000     1.22217     1 1s   -0.39559     1 2pz  -0.64579     1 2pz   1.51377     2 1s    0.39559     2 2pz  -0.64579
                                    2 2pz   1.51377     3 1s    0.49475     3 1s   -0.89342     4 1s    0.49475     4 1s   -0.89342
                                    5 1s   -0.49475     5 1s    0.89342     6 1s   -0.49475     6 1s    0.89342
   25.1    -0.00000     1.30355     1 1s   -1.66104     1 1s    5.20553     1 2pz  -1.56677     2 1s    1.66104     2 1s   -5.20553
                                    2 2pz  -1.56677     3 1s   -0.52181     4 1s   -0.52181     5 1s    0.52181     6 1s    0.52181
   26.1    -0.00000     1.46095     1 2py   2.45045     2 2py  -2.45045     3 1s   -0.69496     3 1s   -0.65583     4 1s    0.69496
                                    4 1s    0.65583     5 1s    0.69496     5 1s    0.65583     6 1s   -0.69496     6 1s   -0.65583
   27.1    -0.00000     1.70484     1 3d1+  0.62343     2 3d1+ -0.62343
   28.1    -0.00000     1.81868     1 3d2-  0.68424     2 3d2-  0.68424
   29.1    -0.00000     2.09053     1 3d2-  0.73243     2 3d2- -0.73243
   30.1    -0.00000     2.21158     1 1s    0.26017     1 1s   -0.61723     1 3d2+  0.69276     2 1s    0.26017     2 1s   -0.61723
                                    2 3d2+  0.69276     3 1s    0.35877     4 1s    0.35877     5 1s    0.35877     6 1s    0.35877
   31.1    -0.00000     2.32324     1 2py   0.28209     1 3d1-  0.69915     2 2py   0.28209     2 3d1- -0.69915     3 1s   -0.53143
                                    4 1s    0.53143     5 1s   -0.53143     6 1s    0.53143
   32.1    -0.00000     2.35724     1 1s   -0.46792     1 2pz   0.26975     1 2pz  -0.45507     1 3d0   0.65587     1 3d2+  0.25477
                                    2 1s   -0.46792     2 2pz  -0.26975     2 2pz   0.45507     2 3d0   0.65587     2 3d2+  0.25477
   33.1    -0.00000     2.60700     1 1s    0.27927     1 1s   -1.31003     1 2pz   0.25949     1 3d2+  0.79823     2 1s   -0.27927
                                    2 1s    1.31003     2 2pz   0.25949     2 3d2+ -0.79823     3 1s    0.45776     4 1s    0.45776
                                    5 1s   -0.45776     6 1s   -0.45776
   34.1    -0.00000     2.65074     1 2px  -0.25901     1 3d1+  0.88299     2 2px   0.25901     2 3d1+  0.88299
   35.1    -0.00000     3.00920     1 1s    1.99202     1 2pz  -0.70071     1 2pz  -1.17650     1 3d0   1.09114     2 1s   -1.99202
                                    2 2pz  -0.70071     2 2pz  -1.17650     2 3d0  -1.09114
   36.1    -0.00000     3.02732     1 2py   0.60034     1 3d1-  0.95241     2 2py  -0.60034     2 3d1-  0.95241     3 1s   -0.49422
                                    4 1s    0.49422     5 1s    0.49422     6 1s   -0.49422


 Natural orbital dump (state averaged) at molpro section  2140.2    (Orbital set 2)



 **********************************************************************************************************************************
 DATASETS  * FILE   NREC   LENGTH (MB)   RECORD NAMES
              1      20       31.36       500      610      700      900      950      970     1000      129      960     1100   
                                          VAR    BASINP    GEOM    SYMINP    ZMAT    AOBASIS   BASIS     P2S    ABASIS      S 
                                         1400     1410     1200     1210     1080     1600     1650     1300     1700     1380   
                                           T        V       H0       H01     AOSYM     SMH    MOLCAS    ERIS     OPER     JKOP   

              2       5        5.42       700     1000      520     2100     2140   
                                         GEOM     BASIS   MCVARS     RHF     MCSCF   

 PROGRAMS   *        TOTAL     MULTI    HF-SCF       INT
 CPU TIMES  *         0.53      0.14      0.10      0.21
 REAL TIME  *         0.81 SEC
 DISK USED  *        38.54 MB
 **********************************************************************************************************************************
 Molecular orbitals read from record     2140.2  Type=MCSCF/NATURAL (state averaged)
 Occupation numbers read from record     2140.2  Type=MCSCF/NATURAL (state averaged)
 Orbital energies read from record       2140.2  Type=MCSCF/NATURAL (state averaged)
 Redundancy group numbers read from rec  2140.2  Type=MCSCF/NATURAL (state averaged)

 MULTI/6-31G* energy=    -77.507609370507

           MULTI          HF-SCF
    -77.50760937    -78.02755102
 **********************************************************************************************************************************
 Molpro calculation terminated
