
 Primary working directories    : /scratch.local/johan406.molpro_temp/molpro.3TVNvP9Ma6
 Secondary working directories  : /scratch.local/johan406.molpro_temp/molpro.3TVNvP9Ma6
 Wavefunction directory         : /home/goodpast/johan406/wfu/
 Main file repository           : /scratch.local/johan406.molpro_temp/molpro.3TVNvP9Ma6/

 id        : roweumn

 Nodes     nprocs
 cn0416       1

 Using customized tuning parameters: mindgm=1; mindgv=20; mindgc=4; mindgr=1; noblas=0; minvec=7
 default implementation of scratch files=df  


 Variables initialized (934), CPU time= 0.00 sec
                                                                                 !leave this line blank
 
 gprint, orbitals=30
 memory, 125., m
 symmetry, nosym
 nelect=16
 basis=6-31g*
 
 geometry={
 C 0.000 0.000 0.670
 C 0.000 -0.000 -0.670
 H 0.000 0.915 1.234
 H 0.000 -0.915 1.234
 H 0.000 0.915 -1.234
 H 0.000 -0.915 -1.234
 }
 
 hf
 {multi,
 closed 7
 occ 9
 wf,spin=0;STATE,3
 }
 
 Commands  initialized (763), CPU time= 0.01 sec, 617 directives.
 Default parameters read. Elapsed time= 0.04 sec

 Checking input...
 Passed
1


                                         ***  PROGRAM SYSTEM MOLPRO  ***
                                       Copyright, TTI GmbH Stuttgart, 2015
                                    Version 2019.2 linked Oct 25 2019 22:50:27


 **********************************************************************************************************************************
 LABEL *                                                                                 
  64 bit serial version                                                                  DATE: 15-Mar-23          TIME: 16:14:23  
 **********************************************************************************************************************************

 SHA1:             8dbd9ae1082e4ce945b0f27595c9eb2d4aa09004
 **********************************************************************************************************************************


 Variable memory set to  125000000 words,  buffer space 

 SETTING NELECT         =        16.00000000                                  
 SETTING BASIS          =    6-31G*
 ZSYMEL=NOSYM


Geometry recognized as XYZ



 Recomputing integrals since basis changed


 Using spherical harmonics

 Library entry C      S 6-31G                selected for orbital group  1
 Library entry C      P 6-31G                selected for orbital group  1
 Library entry C      D 6-31G*               selected for orbital group  1
 Library entry H      S 6-31G                selected for orbital group  2


 PROGRAM * SEWARD (Integral evaluation for generally contracted gaussian basis sets)     Author: Roland Lindh, 1990

 Geometry written to block  1 of record 700


 Point group  C1  



 ATOMIC COORDINATES

 NR  ATOM    CHARGE       X              Y              Z

   1  C       6.00    0.000000000    0.000000000    1.266116503
   2  C       6.00    0.000000000   -0.000000000   -1.266116503
   3  H       1.00    0.000000000    1.729099404    2.331922038
   4  H       1.00    0.000000000   -1.729099404    2.331922038
   5  H       1.00    0.000000000    1.729099404   -2.331922038
   6  H       1.00    0.000000000   -1.729099404   -2.331922038

 Bond lengths in Bohr (Angstrom)

 1-2  2.532233007  1-3  2.031188368  1-4  2.031188368  2-5  2.031188368  2-6  2.031188368
     ( 1.340000000)     ( 1.074858595)     ( 1.074858595)     ( 1.074858595)     ( 1.074858595)

 Bond angles

  1-2-5  121.64940809   1-2-6  121.64940809   2-1-3  121.64940809   2-1-4  121.64940809

  3-1-4  116.70118381   5-2-6  116.70118381

 NUCLEAR CHARGE:                   16
 NUMBER OF PRIMITIVE AOS:          72
 NUMBER OF SYMMETRY AOS:           70
 NUMBER OF CONTRACTIONS:           36   (   36A   )
 NUMBER OF CORE ORBITALS:           2   (    2A   )
 NUMBER OF VALENCE ORBITALS:       12   (   12A   )


 NUCLEAR REPULSION ENERGY   33.39617639

 EXTRA SYMMETRY OF AOS IN SYMMETRY 1:   1 1 1 2 1 1 2 1 1 1   3 2 1 1 1 1 1 2 1 1   2 1 1 1 3 2 1 1 1 1   1 1 1 1 1 1

 Eigenvalues of metric

         1 0.836E-02 0.172E-01 0.377E-01 0.460E-01 0.707E-01 0.194E+00 0.210E+00 0.226E+00


 Contracted 2-electron integrals neglected if value below      1.0D-11
 AO integral compression algorithm  1   Integral accuracy      1.0D-11

     0.786 MB (compressed) written to integral file ( 37.8%)


 NUMBER OF SORTED TWO-ELECTRON INTEGRALS:     222111.     BUFFER LENGTH:  32768
 NUMBER OF SEGMENTS:   1  SEGMENT LENGTH:     222111      RECORD LENGTH: 524288

 Memory used in sort:       0.78 MW

 SORT1 READ      284735. AND WROTE       98271. INTEGRALS IN      1 RECORDS. CPU TIME:     0.00 SEC, REAL TIME:     0.00 SEC
 SORT2 READ       98271. AND WROTE      222111. INTEGRALS IN      3 RECORDS. CPU TIME:     0.02 SEC, REAL TIME:     0.01 SEC

 FILE SIZES:   FILE 1:    30.9 MBYTE,  FILE 4:     4.2 MBYTE,   TOTAL:     35.1 MBYTE

 OPERATOR DM      FOR CENTER  0  COORDINATES:    0.000000    0.000000    0.000000


 **********************************************************************************************************************************
 DATASETS  * FILE   NREC   LENGTH (MB)   RECORD NAMES
              1      19       30.63       500      610      700      900      950      970     1000      129      960     1100   
                                          VAR    BASINP    GEOM    SYMINP    ZMAT    AOBASIS   BASIS     P2S    ABASIS      S 
                                         1400     1410     1200     1210     1080     1600     1650     1300     1700   
                                           T        V       H0       H01     AOSYM     SMH    MOLCAS    ERIS     OPER   

 PROGRAMS   *        TOTAL       INT
 CPU TIMES  *         0.30      0.21
 REAL TIME  *         0.50 SEC
 DISK USED  *        35.45 MB
 **********************************************************************************************************************************


 PROGRAM * RHF-SCF (CLOSED SHELL)       Authors: W. Meyer, H.-J. Werner


 NUMBER OF ELECTRONS:       8+    8-    SPACE SYMMETRY=1    SPIN SYMMETRY: Singlet 
 CONVERGENCE THRESHOLDS:    1.00E-05 (Density)    1.00E-07 (Energy)
 MAX. NUMBER OF ITERATIONS:       60
 INTERPOLATION TYPE:            DIIS
 INTERPOLATION STEPS:              2 (START)      1 (STEP)
 LEVEL SHIFTS:                  0.00 (CLOSED)  0.00 (OPEN) 



 Orbital guess generated from atomic densities. Full valence occupancy:    8

 Molecular orbital dump at record        2100.2

 Initial occupancy:   8

 ITERATION    DDIFF          GRAD             ENERGY        2-EL.EN.            DIPOLE MOMENTS         DIIS   ORB.
    1      0.000D+00      0.000D+00       -78.00648329    118.695062    0.00000   -0.00000   -0.00000    0    start
    2      0.000D+00      0.858D-02       -78.02838738    116.866011    0.00000   -0.00000   -0.00000    1    diag
    3      0.820D-02      0.290D-02       -78.03050003    117.493312    0.00000   -0.00000   -0.00000    2    diag
    4      0.263D-02      0.711D-03       -78.03070836    117.394613    0.00000    0.00000    0.00000    3    diag
    5      0.106D-02      0.675D-04       -78.03071044    117.397496   -0.00000   -0.00000   -0.00000    4    diag
    6      0.145D-03      0.798D-05       -78.03071047    117.397069    0.00000    0.00000    0.00000    5    diag
    7      0.151D-04      0.116D-05       -78.03071047    117.397078    0.00000    0.00000   -0.00000    6    diag
    8      0.174D-05      0.136D-06       -78.03071047    117.397072    0.00000    0.00000   -0.00000    0    orth

 Final occupancy:   8

 !RHF STATE  1.1 Energy               -78.030710467427
 Nuclear energy                        33.39617639
 One-electron energy                 -170.12542267
 Two-electron energy                   58.69853582
 Virial quotient                       -1.00011055
 !RHF STATE  1.1 Dipole moment          0.00000000     0.00000000    -0.00000000
 Dipole moment /Debye                   0.00000000     0.00000000    -0.00000000

 ELECTRON ORBITALS
 =================

  Orbital  Occupation    Energy     Coefficients
    1.1     2.00000   -11.22509     1 1s    0.70419     2 1s    0.70419
    2.1     2.00000   -11.22351     1 1s    0.70454     2 1s   -0.70454
    3.1     2.00000    -1.02653     1 1s    0.30204     2 1s    0.30204
    4.1     2.00000    -0.79252     1 1s    0.24173
    5.1     2.00000    -0.63900     1 2py   0.32176     2 2py   0.32176
    6.1     2.00000    -0.58224     1 2pz   0.40734     2 2pz  -0.40734
    7.1     2.00000    -0.50651     1 2py   0.30573     2 2py  -0.30573
    8.1     2.00000    -0.36876     1 2px   0.37307     1 2px   0.30832     2 2px   0.37307     2 2px   0.30832
    9.1     0.00000     0.17822     1 2px   0.34220     1 2px   0.73283     2 2px  -0.34220     2 2px  -0.73283
   10.1     0.00000     0.26652     1 1s   -1.49832     1 2pz  -0.64627     2 1s   -1.49832     2 2pz   0.64627     3 1s    1.04205
                                    4 1s    1.04205     5 1s    1.04205     6 1s    1.04205
   11.1     0.00000     0.29510     1 2py  -0.25187     1 2py  -0.81279     2 2py  -0.25187     2 2py  -0.81279     3 1s    1.10540
                                    4 1s   -1.10540     5 1s    1.10540     6 1s   -1.10540
   12.1     0.00000     0.30991     1 1s    1.94275     2 1s   -1.94275     3 1s   -1.07782     4 1s   -1.07782     5 1s    1.07782
                                    6 1s    1.07782
   13.1     0.00000     0.39121     1 2py  -1.88153     2 2py   1.88153     3 1s    1.63598     4 1s   -1.63598     5 1s   -1.63598
                                    6 1s    1.63598
   14.1     0.00000     0.49009     1 1s   -2.96632     1 2pz   2.94452     2 1s    2.96632     2 2pz   2.94452     3 1s   -0.59131
                                    4 1s   -0.59131     5 1s    0.59131     6 1s    0.59131
   15.1     0.00000     0.66972     1 1s    0.25206     1 2pz  -0.55630     1 2pz   1.03817     2 1s    0.25206     2 2pz   0.55630
                                    2 2pz  -1.03817
   16.1     0.00000     0.76234     1 2py  -0.39847     1 2py   0.77515     2 2py  -0.39847     2 2py   0.77515     3 1s   -0.38617
                                    4 1s    0.38617     5 1s   -0.38617     6 1s    0.38617
   17.1     0.00000     0.77769     1 2px  -0.74103     1 2px   0.63953     2 2px  -0.74103     2 2px   0.63953
   18.1     0.00000     0.86227     1 1s   -0.88868     1 1s    1.46399     1 2pz   0.33266     2 1s   -0.88868     2 1s    1.46399
                                    2 2pz  -0.33266     3 1s   -0.39478     4 1s   -0.39478     5 1s   -0.39478     6 1s   -0.39478
   19.1     0.00000     0.89033     1 2px  -0.81839     1 2px   1.07315     2 2px   0.81839     2 2px  -1.07315
   20.1     0.00000     0.95326     1 1s   -0.86139     1 2pz   0.60450     1 2pz  -0.47380     2 1s    0.86139     2 2pz   0.60450
                                    2 2pz  -0.47380     3 1s    0.38281     4 1s    0.38281     5 1s   -0.38281     6 1s   -0.38281
   21.1     0.00000     1.11810     1 2py  -0.69070     1 2py   1.10313     2 2py  -0.69070     2 2py   1.10313     3 1s    0.38207
                                    3 1s   -1.06462     4 1s   -0.38207     4 1s    1.06462     5 1s    0.38207     5 1s   -1.06462
                                    6 1s   -0.38207     6 1s    1.06462
   22.1     0.00000     1.16125     1 2py   0.92573     1 2py  -2.95246     2 2py  -0.92573     2 2py   2.95246     3 1s    1.51605
                                    4 1s   -1.51605     5 1s   -1.51605     6 1s    1.51605
   23.1     0.00000     1.21705     1 1s    1.03669     1 1s   -1.72882     1 2pz   0.36600     1 2pz  -0.49600     2 1s    1.03669
                                    2 1s   -1.72882     2 2pz  -0.36600     2 2pz   0.49600     3 1s   -0.44017     3 1s    0.86740
                                    4 1s   -0.44017     4 1s    0.86740     5 1s   -0.44017     5 1s    0.86740     6 1s   -0.44017
                                    6 1s    0.86740
   24.1     0.00000     1.22305     1 1s   -0.51303     1 1s    0.45023     1 2pz  -0.62745     1 2pz   1.25011     2 1s    0.51303
                                    2 1s   -0.45023     2 2pz  -0.62745     2 2pz   1.25011     3 1s    0.47149     3 1s   -0.96785
                                    4 1s    0.47149     4 1s   -0.96785     5 1s   -0.47149     5 1s    0.96785     6 1s   -0.47149
                                    6 1s    0.96785
   25.1     0.00000     1.33754     1 1s   -1.59699     1 1s    5.38227     1 2pz   0.25622     1 2pz  -1.89880     2 1s    1.59699
                                    2 1s   -5.38227     2 2pz   0.25622     2 2pz  -1.89880     3 1s   -0.34334     4 1s   -0.34334
                                    5 1s    0.34334     6 1s    0.34334
   26.1     0.00000     1.47561     1 2py   2.54004     2 2py  -2.54004     3 1s   -0.69798     3 1s   -0.67219     4 1s    0.69798
                                    4 1s    0.67219     5 1s    0.69798     5 1s    0.67219     6 1s   -0.69798     6 1s   -0.67219
   27.1     0.00000     1.73862     1 3d1+  0.61929     2 3d1+ -0.61929
   28.1     0.00000     1.82219     1 3d2-  0.68138     2 3d2-  0.68138
   29.1     0.00000     2.12686     1 3d2-  0.73598     2 3d2- -0.73598
   30.1     0.00000     2.20990     1 1s   -0.60907     1 3d2+  0.71288     2 1s   -0.60907     2 3d2+  0.71288     3 1s    0.37434
                                    4 1s    0.37434     5 1s    0.37434     6 1s    0.37434
   31.1     0.00000     2.33388     1 2py   0.27801     1 3d1-  0.69276     2 2py   0.27801     2 3d1- -0.69276     3 1s   -0.52010
                                    4 1s    0.52010     5 1s   -0.52010     6 1s    0.52010
   32.1     0.00000     2.40649     1 1s   -0.50666     1 2pz   0.28090     1 2pz  -0.44733     1 3d0   0.68794     2 1s   -0.50666
                                    2 2pz  -0.28090     2 2pz   0.44733     2 3d0   0.68794
   33.1     0.00000     2.62838     1 1s    0.29008     1 1s   -1.35248     1 2pz   0.27660     1 3d2+  0.79961     2 1s   -0.29008
                                    2 1s    1.35248     2 2pz   0.27660     2 3d2+ -0.79961     3 1s    0.44655     4 1s    0.44655
                                    5 1s   -0.44655     6 1s   -0.44655
   34.1     0.00000     2.70635     1 2px  -0.26416     1 3d1+  0.90158     2 2px   0.26416     2 3d1+  0.90158
   35.1     0.00000     3.06016     1 1s    0.31037     1 1s    2.01971     1 2pz  -0.79186     1 2pz  -1.17682     1 3d0   1.11074
                                    2 1s   -0.31037     2 1s   -2.01971     2 2pz  -0.79186     2 2pz  -1.17682     2 3d0  -1.11074
   36.1     0.00000     3.06266     1 2py   0.57200     1 3d1-  0.97006     2 2py  -0.57200     2 3d1-  0.97006     3 1s   -0.48008
                                    4 1s    0.48008     5 1s    0.48008     6 1s   -0.48008


 HOMO      8.1    -0.368762 =     -10.0345eV
 LUMO      9.1     0.178218 =       4.8495eV
 LUMO-HOMO         0.546979 =      14.8841eV


 **********************************************************************************************************************************
 DATASETS  * FILE   NREC   LENGTH (MB)   RECORD NAMES
              1      19       30.63       500      610      700      900      950      970     1000      129      960     1100   
                                          VAR    BASINP    GEOM    SYMINP    ZMAT    AOBASIS   BASIS     P2S    ABASIS      S 
                                         1400     1410     1200     1210     1080     1600     1650     1300     1700   
                                           T        V       H0       H01     AOSYM     SMH    MOLCAS    ERIS     OPER   

              2       4        2.86       700     1000      520     2100   
                                         GEOM     BASIS   MCVARS     RHF  

 PROGRAMS   *        TOTAL    HF-SCF       INT
 CPU TIMES  *         0.39      0.10      0.21
 REAL TIME  *         0.64 SEC
 DISK USED  *        35.45 MB
 **********************************************************************************************************************************


 PROGRAM * MULTI (Direct Multiconfiguration SCF)       Authors: P.J. Knowles, H.-J. Werner (1984)


 Number of closed-shell orbitals:   7 (   7 )
 Number of active  orbitals:        2 (   2 )
 Number of external orbitals:      27 (  27 )

 State symmetry 1

 Number of electrons:     2    Spin symmetry=Singlet   Space symmetry=1
 Number of states:        3
 Number of CSFs:          3   (4 determinants, 4 intermediate states)

 Molecular orbitals read from record     2100.2  Type=RHF/CANONICAL (state 1.1)

 EXTRA SYMMETRY OF MOS IN SYMMETRY 1:   1 1 1 1 1 1 1 2 2 1   1 1 1 1 1 1 2 1 2 1   1 1 1 1 1 1 2 3 3 1   1 1 1 2 1 1

 Wavefunction dump at record             2140.2

 Convergence thresholds  0.10E-01 (gradient)  0.10E-05 (energy)  0.10E-02 (step length)

 Weight factors for state symmetry  1:    0.33333   0.33333   0.33333

 Number of orbital rotations:      257   (    14 Core/Active    189 Core/Virtual   0 Active/Active     54 Active/Virtual)
 Total number of variables:        269

 Micro-Iterations solved by the two-step solver

 ITER. MIC  NCI  NEG     ENERGY(VAR)     ENERGY(PROJ)   ENERGY CHANGE     GRAD(0)  GRAD(ORB)   GRAD(CI)     STEP       TIME

   1    3    3    0     -77.73023689     -77.73644822   -0.00621133    0.13224746 0.00000151 0.00000000  0.62D-01      0.06
   2    2    3    0     -77.73635070     -77.73635441   -0.00000372    0.00302285 0.00000183 0.00000000  0.16D-02      0.09
   3    2    3    0     -77.73635441     -77.73635441   -0.00000000    0.00000213 0.00000000 0.00000000  0.13D-05      0.12

 ** WVFN ****  CONVERGENCE REACHED, FINAL GRADIENT:  0.12D-11



 Results for state 1.1
 =====================

 !MCSCF STATE  1.1 Energy             -78.048488126679
 Nuclear energy                        33.39617639
 Kinetic energy                        78.08966523
 One electron energy                 -170.25560224
 Two electron energy                   58.81093773
 Virial ratio                           1.99947269

 !MCSCF STATE  1.1 Dipole moment        0.00000000    -0.00000000     0.00000000
 Dipole moment /Debye                   0.00000000    -0.00000000     0.00000000

 Results for state 2.1
 =====================

 !MCSCF STATE  2.1 Energy             -77.673004076725
 Nuclear energy                        33.39617639
 Kinetic energy                        78.27053793
 One electron energy                 -169.68570385
 Two electron energy                   58.61652339
 Virial ratio                           1.99236579

 !MCSCF STATE  2.1 Dipole moment        0.00000000    -0.00000000     0.00000000
 Dipole moment /Debye                   0.00000000    -0.00000000     0.00000000

 Results for state 3.1
 =====================

 !MCSCF STATE  3.1 Energy             -77.487571039269
 Nuclear energy                        33.39617639
 Kinetic energy                        78.45141063
 One electron energy                 -169.11580545
 Two electron energy                   58.23205803
 Virial ratio                           1.98771418

 !MCSCF STATE  3.1 Dipole moment        0.00000000    -0.00000000    -0.00000000
 Dipole moment /Debye                   0.00000000    -0.00000000    -0.00000000

 State-averaged charge density matrix saved on record  2140.2 (density set 1)

 !MCSCF trans         <2.1|DMZ|1.1>    -1.510647637858 au =    -3.839431823428 Debye
 !MCSCF trans         <3.1|DMZ|2.1>    -2.276948440987 au =    -5.787046618643 Debye


 NATURAL ORBITALS (state averaged)
 =================================

  Orbital  Occupation    Energy     Coefficients
    1.1     2.00000   -11.24072     1 1s    0.70420     2 1s    0.70420
    2.1     2.00000   -11.23941     1 1s    0.70450     2 1s   -0.70450
    3.1     2.00000    -1.04116     1 1s    0.31006     2 1s    0.31006
    4.1     2.00000    -0.80032     1 1s    0.28692     2 1s   -0.28692
    5.1     2.00000    -0.65179     1 2py   0.32741     2 2py   0.32741
    6.1     2.00000    -0.59738     1 2pz   0.40906     2 2pz  -0.40906
    7.1     2.00000    -0.51312     1 2py   0.31219     2 2py  -0.31219
    8.1     1.00000    -0.22499     1 2px   0.35765     1 2px   0.31975     2 2px   0.35765     2 2px   0.31975
    9.1     1.00000     0.03341     1 2px   0.38005     1 2px   0.68600     2 2px  -0.38005     2 2px  -0.68600
   10.1    -0.00000     0.26377     1 1s   -1.49433     1 2pz  -0.65212     2 1s   -1.49433     2 2pz   0.65212     3 1s    1.04159
                                    4 1s    1.04159     5 1s    1.04159     6 1s    1.04159
   11.1    -0.00000     0.28669     1 2py  -0.25022     1 2py  -0.80321     2 2py  -0.25022     2 2py  -0.80321     3 1s    1.09692
                                    4 1s   -1.09692     5 1s    1.09692     6 1s   -1.09692
   12.1    -0.00000     0.30683     1 1s    1.96685     2 1s   -1.96685     3 1s   -1.07229     4 1s   -1.07229     5 1s    1.07229
                                    6 1s    1.07229
   13.1    -0.00000     0.38707     1 2py  -0.25078     1 2py  -1.86724     2 2py   0.25078     2 2py   1.86724     3 1s    1.62919
                                    4 1s   -1.62919     5 1s   -1.62919     6 1s    1.62919
   14.1    -0.00000     0.48733     1 1s   -2.94360     1 2pz   2.92619     2 1s    2.94360     2 2pz   2.92619     3 1s   -0.60072
                                    4 1s   -0.60072     5 1s    0.60072     6 1s    0.60072
   15.1    -0.00000     0.65843     1 1s    0.25232     1 2pz  -0.54851     1 2pz   1.01479     2 1s    0.25232     2 2pz   0.54851
                                    2 2pz  -1.01479
   16.1    -0.00000     0.75181     1 2py  -0.40974     1 2py   0.78228     2 2py  -0.40974     2 2py   0.78228     3 1s   -0.38155
                                    4 1s    0.38155     5 1s   -0.38155     6 1s    0.38155
   17.1    -0.00000     0.77167     1 2px  -0.74766     1 2px   0.63424     2 2px  -0.74766     2 2px   0.63424
   18.1    -0.00000     0.85937     1 1s   -0.88214     1 1s    1.48880     1 2pz   0.38005     2 1s   -0.88214     2 1s    1.48880
                                    2 2pz  -0.38005     3 1s   -0.39660     4 1s   -0.39660     5 1s   -0.39660     6 1s   -0.39660
   19.1    -0.00000     0.87276     1 2px  -0.80285     1 2px   1.10349     2 2px   0.80285     2 2px  -1.10349
   20.1    -0.00000     0.93435     1 1s   -0.70398     1 2pz   0.60893     1 2pz  -0.55774     2 1s    0.70398     2 2pz   0.60893
                                    2 2pz  -0.55774     3 1s    0.38302     4 1s    0.38302     5 1s   -0.38302     6 1s   -0.38302
   21.1    -0.00000     1.10259     1 2py  -0.67914     1 2py   1.10483     2 2py  -0.67914     2 2py   1.10483     3 1s    0.38275
                                    3 1s   -1.07362     4 1s   -0.38275     4 1s    1.07362     5 1s    0.38275     5 1s   -1.07362
                                    6 1s   -0.38275     6 1s    1.07362
   22.1    -0.00000     1.14871     1 2py   0.92277     1 2py  -2.95731     2 2py  -0.92277     2 2py   2.95731     3 1s    1.52398
                                    4 1s   -1.52398     5 1s   -1.52398     6 1s    1.52398
   23.1    -0.00000     1.21381     1 1s    1.03180     1 1s   -1.72491     1 2pz   0.36966     1 2pz  -0.50165     2 1s    1.03180
                                    2 1s   -1.72491     2 2pz  -0.36966     2 2pz   0.50165     3 1s   -0.44069     3 1s    0.86699
                                    4 1s   -0.44069     4 1s    0.86699     5 1s   -0.44069     5 1s    0.86699     6 1s   -0.44069
                                    6 1s    0.86699
   24.1    -0.00000     1.22058     1 1s   -0.44471     1 2pz  -0.64149     1 2pz   1.33130     2 1s    0.44471     2 2pz  -0.64149
                                    2 2pz   1.33130     3 1s    0.47423     3 1s   -0.95237     4 1s    0.47423     4 1s   -0.95237
                                    5 1s   -0.47423     5 1s    0.95237     6 1s   -0.47423     6 1s    0.95237
   25.1    -0.00000     1.31794     1 1s   -1.61942     1 1s    5.40954     1 2pz  -1.84225     2 1s    1.61942     2 1s   -5.40954
                                    2 2pz  -1.84225     3 1s   -0.38644     4 1s   -0.38644     5 1s    0.38644     6 1s    0.38644
   26.1    -0.00000     1.46700     1 2py   2.54367     2 2py  -2.54367     3 1s   -0.69681     3 1s   -0.67350     4 1s    0.69681
                                    4 1s    0.67350     5 1s    0.69681     5 1s    0.67350     6 1s   -0.69681     6 1s   -0.67350
   27.1    -0.00000     1.71300     1 3d1+  0.61902     2 3d1+ -0.61902
   28.1    -0.00000     1.80838     1 3d2-  0.68138     2 3d2-  0.68138
   29.1    -0.00000     2.10381     1 3d2-  0.73598     2 3d2- -0.73598
   30.1    -0.00000     2.19452     1 1s   -0.60493     1 3d2+  0.71236     2 1s   -0.60493     2 3d2+  0.71236     3 1s    0.37620
                                    4 1s    0.37620     5 1s    0.37620     6 1s    0.37620
   31.1    -0.00000     2.31771     1 2py   0.28489     1 3d1-  0.69099     2 2py   0.28489     2 3d1- -0.69099     3 1s   -0.52350
                                    4 1s    0.52350     5 1s   -0.52350     6 1s    0.52350
   32.1    -0.00000     2.38640     1 1s   -0.50470     1 2pz   0.28676     1 2pz  -0.45016     1 3d0   0.68768     2 1s   -0.50470
                                    2 2pz  -0.28676     2 2pz   0.45016     2 3d0   0.68768
   33.1    -0.00000     2.60869     1 1s    0.29092     1 1s   -1.35841     1 2pz   0.27542     1 3d2+  0.79885     2 1s   -0.29092
                                    2 1s    1.35841     2 2pz   0.27542     2 3d2+ -0.79885     3 1s    0.44963     4 1s    0.44963
                                    5 1s   -0.44963     6 1s   -0.44963
   34.1    -0.00000     2.68385     1 2px  -0.26491     1 3d1+  0.90197     2 2px   0.26491     2 3d1+  0.90197
   35.1    -0.00000     3.04219     1 1s    0.30328     1 1s    2.04530     1 2pz  -0.78435     1 2pz  -1.19018     1 3d0   1.11238
                                    2 1s   -0.30328     2 1s   -2.04530     2 2pz  -0.78435     2 2pz  -1.19018     2 3d0  -1.11238
   36.1    -0.00000     3.04990     1 2py   0.57215     1 3d1-  0.96967     2 2py  -0.57215     2 3d1-  0.96967     3 1s   -0.48238
                                    4 1s    0.48238     5 1s    0.48238     6 1s   -0.48238


 Natural orbital dump (state averaged) at molpro section  2140.2    (Orbital set 2)



 **********************************************************************************************************************************
 DATASETS  * FILE   NREC   LENGTH (MB)   RECORD NAMES
              1      20       31.36       500      610      700      900      950      970     1000      129      960     1100   
                                          VAR    BASINP    GEOM    SYMINP    ZMAT    AOBASIS   BASIS     P2S    ABASIS      S 
                                         1400     1410     1200     1210     1080     1600     1650     1300     1700     1380   
                                           T        V       H0       H01     AOSYM     SMH    MOLCAS    ERIS     OPER     JKOP   

              2       5        5.42       700     1000      520     2100     2140   
                                         GEOM     BASIS   MCVARS     RHF     MCSCF   

 PROGRAMS   *        TOTAL     MULTI    HF-SCF       INT
 CPU TIMES  *         0.54      0.15      0.10      0.21
 REAL TIME  *         0.84 SEC
 DISK USED  *        38.55 MB
 **********************************************************************************************************************************
 Molecular orbitals read from record     2140.2  Type=MCSCF/NATURAL (state averaged)
 Occupation numbers read from record     2140.2  Type=MCSCF/NATURAL (state averaged)
 Orbital energies read from record       2140.2  Type=MCSCF/NATURAL (state averaged)
 Redundancy group numbers read from rec  2140.2  Type=MCSCF/NATURAL (state averaged)

 MULTI/6-31G* energy=    -77.487571039269

           MULTI          HF-SCF
    -77.48757104    -78.03071047
 **********************************************************************************************************************************
 Molpro calculation terminated
