
 Primary working directories    : /scratch.local/johan406.molpro_temp/molpro.w3Ly3fTBuf
 Secondary working directories  : /scratch.local/johan406.molpro_temp/molpro.w3Ly3fTBuf
 Wavefunction directory         : /home/goodpast/johan406/wfu/
 Main file repository           : /scratch.local/johan406.molpro_temp/molpro.w3Ly3fTBuf/

 id        : roweumn

 Nodes     nprocs
 cn0416       1

 Using customized tuning parameters: mindgm=1; mindgv=20; mindgc=4; mindgr=1; noblas=0; minvec=7
 default implementation of scratch files=df  


 Variables initialized (934), CPU time= 0.00 sec
                                                                                 !leave this line blank
 
 gprint, orbitals=30
 memory, 125., m
 symmetry, nosym
 nelect=16
 basis=6-31g*
 
 geometry={
 C 0.000 0.000 0.694
 C 0.000 -0.000 -0.694
 H 0.000 0.900 1.257
 H 0.000 -0.900 1.257
 H 0.000 0.900 -1.257
 H 0.000 -0.900 -1.257
 }
 
 hf
 {multi,
 closed 7
 occ 9
 wf,spin=0;STATE,3
 }
 
 Commands  initialized (763), CPU time= 0.00 sec, 617 directives.
 Default parameters read. Elapsed time= 0.05 sec

 Checking input...
 Passed
1


                                         ***  PROGRAM SYSTEM MOLPRO  ***
                                       Copyright, TTI GmbH Stuttgart, 2015
                                    Version 2019.2 linked Oct 25 2019 22:50:27


 **********************************************************************************************************************************
 LABEL *                                                                                 
  64 bit serial version                                                                  DATE: 15-Mar-23          TIME: 16:21:34  
 **********************************************************************************************************************************

 SHA1:             8dbd9ae1082e4ce945b0f27595c9eb2d4aa09004
 **********************************************************************************************************************************


 Variable memory set to  125000000 words,  buffer space 

 SETTING NELECT         =        16.00000000                                  
 SETTING BASIS          =    6-31G*
 ZSYMEL=NOSYM


Geometry recognized as XYZ



 Recomputing integrals since basis changed


 Using spherical harmonics

 Library entry C      S 6-31G                selected for orbital group  1
 Library entry C      P 6-31G                selected for orbital group  1
 Library entry C      D 6-31G*               selected for orbital group  1
 Library entry H      S 6-31G                selected for orbital group  2


 PROGRAM * SEWARD (Integral evaluation for generally contracted gaussian basis sets)     Author: Roland Lindh, 1990

 Geometry written to block  1 of record 700


 Point group  C1  



 ATOMIC COORDINATES

 NR  ATOM    CHARGE       X              Y              Z

   1  C       6.00    0.000000000    0.000000000    1.311469930
   2  C       6.00    0.000000000   -0.000000000   -1.311469930
   3  H       1.00    0.000000000    1.700753512    2.375385739
   4  H       1.00    0.000000000   -1.700753512    2.375385739
   5  H       1.00    0.000000000    1.700753512   -2.375385739
   6  H       1.00    0.000000000   -1.700753512   -2.375385739

 Bond lengths in Bohr (Angstrom)

 1-2  2.622939861  1-3  2.006110504  1-4  2.006110504  2-5  2.006110504  2-6  2.006110504
     ( 1.388000000)     ( 1.061587961)     ( 1.061587961)     ( 1.061587961)     ( 1.061587961)

 Bond angles

  1-2-5  122.02826719   1-2-6  122.02826719   2-1-3  122.02826719   2-1-4  122.02826719

  3-1-4  115.94346561   5-2-6  115.94346561

 NUCLEAR CHARGE:                   16
 NUMBER OF PRIMITIVE AOS:          72
 NUMBER OF SYMMETRY AOS:           70
 NUMBER OF CONTRACTIONS:           36   (   36A   )
 NUMBER OF CORE ORBITALS:           2   (    2A   )
 NUMBER OF VALENCE ORBITALS:       12   (   12A   )


 NUCLEAR REPULSION ENERGY   32.95075297

 EXTRA SYMMETRY OF AOS IN SYMMETRY 1:   1 1 1 2 1 1 2 1 1 1   3 2 1 1 1 1 1 2 1 1   2 1 1 1 3 2 1 1 1 1   1 1 1 1 1 1

 Eigenvalues of metric

         1 0.982E-02 0.179E-01 0.358E-01 0.443E-01 0.696E-01 0.210E+00 0.227E+00 0.231E+00


 Contracted 2-electron integrals neglected if value below      1.0D-11
 AO integral compression algorithm  1   Integral accuracy      1.0D-11

     0.786 MB (compressed) written to integral file ( 37.5%)


 NUMBER OF SORTED TWO-ELECTRON INTEGRALS:     222111.     BUFFER LENGTH:  32768
 NUMBER OF SEGMENTS:   1  SEGMENT LENGTH:     222111      RECORD LENGTH: 524288

 Memory used in sort:       0.78 MW

 SORT1 READ      284735. AND WROTE       98247. INTEGRALS IN      1 RECORDS. CPU TIME:     0.00 SEC, REAL TIME:     0.00 SEC
 SORT2 READ       98247. AND WROTE      222111. INTEGRALS IN      3 RECORDS. CPU TIME:     0.02 SEC, REAL TIME:     0.02 SEC

 FILE SIZES:   FILE 1:    30.9 MBYTE,  FILE 4:     4.2 MBYTE,   TOTAL:     35.1 MBYTE

 OPERATOR DM      FOR CENTER  0  COORDINATES:    0.000000    0.000000    0.000000


 **********************************************************************************************************************************
 DATASETS  * FILE   NREC   LENGTH (MB)   RECORD NAMES
              1      19       30.63       500      610      700      900      950      970     1000      129      960     1100   
                                          VAR    BASINP    GEOM    SYMINP    ZMAT    AOBASIS   BASIS     P2S    ABASIS      S 
                                         1400     1410     1200     1210     1080     1600     1650     1300     1700   
                                           T        V       H0       H01     AOSYM     SMH    MOLCAS    ERIS     OPER   

 PROGRAMS   *        TOTAL       INT
 CPU TIMES  *         0.30      0.22
 REAL TIME  *         0.50 SEC
 DISK USED  *        35.45 MB
 **********************************************************************************************************************************


 PROGRAM * RHF-SCF (CLOSED SHELL)       Authors: W. Meyer, H.-J. Werner


 NUMBER OF ELECTRONS:       8+    8-    SPACE SYMMETRY=1    SPIN SYMMETRY: Singlet 
 CONVERGENCE THRESHOLDS:    1.00E-05 (Density)    1.00E-07 (Energy)
 MAX. NUMBER OF ITERATIONS:       60
 INTERPOLATION TYPE:            DIIS
 INTERPOLATION STEPS:              2 (START)      1 (STEP)
 LEVEL SHIFTS:                  0.00 (CLOSED)  0.00 (OPEN) 



 Orbital guess generated from atomic densities. Full valence occupancy:    8

 Molecular orbital dump at record        2100.2

 Initial occupancy:   8

 ITERATION    DDIFF          GRAD             ENERGY        2-EL.EN.            DIPOLE MOMENTS         DIIS   ORB.
    1      0.000D+00      0.000D+00       -78.00226157    117.598729   -0.00000   -0.00000   -0.00000    0    start
    2      0.000D+00      0.811D-02       -78.02283373    116.030991    0.00000   -0.00000    0.00000    1    diag
    3      0.788D-02      0.265D-02       -78.02466258    116.580847   -0.00000    0.00000    0.00000    2    diag
    4      0.242D-02      0.687D-03       -78.02485434    116.480435    0.00000   -0.00000   -0.00000    3    diag
    5      0.101D-02      0.634D-04       -78.02485614    116.483169   -0.00000    0.00000   -0.00000    4    diag
    6      0.132D-03      0.683D-05       -78.02485616    116.482805   -0.00000   -0.00000    0.00000    5    diag
    7      0.116D-04      0.106D-05       -78.02485616    116.482813   -0.00000    0.00000    0.00000    6    diag
    8      0.154D-05      0.115D-06       -78.02485616    116.482808   -0.00000   -0.00000    0.00000    0    orth

 Final occupancy:   8

 !RHF STATE  1.1 Energy               -78.024856159817
 Nuclear energy                        32.95075297
 One-electron energy                 -169.21701326
 Two-electron energy                   58.24140414
 Virial quotient                       -1.00081948
 !RHF STATE  1.1 Dipole moment         -0.00000000    -0.00000000     0.00000000
 Dipole moment /Debye                  -0.00000000    -0.00000000     0.00000000

 ELECTRON ORBITALS
 =================

  Orbital  Occupation    Energy     Coefficients
    1.1     2.00000   -11.22995     1 1s    0.70425     2 1s    0.70425
    2.1     2.00000   -11.22870     1 1s    0.70450     2 1s   -0.70450
    3.1     2.00000    -1.01459     1 1s    0.30041     2 1s    0.30041
    4.1     2.00000    -0.80459     1 1s    0.24316
    5.1     2.00000    -0.63667     1 2py   0.32275     2 2py   0.32275
    6.1     2.00000    -0.57804     1 2pz   0.40694     2 2pz  -0.40694
    7.1     2.00000    -0.51711     1 2py   0.31093     2 2py  -0.31093
    8.1     2.00000    -0.35745     1 2px   0.36883     1 2px   0.31738     2 2px   0.36883     2 2px   0.31738
    9.1     0.00000     0.16664     1 2px   0.34650     1 2px   0.70355     2 2px  -0.34650     2 2px  -0.70355
   10.1     0.00000     0.26987     1 1s   -1.54126     1 2pz  -0.65192     2 1s   -1.54126     2 2pz   0.65192     3 1s    1.07061
                                    4 1s    1.07061     5 1s    1.07061     6 1s    1.07061
   11.1     0.00000     0.30199     1 2py  -0.83322     2 2py  -0.83322     3 1s    1.13015     4 1s   -1.13015     5 1s    1.13015
                                    6 1s   -1.13015
   12.1     0.00000     0.30916     1 1s    1.96450     2 1s   -1.96450     3 1s   -1.08112     4 1s   -1.08112     5 1s    1.08112
                                    6 1s    1.08112
   13.1     0.00000     0.38912     1 2py  -1.81816     2 2py   1.81816     3 1s    1.63698     4 1s   -1.63698     5 1s   -1.63698
                                    6 1s    1.63698
   14.1     0.00000     0.48049     1 1s   -2.45191     1 2pz   2.76312     2 1s    2.45191     2 2pz   2.76312     3 1s   -0.63457
                                    4 1s   -0.63457     5 1s    0.63457     6 1s    0.63457
   15.1     0.00000     0.68639     1 1s    0.32911     1 2pz  -0.57134     1 2pz   1.04003     2 1s    0.32911     2 2pz   0.57134
                                    2 2pz  -1.04003
   16.1     0.00000     0.74211     1 2py  -0.39872     1 2py   0.76913     2 2py  -0.39872     2 2py   0.76913     3 1s   -0.37581
                                    4 1s    0.37581     5 1s   -0.37581     6 1s    0.37581
   17.1     0.00000     0.78727     1 2px  -0.75127     1 2px   0.63988     2 2px  -0.75127     2 2px   0.63988
   18.1     0.00000     0.86448     1 1s   -0.90603     1 1s    1.53236     1 2pz   0.33762     2 1s   -0.90603     2 1s    1.53236
                                    2 2pz  -0.33762     3 1s   -0.38680     3 1s   -0.26934     4 1s   -0.38680     4 1s   -0.26934
                                    5 1s   -0.38680     5 1s   -0.26934     6 1s   -0.38680     6 1s   -0.26934
   19.1     0.00000     0.88399     1 2px  -0.81363     1 2px   1.05615     2 2px   0.81363     2 2px  -1.05615
   20.1     0.00000     0.91624     1 1s   -0.49490     1 2pz   0.62929     1 2pz  -0.78243     2 1s    0.49490     2 2pz   0.62929
                                    2 2pz  -0.78243     3 1s    0.35880     4 1s    0.35880     5 1s   -0.35880     6 1s   -0.35880
   21.1     0.00000     1.14140     1 2py   0.69742     1 2py  -1.09102     2 2py   0.69742     2 2py  -1.09102     3 1s   -0.38985
                                    3 1s    1.06507     4 1s    0.38985     4 1s   -1.06507     5 1s   -0.38985     5 1s    1.06507
                                    6 1s    0.38985     6 1s   -1.06507
   22.1     0.00000     1.16105     1 2py   0.92116     1 2py  -2.96287     2 2py  -0.92116     2 2py   2.96287     3 1s    1.54935
                                    4 1s   -1.54935     5 1s   -1.54935     6 1s    1.54935
   23.1     0.00000     1.23078     1 1s    1.03546     1 1s   -1.74123     1 2pz   0.36434     1 2pz  -0.49906     2 1s    1.03546
                                    2 1s   -1.74123     2 2pz  -0.36434     2 2pz   0.49906     3 1s   -0.44683     3 1s    0.87650
                                    4 1s   -0.44683     4 1s    0.87650     5 1s   -0.44683     5 1s    0.87650     6 1s   -0.44683
                                    6 1s    0.87650
   24.1     0.00000     1.23145     1 1s   -0.29652     1 2pz  -0.63673     1 2pz   1.43017     2 1s    0.29652     2 2pz  -0.63673
                                    2 2pz   1.43017     3 1s    0.50065     3 1s   -0.90353     4 1s    0.50065     4 1s   -0.90353
                                    5 1s   -0.50065     5 1s    0.90353     6 1s   -0.50065     6 1s    0.90353
   25.1     0.00000     1.31224     1 1s   -1.64663     1 1s    5.07503     1 2pz  -1.54142     2 1s    1.64663     2 1s   -5.07503
                                    2 2pz  -1.54142     3 1s   -0.49706     4 1s   -0.49706     5 1s    0.49706     6 1s    0.49706
   26.1     0.00000     1.44092     1 2py   2.31249     2 2py  -2.31249     3 1s   -0.68721     3 1s   -0.59930     4 1s    0.68721
                                    4 1s    0.59930     5 1s    0.68721     5 1s    0.59930     6 1s   -0.68721     6 1s   -0.59930
   27.1     0.00000     1.72286     1 3d1+  0.62592     2 3d1+ -0.62592
   28.1     0.00000     1.83607     1 3d2-  0.68557     2 3d2-  0.68557
   29.1     0.00000     2.10576     1 3d2-  0.73081     2 3d2- -0.73081
   30.1     0.00000     2.22950     1 1s    0.27572     1 1s   -0.63524     1 3d2+  0.68324     2 1s    0.27572     2 1s   -0.63524
                                    2 3d2+  0.68324     3 1s    0.35225     4 1s    0.35225     5 1s    0.35225     6 1s    0.35225
   31.1     0.00000     2.34582     1 2py   0.27790     1 3d1-  0.70634     2 2py   0.27790     2 3d1- -0.70634     3 1s   -0.53305
                                    4 1s    0.53305     5 1s   -0.53305     6 1s    0.53305
   32.1     0.00000     2.35276     1 1s   -0.44883     1 2pz   0.26036     1 2pz  -0.46192     1 3d0   0.64094     1 3d2+  0.28336
                                    2 1s   -0.44883     2 2pz  -0.26036     2 2pz   0.46192     2 3d0   0.64094     2 3d2+  0.28336
   33.1     0.00000     2.60832     1 1s    0.26828     1 1s   -1.18654     1 3d2+  0.79568     2 1s   -0.26828     2 1s    1.18654
                                    2 3d2+ -0.79568     3 1s    0.45221     4 1s    0.45221     5 1s   -0.45221     6 1s   -0.45221
   34.1     0.00000     2.65366     1 2px  -0.25588     1 3d1+  0.87377     2 2px   0.25588     2 3d1+  0.87377
   35.1     0.00000     3.00914     1 1s    1.96730     1 2pz  -0.66444     1 2pz  -1.17617     1 3d0   1.07962     2 1s   -1.96730
                                    2 2pz  -0.66444     2 2pz  -1.17617     2 3d0  -1.07962
   36.1     0.00000     3.05164     1 2py   0.59304     1 3d1-  0.95029     2 2py  -0.59304     2 3d1-  0.95029     3 1s   -0.50209
                                    4 1s    0.50209     5 1s    0.50209     6 1s   -0.50209


 HOMO      8.1    -0.357450 =      -9.7267eV
 LUMO      9.1     0.166641 =       4.5345eV
 LUMO-HOMO         0.524092 =      14.2613eV


 **********************************************************************************************************************************
 DATASETS  * FILE   NREC   LENGTH (MB)   RECORD NAMES
              1      19       30.63       500      610      700      900      950      970     1000      129      960     1100   
                                          VAR    BASINP    GEOM    SYMINP    ZMAT    AOBASIS   BASIS     P2S    ABASIS      S 
                                         1400     1410     1200     1210     1080     1600     1650     1300     1700   
                                           T        V       H0       H01     AOSYM     SMH    MOLCAS    ERIS     OPER   

              2       4        2.86       700     1000      520     2100   
                                         GEOM     BASIS   MCVARS     RHF  

 PROGRAMS   *        TOTAL    HF-SCF       INT
 CPU TIMES  *         0.39      0.09      0.22
 REAL TIME  *         0.63 SEC
 DISK USED  *        35.45 MB
 **********************************************************************************************************************************


 PROGRAM * MULTI (Direct Multiconfiguration SCF)       Authors: P.J. Knowles, H.-J. Werner (1984)


 Number of closed-shell orbitals:   7 (   7 )
 Number of active  orbitals:        2 (   2 )
 Number of external orbitals:      27 (  27 )

 State symmetry 1

 Number of electrons:     2    Spin symmetry=Singlet   Space symmetry=1
 Number of states:        3
 Number of CSFs:          3   (4 determinants, 4 intermediate states)

 Molecular orbitals read from record     2100.2  Type=RHF/CANONICAL (state 1.1)

 EXTRA SYMMETRY OF MOS IN SYMMETRY 1:   1 1 1 1 1 1 1 2 2 1   1 1 1 1 1 1 2 1 2 1   1 1 1 1 1 1 2 3 3 1   1 1 1 2 1 1

 Wavefunction dump at record             2140.2

 Convergence thresholds  0.10E-01 (gradient)  0.10E-05 (energy)  0.10E-02 (step length)

 Weight factors for state symmetry  1:    0.33333   0.33333   0.33333

 Number of orbital rotations:      257   (    14 Core/Active    189 Core/Virtual   0 Active/Active     54 Active/Virtual)
 Total number of variables:        269

 Micro-Iterations solved by the two-step solver

 ITER. MIC  NCI  NEG     ENERGY(VAR)     ENERGY(PROJ)   ENERGY CHANGE     GRAD(0)  GRAD(ORB)   GRAD(CI)     STEP       TIME

   1    3    3    0     -77.74265581     -77.74807743   -0.00542162    0.12277402 0.00000106 0.00000000  0.59D-01      0.06
   2    2    3    0     -77.74800248     -77.74800508   -0.00000260    0.00253885 0.00000128 0.00000000  0.13D-02      0.09
   3    2    3    0     -77.74800508     -77.74800508   -0.00000000    0.00000147 0.00000000 0.00000000  0.89D-06      0.12

 ** WVFN ****  CONVERGENCE REACHED, FINAL GRADIENT:  0.57D-12



 Results for state 1.1
 =====================

 !MCSCF STATE  1.1 Energy             -78.045551602362
 Nuclear energy                        32.95075297
 Kinetic energy                        78.00920592
 One electron energy                 -169.30206307
 Two electron energy                   58.30575850
 Virial ratio                           2.00046592

 !MCSCF STATE  1.1 Dipole moment        0.00000000     0.00000000    -0.00000000
 Dipole moment /Debye                   0.00000000     0.00000000    -0.00000000

 Results for state 2.1
 =====================

 !MCSCF STATE  2.1 Energy             -77.682086008823
 Nuclear energy                        32.95075297
 Kinetic energy                        78.20434522
 One electron energy                 -168.82697464
 Two electron energy                   58.19413566
 Virial ratio                           1.99332186

 !MCSCF STATE  2.1 Dipole moment        0.00000000     0.00000000    -0.00000000
 Dipole moment /Debye                   0.00000000     0.00000000    -0.00000000

 Results for state 3.1
 =====================

 !MCSCF STATE  3.1 Energy             -77.516377621892
 Nuclear energy                        32.95075297
 Kinetic energy                        78.39948453
 One electron energy                 -168.35188620
 Two electron energy                   57.88475561
 Virial ratio                           1.98873581

 !MCSCF STATE  3.1 Dipole moment        0.00000000     0.00000000    -0.00000000
 Dipole moment /Debye                   0.00000000     0.00000000    -0.00000000

 State-averaged charge density matrix saved on record  2140.2 (density set 1)

 !MCSCF trans         <2.1|DMZ|1.1>    -1.512235343168 au =    -3.843467103490 Debye
 !MCSCF trans         <3.1|DMZ|2.1>    -2.369885987294 au =    -6.023254827587 Debye


 NATURAL ORBITALS (state averaged)
 =================================

  Orbital  Occupation    Energy     Coefficients
    1.1     2.00000   -11.24221     1 1s    0.70427     2 1s    0.70427
    2.1     2.00000   -11.24120     1 1s    0.70447     2 1s   -0.70447
    3.1     2.00000    -1.02605     1 1s    0.30802     2 1s    0.30802
    4.1     2.00000    -0.81116     1 1s    0.27748     2 1s   -0.27748
    5.1     2.00000    -0.64743     1 2py   0.32751     2 2py   0.32751
    6.1     2.00000    -0.59197     1 2pz   0.40907     2 2pz  -0.40907
    7.1     2.00000    -0.52265     1 2py   0.31643     2 2py  -0.31643
    8.1     1.00000     0.02413     1 2px   0.38082     1 2px   0.66156     2 2px  -0.38082     2 2px  -0.66156
    9.1     1.00000    -0.21583     1 2px   0.35243     1 2px   0.32962     2 2px   0.35243     2 2px   0.32962
   10.1    -0.00000     0.26765     1 1s   -1.53832     1 2pz  -0.65826     2 1s   -1.53832     2 2pz   0.65826     3 1s    1.07046
                                    4 1s    1.07046     5 1s    1.07046     6 1s    1.07046
   11.1    -0.00000     0.29460     1 2py  -0.82622     2 2py  -0.82622     3 1s    1.12306     4 1s   -1.12306     5 1s    1.12306
                                    6 1s   -1.12306
   12.1    -0.00000     0.30636     1 1s    1.99112     2 1s   -1.99112     3 1s   -1.07387     4 1s   -1.07387     5 1s    1.07387
                                    6 1s    1.07387
   13.1    -0.00000     0.38578     1 2py  -0.25135     1 2py  -1.80660     2 2py   0.25135     2 2py   1.80660     3 1s    1.63121
                                    4 1s   -1.63121     5 1s   -1.63121     6 1s    1.63121
   14.1    -0.00000     0.47687     1 1s   -2.41930     1 2pz   2.73945     2 1s    2.41930     2 2pz   2.73945     3 1s   -0.64659
                                    4 1s   -0.64659     5 1s    0.64659     6 1s    0.64659
   15.1    -0.00000     0.67611     1 2pz  -0.56565     1 2pz   1.01495     2 2pz   0.56565     2 2pz  -1.01495
   16.1    -0.00000     0.73250     1 2py  -0.40904     1 2py   0.77338     2 2py  -0.40904     2 2py   0.77338     3 1s   -0.37192
                                    4 1s    0.37192     5 1s   -0.37192     6 1s    0.37192
   17.1    -0.00000     0.78189     1 2px  -0.75851     1 2px   0.63391     2 2px  -0.75851     2 2px   0.63391
   18.1    -0.00000     0.86210     1 1s   -0.90011     1 1s    1.56144     1 2pz   0.38849     2 1s   -0.90011     2 1s    1.56144
                                    2 2pz  -0.38849     3 1s   -0.38958     3 1s   -0.28212     4 1s   -0.38958     4 1s   -0.28212
                                    5 1s   -0.38958     5 1s   -0.28212     6 1s   -0.38958     6 1s   -0.28212
   19.1    -0.00000     0.86820     1 2px  -0.79909     1 2px   1.08285     2 2px   0.79909     2 2px  -1.08285
   20.1    -0.00000     0.90002     1 1s   -0.35643     1 2pz   0.63037     1 2pz  -0.85994     2 1s    0.35643     2 2pz   0.63037
                                    2 2pz  -0.85994     3 1s    0.35987     4 1s    0.35987     5 1s   -0.35987     6 1s   -0.35987
   21.1    -0.00000     1.12771     1 2py   0.68729     1 2py  -1.09310     2 2py   0.68729     2 2py  -1.09310     3 1s   -0.38983
                                    3 1s    1.07301     4 1s    0.38983     4 1s   -1.07301     5 1s   -0.38983     5 1s    1.07301
                                    6 1s    0.38983     6 1s   -1.07301
   22.1    -0.00000     1.15028     1 2py   0.91865     1 2py  -2.96718     2 2py  -0.91865     2 2py   2.96718     3 1s    1.55629
                                    4 1s   -1.55629     5 1s   -1.55629     6 1s    1.55629
   23.1    -0.00000     1.22803     1 1s   -0.63668     1 2pz  -0.65117     1 2pz   1.56496     2 1s    0.63668     2 2pz  -0.65117
                                    2 2pz   1.56496     3 1s    0.50208     3 1s   -0.85389     4 1s    0.50208     4 1s   -0.85389
                                    5 1s   -0.50208     5 1s    0.85389     6 1s   -0.50208     6 1s    0.85389
   24.1    -0.00000     1.22857     1 1s    1.03074     1 1s   -1.73701     1 2pz   0.36822     1 2pz  -0.50445     2 1s    1.03074
                                    2 1s   -1.73701     2 2pz  -0.36822     2 2pz   0.50445     3 1s   -0.44723     3 1s    0.87582
                                    4 1s   -0.44723     4 1s    0.87582     5 1s   -0.44723     5 1s    0.87582     6 1s   -0.44723
                                    6 1s    0.87582
   25.1    -0.00000     1.29603     1 1s   -1.66769     1 1s    5.04369     1 2pz  -1.39897     2 1s    1.66769     2 1s   -5.04369
                                    2 2pz  -1.39897     3 1s   -0.57984     4 1s   -0.57984     5 1s    0.57984     6 1s    0.57984
   26.1    -0.00000     1.43290     1 2py   2.31485     2 2py  -2.31485     3 1s   -0.68616     3 1s   -0.59988     4 1s    0.68616
                                    4 1s    0.59988     5 1s    0.68616     5 1s    0.59988     6 1s   -0.68616     6 1s   -0.59988
   27.1    -0.00000     1.70030     1 3d1+  0.62574     2 3d1+ -0.62574
   28.1    -0.00000     1.82443     1 3d2-  0.68557     2 3d2-  0.68557
   29.1    -0.00000     2.08504     1 3d2-  0.73081     2 3d2- -0.73081
   30.1    -0.00000     2.21603     1 1s    0.27572     1 1s   -0.63061     1 3d0  -0.25250     1 3d2+  0.68014     2 1s    0.27572
                                    2 1s   -0.63061     2 3d0  -0.25250     2 3d2+  0.68014     3 1s    0.35190     4 1s    0.35190
                                    5 1s    0.35190     6 1s    0.35190
   31.1    -0.00000     2.33150     1 2py   0.28460     1 3d1-  0.70463     2 2py   0.28460     2 3d1- -0.70463     3 1s   -0.53627
                                    4 1s    0.53627     5 1s   -0.53627     6 1s    0.53627
   32.1    -0.00000     2.33466     1 1s   -0.44484     1 2pz   0.26431     1 2pz  -0.46607     1 3d0   0.63838     1 3d2+  0.28977
                                    2 1s   -0.44484     2 2pz  -0.26431     2 2pz   0.46607     2 3d0   0.63838     2 3d2+  0.28977
   33.1    -0.00000     2.59080     1 1s    0.26872     1 1s   -1.19088     1 3d2+  0.79495     2 1s   -0.26872     2 1s    1.19088
                                    2 3d2+ -0.79495     3 1s    0.45509     4 1s    0.45509     5 1s   -0.45509     6 1s   -0.45509
   34.1    -0.00000     2.63284     1 2px  -0.25629     1 3d1+  0.87411     2 2px   0.25629     2 3d1+  0.87411
   35.1    -0.00000     2.99363     1 1s    1.98873     1 2pz  -0.65743     1 2pz  -1.18741     1 3d0   1.08089     2 1s   -1.98873
                                    2 2pz  -0.65743     2 2pz  -1.18741     2 3d0  -1.08089
   36.1    -0.00000     3.04017     1 2py   0.59281     1 3d1-  0.94988     2 2py  -0.59281     2 3d1-  0.94988     3 1s   -0.50424
                                    4 1s    0.50424     5 1s    0.50424     6 1s   -0.50424


 Natural orbital dump (state averaged) at molpro section  2140.2    (Orbital set 2)



 **********************************************************************************************************************************
 DATASETS  * FILE   NREC   LENGTH (MB)   RECORD NAMES
              1      20       31.36       500      610      700      900      950      970     1000      129      960     1100   
                                          VAR    BASINP    GEOM    SYMINP    ZMAT    AOBASIS   BASIS     P2S    ABASIS      S 
                                         1400     1410     1200     1210     1080     1600     1650     1300     1700     1380   
                                           T        V       H0       H01     AOSYM     SMH    MOLCAS    ERIS     OPER     JKOP   

              2       5        5.42       700     1000      520     2100     2140   
                                         GEOM     BASIS   MCVARS     RHF     MCSCF   

 PROGRAMS   *        TOTAL     MULTI    HF-SCF       INT
 CPU TIMES  *         0.54      0.15      0.09      0.22
 REAL TIME  *         0.83 SEC
 DISK USED  *        38.54 MB
 **********************************************************************************************************************************
 Molecular orbitals read from record     2140.2  Type=MCSCF/NATURAL (state averaged)
 Occupation numbers read from record     2140.2  Type=MCSCF/NATURAL (state averaged)
 Orbital energies read from record       2140.2  Type=MCSCF/NATURAL (state averaged)
 Redundancy group numbers read from rec  2140.2  Type=MCSCF/NATURAL (state averaged)

 MULTI/6-31G* energy=    -77.516377621892

           MULTI          HF-SCF
    -77.51637762    -78.02485616
 **********************************************************************************************************************************
 Molpro calculation terminated
