
 Primary working directories    : /scratch.local/johan406.molpro_temp/molpro.W9ZdTjrIW1
 Secondary working directories  : /scratch.local/johan406.molpro_temp/molpro.W9ZdTjrIW1
 Wavefunction directory         : /home/goodpast/johan406/wfu/
 Main file repository           : /scratch.local/johan406.molpro_temp/molpro.W9ZdTjrIW1/

 id        : roweumn

 Nodes     nprocs
 cn0416       1

 Using customized tuning parameters: mindgm=1; mindgv=20; mindgc=4; mindgr=1; noblas=0; minvec=7
 default implementation of scratch files=df  


 Variables initialized (934), CPU time= 0.00 sec
                                                                                 !leave this line blank
 
 gprint, orbitals=30
 memory, 125., m
 symmetry, nosym
 nelect=16
 basis=6-31g*
 
 geometry={
 C 0.000 0.000 0.696
 C 0.000 -0.000 -0.696
 H 0.000 0.900 1.257
 H 0.000 -0.900 1.257
 H 0.000 0.900 -1.257
 H 0.000 -0.900 -1.257
 }
 
 hf
 {multi,
 closed 7
 occ 9
 wf,spin=0;STATE,3
 }
 
 Commands  initialized (763), CPU time= 0.01 sec, 617 directives.
 Default parameters read. Elapsed time= 0.04 sec

 Checking input...
 Passed
1


                                         ***  PROGRAM SYSTEM MOLPRO  ***
                                       Copyright, TTI GmbH Stuttgart, 2015
                                    Version 2019.2 linked Oct 25 2019 22:50:27


 **********************************************************************************************************************************
 LABEL *                                                                                 
  64 bit serial version                                                                  DATE: 15-Mar-23          TIME: 16:22:13  
 **********************************************************************************************************************************

 SHA1:             8dbd9ae1082e4ce945b0f27595c9eb2d4aa09004
 **********************************************************************************************************************************


 Variable memory set to  125000000 words,  buffer space 

 SETTING NELECT         =        16.00000000                                  
 SETTING BASIS          =    6-31G*
 ZSYMEL=NOSYM


Geometry recognized as XYZ



 Recomputing integrals since basis changed


 Using spherical harmonics

 Library entry C      S 6-31G                selected for orbital group  1
 Library entry C      P 6-31G                selected for orbital group  1
 Library entry C      D 6-31G*               selected for orbital group  1
 Library entry H      S 6-31G                selected for orbital group  2


 PROGRAM * SEWARD (Integral evaluation for generally contracted gaussian basis sets)     Author: Roland Lindh, 1990

 Geometry written to block  1 of record 700


 Point group  C1  



 ATOMIC COORDINATES

 NR  ATOM    CHARGE       X              Y              Z

   1  C       6.00    0.000000000    0.000000000    1.315249383
   2  C       6.00    0.000000000   -0.000000000   -1.315249383
   3  H       1.00    0.000000000    1.700753512    2.375385739
   4  H       1.00    0.000000000   -1.700753512    2.375385739
   5  H       1.00    0.000000000    1.700753512   -2.375385739
   6  H       1.00    0.000000000   -1.700753512   -2.375385739

 Bond lengths in Bohr (Angstrom)

 1-2  2.630498765  1-3  2.004108680  1-4  2.004108680  2-5  2.004108680  2-6  2.004108680
     ( 1.392000000)     ( 1.060528642)     ( 1.060528642)     ( 1.060528642)     ( 1.060528642)

 Bond angles

  1-2-5  121.93666267   1-2-6  121.93666267   2-1-3  121.93666267   2-1-4  121.93666267

  3-1-4  116.12667467   5-2-6  116.12667467

 NUCLEAR CHARGE:                   16
 NUMBER OF PRIMITIVE AOS:          72
 NUMBER OF SYMMETRY AOS:           70
 NUMBER OF CONTRACTIONS:           36   (   36A   )
 NUMBER OF CORE ORBITALS:           2   (    2A   )
 NUMBER OF VALENCE ORBITALS:       12   (   12A   )


 NUCLEAR REPULSION ENERGY   32.91827048

 EXTRA SYMMETRY OF AOS IN SYMMETRY 1:   1 1 1 2 1 1 2 1 1 1   3 2 1 1 1 1 1 2 1 1   2 1 1 1 3 2 1 1 1 1   1 1 1 1 1 1

 Eigenvalues of metric

         1 0.993E-02 0.179E-01 0.358E-01 0.443E-01 0.693E-01 0.210E+00 0.229E+00 0.232E+00


 Contracted 2-electron integrals neglected if value below      1.0D-11
 AO integral compression algorithm  1   Integral accuracy      1.0D-11

     0.786 MB (compressed) written to integral file ( 37.5%)


 NUMBER OF SORTED TWO-ELECTRON INTEGRALS:     222111.     BUFFER LENGTH:  32768
 NUMBER OF SEGMENTS:   1  SEGMENT LENGTH:     222111      RECORD LENGTH: 524288

 Memory used in sort:       0.78 MW

 SORT1 READ      284735. AND WROTE       98247. INTEGRALS IN      1 RECORDS. CPU TIME:     0.00 SEC, REAL TIME:     0.00 SEC
 SORT2 READ       98247. AND WROTE      222111. INTEGRALS IN      3 RECORDS. CPU TIME:     0.02 SEC, REAL TIME:     0.02 SEC

 FILE SIZES:   FILE 1:    30.9 MBYTE,  FILE 4:     4.2 MBYTE,   TOTAL:     35.1 MBYTE

 OPERATOR DM      FOR CENTER  0  COORDINATES:    0.000000    0.000000    0.000000


 **********************************************************************************************************************************
 DATASETS  * FILE   NREC   LENGTH (MB)   RECORD NAMES
              1      19       30.63       500      610      700      900      950      970     1000      129      960     1100   
                                          VAR    BASINP    GEOM    SYMINP    ZMAT    AOBASIS   BASIS     P2S    ABASIS      S 
                                         1400     1410     1200     1210     1080     1600     1650     1300     1700   
                                           T        V       H0       H01     AOSYM     SMH    MOLCAS    ERIS     OPER   

 PROGRAMS   *        TOTAL       INT
 CPU TIMES  *         0.30      0.22
 REAL TIME  *         0.54 SEC
 DISK USED  *        35.45 MB
 **********************************************************************************************************************************


 PROGRAM * RHF-SCF (CLOSED SHELL)       Authors: W. Meyer, H.-J. Werner


 NUMBER OF ELECTRONS:       8+    8-    SPACE SYMMETRY=1    SPIN SYMMETRY: Singlet 
 CONVERGENCE THRESHOLDS:    1.00E-05 (Density)    1.00E-07 (Energy)
 MAX. NUMBER OF ITERATIONS:       60
 INTERPOLATION TYPE:            DIIS
 INTERPOLATION STEPS:              2 (START)      1 (STEP)
 LEVEL SHIFTS:                  0.00 (CLOSED)  0.00 (OPEN) 



 Orbital guess generated from atomic densities. Full valence occupancy:    8

 Molecular orbital dump at record        2100.2

 Initial occupancy:   8

 ITERATION    DDIFF          GRAD             ENERGY        2-EL.EN.            DIPOLE MOMENTS         DIIS   ORB.
    1      0.000D+00      0.000D+00       -78.00169342    117.519099   -0.00000    0.00000    0.00000    0    start
    2      0.000D+00      0.808D-02       -78.02216732    115.970827    0.00000    0.00000   -0.00000    1    diag
    3      0.786D-02      0.263D-02       -78.02397592    116.514816    0.00000   -0.00000   -0.00000    2    diag
    4      0.241D-02      0.684D-03       -78.02416597    116.414362   -0.00000   -0.00000   -0.00000    3    diag
    5      0.100D-02      0.631D-04       -78.02416775    116.417078    0.00000    0.00000   -0.00000    4    diag
    6      0.131D-03      0.670D-05       -78.02416777    116.416720   -0.00000    0.00000    0.00000    5    diag
    7      0.113D-04      0.104D-05       -78.02416777    116.416728   -0.00000   -0.00000    0.00000    6    diag
    8      0.151D-05      0.111D-06       -78.02416777    116.416724   -0.00000   -0.00000   -0.00000    0    orth

 Final occupancy:   8

 !RHF STATE  1.1 Energy               -78.024167770913
 Nuclear energy                        32.91827048
 One-electron energy                 -169.15080003
 Two-electron energy                   58.20836179
 Virial quotient                       -1.00086042
 !RHF STATE  1.1 Dipole moment         -0.00000000    -0.00000000    -0.00000000
 Dipole moment /Debye                  -0.00000000    -0.00000000    -0.00000000

 ELECTRON ORBITALS
 =================

  Orbital  Occupation    Energy     Coefficients
    1.1     2.00000   -11.23026     1 1s    0.70426     2 1s    0.70426
    2.1     2.00000   -11.22904     1 1s    0.70450     2 1s   -0.70450
    3.1     2.00000    -1.01373     1 1s    0.30021     2 1s    0.30021
    4.1     2.00000    -0.80522     2 1s   -0.24357
    5.1     2.00000    -0.63696     1 2py   0.32279     2 2py   0.32279
    6.1     2.00000    -0.57702     1 2pz   0.40694     2 2pz  -0.40694
    7.1     2.00000    -0.51828     1 2py   0.31139     2 2py  -0.31139
    8.1     2.00000    -0.35652     1 2px   0.36846     1 2px   0.31814     2 2px   0.36846     2 2px   0.31814
    9.1     0.00000     0.16576     1 2px   0.34683     1 2px   0.70127     2 2px  -0.34683     2 2px  -0.70127
   10.1     0.00000     0.26988     1 1s   -1.54253     1 2pz  -0.65011     2 1s   -1.54253     2 2pz   0.65011     3 1s    1.07116
                                    4 1s    1.07116     5 1s    1.07116     6 1s    1.07116
   11.1     0.00000     0.30262     1 2py  -0.83663     2 2py  -0.83663     3 1s    1.13352     4 1s   -1.13352     5 1s    1.13352
                                    6 1s   -1.13352
   12.1     0.00000     0.30932     1 1s    1.96841     2 1s   -1.96841     3 1s   -1.08132     4 1s   -1.08132     5 1s    1.08132
                                    6 1s    1.08132
   13.1     0.00000     0.38887     1 2py  -1.81638     2 2py   1.81638     3 1s    1.63880     4 1s   -1.63880     5 1s   -1.63880
                                    6 1s    1.63880
   14.1     0.00000     0.47919     1 1s   -2.40867     1 2pz   2.74153     2 1s    2.40867     2 2pz   2.74153     3 1s   -0.63435
                                    4 1s   -0.63435     5 1s    0.63435     6 1s    0.63435
   15.1     0.00000     0.68744     1 1s    0.33759     1 2pz  -0.57206     1 2pz   1.03912     2 1s    0.33759     2 2pz   0.57206
                                    2 2pz  -1.03912
   16.1     0.00000     0.74141     1 2py  -0.39858     1 2py   0.77188     2 2py  -0.39858     2 2py   0.77188     3 1s   -0.37516
                                    4 1s    0.37516     5 1s   -0.37516     6 1s    0.37516
   17.1     0.00000     0.78803     1 2px  -0.75208     1 2px   0.63988     2 2px  -0.75208     2 2px   0.63988
   18.1     0.00000     0.86432     1 1s   -0.90715     1 1s    1.53045     1 2pz   0.32887     2 1s   -0.90715     2 1s    1.53045
                                    2 2pz  -0.32887     3 1s   -0.38581     3 1s   -0.26877     4 1s   -0.38581     4 1s   -0.26877
                                    5 1s   -0.38581     5 1s   -0.26877     6 1s   -0.38581     6 1s   -0.26877
   19.1     0.00000     0.88357     1 2px  -0.81326     1 2px   1.05476     2 2px   0.81326     2 2px  -1.05476
   20.1     0.00000     0.91361     1 1s   -0.47786     1 2pz   0.63141     1 2pz  -0.79533     2 1s    0.47786     2 2pz   0.63141
                                    2 2pz  -0.79533     3 1s    0.35678     4 1s    0.35678     5 1s   -0.35678     6 1s   -0.35678
   21.1     0.00000     1.14355     1 2py   0.69852     1 2py  -1.09163     2 2py   0.69852     2 2py  -1.09163     3 1s   -0.39050
                                    3 1s    1.06542     4 1s    0.39050     4 1s   -1.06542     5 1s   -0.39050     5 1s    1.06542
                                    6 1s    0.39050     6 1s   -1.06542
   22.1     0.00000     1.16123     1 2py   0.92106     1 2py  -2.96687     2 2py  -0.92106     2 2py   2.96687     3 1s    1.55374
                                    4 1s   -1.55374     5 1s   -1.55374     6 1s    1.55374
   23.1     0.00000     1.23125     1 1s   -0.26775     1 1s   -0.26323     1 2pz  -0.63684     1 2pz   1.45295     2 1s    0.26775
                                    2 1s    0.26323     2 2pz  -0.63684     2 2pz   1.45295     3 1s    0.50271     3 1s   -0.89442
                                    4 1s    0.50271     4 1s   -0.89442     5 1s   -0.50271     5 1s    0.89442     6 1s   -0.50271
                                    6 1s    0.89442
   24.1     0.00000     1.23126     1 1s    1.03610     1 1s   -1.74330     1 2pz   0.36390     1 2pz  -0.49857     2 1s    1.03610
                                    2 1s   -1.74330     2 2pz  -0.36390     2 2pz   0.49857     3 1s   -0.44670     3 1s    0.87715
                                    4 1s   -0.44670     4 1s    0.87715     5 1s   -0.44670     5 1s    0.87715     6 1s   -0.44670
                                    6 1s    0.87715
   25.1     0.00000     1.31075     1 1s   -1.65148     1 1s    5.05159     1 2pz  -1.50618     2 1s    1.65148     2 1s   -5.05159
                                    2 2pz  -1.50618     3 1s   -0.51542     4 1s   -0.51542     5 1s    0.51542     6 1s    0.51542
   26.1     0.00000     1.44123     1 2py   2.30463     2 2py  -2.30463     3 1s   -0.68731     3 1s   -0.59857     4 1s    0.68731
                                    4 1s    0.59857     5 1s    0.68731     5 1s    0.59857     6 1s   -0.68731     6 1s   -0.59857
   27.1     0.00000     1.72199     1 3d1+  0.62650     2 3d1+ -0.62650
   28.1     0.00000     1.83710     1 3d2-  0.68590     2 3d2-  0.68590
   29.1     0.00000     2.10398     1 3d2-  0.73041     2 3d2- -0.73041
   30.1     0.00000     2.23072     1 1s    0.28704     1 1s   -0.63496     1 3d0  -0.26346     1 3d2+  0.67575     2 1s    0.28704
                                    2 1s   -0.63496     2 3d0  -0.26346     2 3d2+  0.67575     3 1s    0.34615     4 1s    0.34615
                                    5 1s    0.34615     6 1s    0.34615
   31.1     0.00000     2.34635     1 2py   0.27737     1 3d1-  0.70735     2 2py   0.27737     2 3d1- -0.70735     3 1s   -0.53392
                                    4 1s    0.53392     5 1s   -0.53392     6 1s    0.53392
   32.1     0.00000     2.34990     1 1s   -0.44035     1 2pz   0.25526     1 2pz  -0.46306     1 3d0   0.63280     1 3d2+  0.30297
                                    2 1s   -0.44035     2 2pz  -0.25526     2 2pz   0.46306     2 3d0   0.63280     2 3d2+  0.30297
   33.1     0.00000     2.60861     1 1s    0.26697     1 1s   -1.18624     1 3d2+  0.79577     2 1s   -0.26697     2 1s    1.18624
                                    2 3d2+ -0.79577     3 1s    0.45350     4 1s    0.45350     5 1s   -0.45350     6 1s   -0.45350
   34.1     0.00000     2.64950     1 2px  -0.25515     1 3d1+  0.87162     2 2px   0.25515     2 3d1+  0.87162
   35.1     0.00000     3.00550     1 1s    1.95883     1 2pz  -0.65514     1 2pz  -1.17315     1 3d0   1.07702     2 1s   -1.95883
                                    2 2pz  -0.65514     2 2pz  -1.17315     2 3d0  -1.07702
   36.1     0.00000     3.04761     1 2py   0.59721     1 3d1-  0.94809     2 2py  -0.59721     2 3d1-  0.94809     3 1s   -0.50330
                                    4 1s    0.50330     5 1s    0.50330     6 1s   -0.50330


 HOMO      8.1    -0.356517 =      -9.7013eV
 LUMO      9.1     0.165757 =       4.5105eV
 LUMO-HOMO         0.522274 =      14.2118eV


 **********************************************************************************************************************************
 DATASETS  * FILE   NREC   LENGTH (MB)   RECORD NAMES
              1      19       30.63       500      610      700      900      950      970     1000      129      960     1100   
                                          VAR    BASINP    GEOM    SYMINP    ZMAT    AOBASIS   BASIS     P2S    ABASIS      S 
                                         1400     1410     1200     1210     1080     1600     1650     1300     1700   
                                           T        V       H0       H01     AOSYM     SMH    MOLCAS    ERIS     OPER   

              2       4        2.86       700     1000      520     2100   
                                         GEOM     BASIS   MCVARS     RHF  

 PROGRAMS   *        TOTAL    HF-SCF       INT
 CPU TIMES  *         0.39      0.09      0.22
 REAL TIME  *         0.67 SEC
 DISK USED  *        35.45 MB
 **********************************************************************************************************************************


 PROGRAM * MULTI (Direct Multiconfiguration SCF)       Authors: P.J. Knowles, H.-J. Werner (1984)


 Number of closed-shell orbitals:   7 (   7 )
 Number of active  orbitals:        2 (   2 )
 Number of external orbitals:      27 (  27 )

 State symmetry 1

 Number of electrons:     2    Spin symmetry=Singlet   Space symmetry=1
 Number of states:        3
 Number of CSFs:          3   (4 determinants, 4 intermediate states)

 Molecular orbitals read from record     2100.2  Type=RHF/CANONICAL (state 1.1)

 EXTRA SYMMETRY OF MOS IN SYMMETRY 1:   1 1 1 1 1 1 1 2 2 1   1 1 1 1 1 1 2 1 2 1   1 1 1 1 1 1 2 3 3 1   1 1 1 2 1 1

 Wavefunction dump at record             2140.2

 Convergence thresholds  0.10E-01 (gradient)  0.10E-05 (energy)  0.10E-02 (step length)

 Weight factors for state symmetry  1:    0.33333   0.33333   0.33333

 Number of orbital rotations:      257   (    14 Core/Active    189 Core/Virtual   0 Active/Active     54 Active/Virtual)
 Total number of variables:        269

 Micro-Iterations solved by the two-step solver

 ITER. MIC  NCI  NEG     ENERGY(VAR)     ENERGY(PROJ)   ENERGY CHANGE     GRAD(0)  GRAD(ORB)   GRAD(CI)     STEP       TIME

   1    3    3    0     -77.74339773     -77.74875813   -0.00536039    0.12201326 0.00000102 0.00000000  0.58D-01      0.06
   2    2    3    0     -77.74868484     -77.74868736   -0.00000252    0.00250161 0.00000124 0.00000000  0.13D-02      0.09
   3    2    3    0     -77.74868736     -77.74868736   -0.00000000    0.00000142 0.00000000 0.00000000  0.86D-06      0.12

 ** WVFN ****  CONVERGENCE REACHED, FINAL GRADIENT:  0.54D-12



 Results for state 1.1
 =====================

 !MCSCF STATE  1.1 Energy             -78.045108655339
 Nuclear energy                        32.91827048
 Kinetic energy                        78.00391314
 One electron energy                 -169.23220697
 Two electron energy                   58.26882784
 Virial ratio                           2.00052812

 !MCSCF STATE  1.1 Dipole moment        0.00000000     0.00000000     0.00000000
 Dipole moment /Debye                   0.00000000     0.00000000     0.00000000

 Results for state 2.1
 =====================

 !MCSCF STATE  2.1 Energy             -77.682566280970
 Nuclear energy                        32.91827048
 Kinetic energy                        78.20015414
 One electron energy                 -168.76439628
 Two electron energy                   58.16355952
 Virial ratio                           1.99338124

 !MCSCF STATE  2.1 Dipole moment        0.00000000     0.00000000     0.00000000
 Dipole moment /Debye                   0.00000000     0.00000000     0.00000000

 Results for state 3.1
 =====================

 !MCSCF STATE  3.1 Energy             -77.518387143209
 Nuclear energy                        32.91827048
 Kinetic energy                        78.39639513
 One electron energy                 -168.29658559
 Two electron energy                   57.85992797
 Virial ratio                           1.98880040

 !MCSCF STATE  3.1 Dipole moment        0.00000000     0.00000000    -0.00000000
 Dipole moment /Debye                   0.00000000     0.00000000    -0.00000000

 State-averaged charge density matrix saved on record  2140.2 (density set 1)

 !MCSCF trans         <2.1|DMZ|1.1>    -1.512207835378 au =    -3.843397190241 Debye
 !MCSCF trans         <3.1|DMZ|2.1>    -2.377642113614 au =    -6.042967643120 Debye


 NATURAL ORBITALS (state averaged)
 =================================

  Orbital  Occupation    Energy     Coefficients
    1.1     2.00000   -11.24227     1 1s    0.70427     2 1s    0.70427
    2.1     2.00000   -11.24129     1 1s    0.70446     2 1s   -0.70446
    3.1     2.00000    -1.02496     1 1s    0.30779     2 1s    0.30779
    4.1     2.00000    -0.81172     1 1s    0.27698     2 1s   -0.27698
    5.1     2.00000    -0.64758     1 2py   0.32746     2 2py   0.32746
    6.1     2.00000    -0.59087     1 2pz   0.40910     2 2pz  -0.40910
    7.1     2.00000    -0.52376     1 2py   0.31681     2 2py  -0.31681
    8.1     1.00000     0.02343     1 2px   0.38089     1 2px   0.65965     2 2px  -0.38089     2 2px  -0.65965
    9.1     1.00000    -0.21509     1 2px   0.35198     1 2px   0.33044     2 2px   0.35198     2 2px   0.33044
   10.1    -0.00000     0.26768     1 1s   -1.53962     1 2pz  -0.65647     2 1s   -1.53962     2 2pz   0.65647     3 1s    1.07102
                                    4 1s    1.07102     5 1s    1.07102     6 1s    1.07102
   11.1    -0.00000     0.29531     1 2py  -0.82984     2 2py  -0.82984     3 1s    1.12653     4 1s   -1.12653     5 1s    1.12653
                                    6 1s   -1.12653
   12.1    -0.00000     0.30652     1 1s    1.99521     2 1s   -1.99521     3 1s   -1.07392     4 1s   -1.07392     5 1s    1.07392
                                    6 1s    1.07392
   13.1    -0.00000     0.38558     1 2py  -0.25106     1 2py  -1.80504     2 2py   0.25106     2 2py   1.80504     3 1s    1.63312
                                    4 1s   -1.63312     5 1s   -1.63312     6 1s    1.63312
   14.1    -0.00000     0.47555     1 1s   -2.37534     1 2pz   2.71769     2 1s    2.37534     2 2pz   2.71769     3 1s   -0.64667
                                    4 1s   -0.64667     5 1s    0.64667     6 1s    0.64667
   15.1    -0.00000     0.67735     1 2pz  -0.56672     1 2pz   1.01428     2 2pz   0.56672     2 2pz  -1.01428
   16.1    -0.00000     0.73184     1 2py  -0.40881     1 2py   0.77587     2 2py  -0.40881     2 2py   0.77587     3 1s   -0.37135
                                    4 1s    0.37135     5 1s   -0.37135     6 1s    0.37135
   17.1    -0.00000     0.78268     1 2px  -0.75936     1 2px   0.63386     2 2px  -0.75936     2 2px   0.63386
   18.1    -0.00000     0.86189     1 1s   -0.90146     1 1s    1.56025     1 2pz   0.38026     2 1s   -0.90146     2 1s    1.56025
                                    2 2pz  -0.38026     3 1s   -0.38877     3 1s   -0.28170     4 1s   -0.38877     4 1s   -0.28170
                                    5 1s   -0.38877     5 1s   -0.28170     6 1s   -0.38877     6 1s   -0.28170
   19.1    -0.00000     0.86791     1 2px  -0.79880     1 2px   1.08119     2 2px   0.79880     2 2px  -1.08119
   20.1    -0.00000     0.89757     1 1s   -0.34115     1 2pz   0.63222     1 2pz  -0.87190     2 1s    0.34115     2 2pz   0.63222
                                    2 2pz  -0.87190     3 1s    0.35795     4 1s    0.35795     5 1s   -0.35795     6 1s   -0.35795
   21.1    -0.00000     1.13000     1 2py   0.68852     1 2py  -1.09377     2 2py   0.68852     2 2py  -1.09377     3 1s   -0.39042
                                    3 1s    1.07328     4 1s    0.39042     4 1s   -1.07328     5 1s   -0.39042     5 1s    1.07328
                                    6 1s    0.39042     6 1s   -1.07328
   22.1    -0.00000     1.15059     1 2py   0.91859     1 2py  -2.97117     2 2py  -0.91859     2 2py   2.97117     3 1s    1.56060
                                    4 1s   -1.56060     5 1s   -1.56060     6 1s    1.56060
   23.1    -0.00000     1.22761     1 1s   -0.73909     1 2pz  -0.65042     1 2pz   1.59026     2 1s    0.73909     2 2pz  -0.65042
                                    2 2pz   1.59026     3 1s    0.50337     3 1s   -0.84048     4 1s    0.50337     4 1s   -0.84048
                                    5 1s   -0.50337     5 1s    0.84048     6 1s   -0.50337     6 1s    0.84048
   24.1    -0.00000     1.22911     1 1s    1.03137     1 1s   -1.73903     1 2pz   0.36784     1 2pz  -0.50398     2 1s    1.03137
                                    2 1s   -1.73903     2 2pz  -0.36784     2 2pz   0.50398     3 1s   -0.44710     3 1s    0.87643
                                    4 1s   -0.44710     4 1s    0.87643     5 1s   -0.44710     5 1s    0.87643     6 1s   -0.44710
                                    6 1s    0.87643
   25.1    -0.00000     1.29493     1 1s   -1.67032     1 1s    5.00929     1 2pz  -1.35475     2 1s    1.67032     2 1s   -5.00929
                                    2 2pz  -1.35475     3 1s   -0.60093     4 1s   -0.60093     5 1s    0.60093     6 1s    0.60093
   26.1    -0.00000     1.43324     1 2py   2.30684     2 2py  -2.30684     3 1s   -0.68627     3 1s   -0.59907     4 1s    0.68627
                                    4 1s    0.59907     5 1s    0.68627     5 1s    0.59907     6 1s   -0.68627     6 1s   -0.59907
   27.1    -0.00000     1.69968     1 3d1+  0.62633     2 3d1+ -0.62633
   28.1    -0.00000     1.82563     1 3d2-  0.68590     2 3d2-  0.68590
   29.1    -0.00000     2.08343     1 3d2-  0.73041     2 3d2- -0.73041
   30.1    -0.00000     2.21732     1 1s    0.28760     1 1s   -0.63007     1 3d0  -0.27070     1 3d2+  0.67198     2 1s    0.28760
                                    2 1s   -0.63007     2 3d0  -0.27070     2 3d2+  0.67198     3 1s    0.34529     4 1s    0.34529
                                    5 1s    0.34529     6 1s    0.34529
   31.1    -0.00000     2.33200     1 1s   -0.43591     1 2pz   0.25878     1 2pz  -0.46729     1 3d0   0.62964     1 3d2+  0.31037
                                    2 1s   -0.43591     2 2pz  -0.25878     2 2pz   0.46729     2 3d0   0.62964     2 3d2+  0.31037
   32.1    -0.00000     2.33218     1 2py   0.28406     1 3d1-  0.70565     2 2py   0.28406     2 3d1- -0.70565     3 1s   -0.53712
                                    4 1s    0.53712     5 1s   -0.53712     6 1s    0.53712
   33.1    -0.00000     2.59126     1 1s    0.26740     1 1s   -1.19051     1 3d2+  0.79505     2 1s   -0.26740     2 1s    1.19051
                                    2 3d2+ -0.79505     3 1s    0.45636     4 1s    0.45636     5 1s   -0.45636     6 1s   -0.45636
   34.1    -0.00000     2.62881     1 2px  -0.25554     1 3d1+  0.87196     2 2px   0.25554     2 3d1+  0.87196
   35.1    -0.00000     2.99017     1 1s    1.98000     1 2pz  -0.64818     1 2pz  -1.18423     1 3d0   1.07826     2 1s   -1.98000
                                    2 2pz  -0.64818     2 2pz  -1.18423     2 3d0  -1.07826
   36.1    -0.00000     3.03625     1 2py   0.59700     1 3d1-  0.94768     2 2py  -0.59700     2 3d1-  0.94768     3 1s   -0.50544
                                    4 1s    0.50544     5 1s    0.50544     6 1s   -0.50544


 Natural orbital dump (state averaged) at molpro section  2140.2    (Orbital set 2)



 **********************************************************************************************************************************
 DATASETS  * FILE   NREC   LENGTH (MB)   RECORD NAMES
              1      20       31.36       500      610      700      900      950      970     1000      129      960     1100   
                                          VAR    BASINP    GEOM    SYMINP    ZMAT    AOBASIS   BASIS     P2S    ABASIS      S 
                                         1400     1410     1200     1210     1080     1600     1650     1300     1700     1380   
                                           T        V       H0       H01     AOSYM     SMH    MOLCAS    ERIS     OPER     JKOP   

              2       5        5.42       700     1000      520     2100     2140   
                                         GEOM     BASIS   MCVARS     RHF     MCSCF   

 PROGRAMS   *        TOTAL     MULTI    HF-SCF       INT
 CPU TIMES  *         0.55      0.16      0.09      0.22
 REAL TIME  *         0.85 SEC
 DISK USED  *        38.54 MB
 **********************************************************************************************************************************
 Molecular orbitals read from record     2140.2  Type=MCSCF/NATURAL (state averaged)
 Occupation numbers read from record     2140.2  Type=MCSCF/NATURAL (state averaged)
 Orbital energies read from record       2140.2  Type=MCSCF/NATURAL (state averaged)
 Redundancy group numbers read from rec  2140.2  Type=MCSCF/NATURAL (state averaged)

 MULTI/6-31G* energy=    -77.518387143209

           MULTI          HF-SCF
    -77.51838714    -78.02416777
 **********************************************************************************************************************************
 Molpro calculation terminated
