
 Primary working directories    : /scratch.local/johan406.molpro_temp/molpro.lzoVfMLzt7
 Secondary working directories  : /scratch.local/johan406.molpro_temp/molpro.lzoVfMLzt7
 Wavefunction directory         : /home/goodpast/johan406/wfu/
 Main file repository           : /scratch.local/johan406.molpro_temp/molpro.lzoVfMLzt7/

 id        : roweumn

 Nodes     nprocs
 cn0416       1

 Using customized tuning parameters: mindgm=1; mindgv=20; mindgc=4; mindgr=1; noblas=0; minvec=7
 default implementation of scratch files=df  


 Variables initialized (934), CPU time= 0.01 sec
                                                                                 !leave this line blank
 
 gprint, orbitals=30
 memory, 125., m
 symmetry, nosym
 nelect=16
 basis=6-31g*
 
 geometry={
 C 0.000 0.000 0.698
 C 0.000 -0.000 -0.698
 H 0.000 0.901 1.256
 H 0.000 -0.901 1.256
 H 0.000 0.901 -1.256
 H 0.000 -0.901 -1.256
 }
 
 hf
 {multi,
 closed 7
 occ 9
 wf,spin=0;STATE,3
 }
 
 Commands  initialized (763), CPU time= 0.00 sec, 617 directives.
 Default parameters read. Elapsed time= 0.04 sec

 Checking input...
 Passed
1


                                         ***  PROGRAM SYSTEM MOLPRO  ***
                                       Copyright, TTI GmbH Stuttgart, 2015
                                    Version 2019.2 linked Oct 25 2019 22:50:27


 **********************************************************************************************************************************
 LABEL *                                                                                 
  64 bit serial version                                                                  DATE: 15-Mar-23          TIME: 16:22:34  
 **********************************************************************************************************************************

 SHA1:             8dbd9ae1082e4ce945b0f27595c9eb2d4aa09004
 **********************************************************************************************************************************


 Variable memory set to  125000000 words,  buffer space 

 SETTING NELECT         =        16.00000000                                  
 SETTING BASIS          =    6-31G*
 ZSYMEL=NOSYM


Geometry recognized as XYZ



 Recomputing integrals since basis changed


 Using spherical harmonics

 Library entry C      S 6-31G                selected for orbital group  1
 Library entry C      P 6-31G                selected for orbital group  1
 Library entry C      D 6-31G*               selected for orbital group  1
 Library entry H      S 6-31G                selected for orbital group  2


 PROGRAM * SEWARD (Integral evaluation for generally contracted gaussian basis sets)     Author: Roland Lindh, 1990

 Geometry written to block  1 of record 700


 Point group  C1  



 ATOMIC COORDINATES

 NR  ATOM    CHARGE       X              Y              Z

   1  C       6.00    0.000000000    0.000000000    1.319028835
   2  C       6.00    0.000000000   -0.000000000   -1.319028835
   3  H       1.00    0.000000000    1.702643238    2.373496012
   4  H       1.00    0.000000000   -1.702643238    2.373496012
   5  H       1.00    0.000000000    1.702643238   -2.373496012
   6  H       1.00    0.000000000   -1.702643238   -2.373496012

 Bond lengths in Bohr (Angstrom)

 1-2  2.638057670  1-3  2.002721904  1-4  2.002721904  2-5  2.002721904  2-6  2.002721904
     ( 1.396000000)     ( 1.059794791)     ( 1.059794791)     ( 1.059794791)     ( 1.059794791)

 Bond angles

  1-2-5  121.77042484   1-2-6  121.77042484   2-1-3  121.77042484   2-1-4  121.77042484

  3-1-4  116.45915033   5-2-6  116.45915033

 NUCLEAR CHARGE:                   16
 NUMBER OF PRIMITIVE AOS:          72
 NUMBER OF SYMMETRY AOS:           70
 NUMBER OF CONTRACTIONS:           36   (   36A   )
 NUMBER OF CORE ORBITALS:           2   (    2A   )
 NUMBER OF VALENCE ORBITALS:       12   (   12A   )


 NUCLEAR REPULSION ENERGY   32.88344084

 EXTRA SYMMETRY OF AOS IN SYMMETRY 1:   1 1 1 2 1 1 2 1 1 1   3 2 1 1 1 1 1 2 1 1   2 1 1 1 3 2 1 1 1 1   1 1 1 1 1 1

 Eigenvalues of metric

         1 0.100E-01 0.179E-01 0.359E-01 0.445E-01 0.690E-01 0.210E+00 0.232E+00 0.233E+00


 Contracted 2-electron integrals neglected if value below      1.0D-11
 AO integral compression algorithm  1   Integral accuracy      1.0D-11

     0.786 MB (compressed) written to integral file ( 37.5%)


 NUMBER OF SORTED TWO-ELECTRON INTEGRALS:     222111.     BUFFER LENGTH:  32768
 NUMBER OF SEGMENTS:   1  SEGMENT LENGTH:     222111      RECORD LENGTH: 524288

 Memory used in sort:       0.78 MW

 SORT1 READ      284735. AND WROTE       98246. INTEGRALS IN      1 RECORDS. CPU TIME:     0.00 SEC, REAL TIME:     0.01 SEC
 SORT2 READ       98246. AND WROTE      222111. INTEGRALS IN      3 RECORDS. CPU TIME:     0.02 SEC, REAL TIME:     0.02 SEC

 FILE SIZES:   FILE 1:    30.9 MBYTE,  FILE 4:     4.2 MBYTE,   TOTAL:     35.1 MBYTE

 OPERATOR DM      FOR CENTER  0  COORDINATES:    0.000000    0.000000    0.000000


 **********************************************************************************************************************************
 DATASETS  * FILE   NREC   LENGTH (MB)   RECORD NAMES
              1      19       30.63       500      610      700      900      950      970     1000      129      960     1100   
                                          VAR    BASINP    GEOM    SYMINP    ZMAT    AOBASIS   BASIS     P2S    ABASIS      S 
                                         1400     1410     1200     1210     1080     1600     1650     1300     1700   
                                           T        V       H0       H01     AOSYM     SMH    MOLCAS    ERIS     OPER   

 PROGRAMS   *        TOTAL       INT
 CPU TIMES  *         0.29      0.21
 REAL TIME  *         0.48 SEC
 DISK USED  *        35.45 MB
 **********************************************************************************************************************************


 PROGRAM * RHF-SCF (CLOSED SHELL)       Authors: W. Meyer, H.-J. Werner


 NUMBER OF ELECTRONS:       8+    8-    SPACE SYMMETRY=1    SPIN SYMMETRY: Singlet 
 CONVERGENCE THRESHOLDS:    1.00E-05 (Density)    1.00E-07 (Energy)
 MAX. NUMBER OF ITERATIONS:       60
 INTERPOLATION TYPE:            DIIS
 INTERPOLATION STEPS:              2 (START)      1 (STEP)
 LEVEL SHIFTS:                  0.00 (CLOSED)  0.00 (OPEN) 



 Orbital guess generated from atomic densities. Full valence occupancy:    8

 Molecular orbital dump at record        2100.2

 Initial occupancy:   8

 ITERATION    DDIFF          GRAD             ENERGY        2-EL.EN.            DIPOLE MOMENTS         DIIS   ORB.
    1      0.000D+00      0.000D+00       -78.00115629    117.436862   -0.00000    0.00000   -0.00000    0    start
    2      0.000D+00      0.805D-02       -78.02152411    115.907673    0.00000    0.00000   -0.00000    1    diag
    3      0.784D-02      0.261D-02       -78.02331225    116.445949   -0.00000   -0.00000   -0.00000    2    diag
    4      0.239D-02      0.682D-03       -78.02350047    116.345459    0.00000   -0.00000    0.00000    3    diag
    5      0.996D-03      0.627D-04       -78.02350223    116.348155   -0.00000    0.00000    0.00000    4    diag
    6      0.131D-03      0.655D-05       -78.02350225    116.347804   -0.00000    0.00000    0.00000    5    diag
    7      0.110D-04      0.102D-05       -78.02350225    116.347812    0.00000    0.00000   -0.00000    6    diag
    8      0.146D-05      0.108D-06       -78.02350225    116.347808   -0.00000    0.00000    0.00000    0    orth

 Final occupancy:   8

 !RHF STATE  1.1 Energy               -78.023502246492
 Nuclear energy                        32.88344084
 One-electron energy                 -169.08084695
 Two-electron energy                   58.17390386
 Virial quotient                       -1.00092271
 !RHF STATE  1.1 Dipole moment         -0.00000000     0.00000000     0.00000000
 Dipole moment /Debye                  -0.00000000     0.00000000     0.00000000

 ELECTRON ORBITALS
 =================

  Orbital  Occupation    Energy     Coefficients
    1.1     2.00000   -11.23060     1 1s    0.70426     2 1s    0.70426
    2.1     2.00000   -11.22939     1 1s    0.70450     2 1s   -0.70450
    3.1     2.00000    -1.01288     1 1s    0.29998     2 1s    0.29998
    4.1     2.00000    -0.80552     2 1s   -0.24402
    5.1     2.00000    -0.63744     1 2py   0.32275     2 2py   0.32275
    6.1     2.00000    -0.57558     1 2pz   0.40694     2 2pz  -0.40694
    7.1     2.00000    -0.51954     1 2py   0.31180     2 2py  -0.31180
    8.1     2.00000    -0.35558     1 2px   0.36807     1 2px   0.31891     2 2px   0.36807     2 2px   0.31891
    9.1     0.00000     0.16491     1 2px   0.34716     1 2px   0.69902     2 2px  -0.34716     2 2px  -0.69902
   10.1     0.00000     0.26967     1 1s   -1.54152     1 2pz  -0.64675     2 1s   -1.54152     2 2pz   0.64675     3 1s    1.07013
                                    4 1s    1.07013     5 1s    1.07013     6 1s    1.07013
   11.1     0.00000     0.30319     1 2py  -0.84075     2 2py  -0.84075     3 1s    1.13707     4 1s   -1.13707     5 1s    1.13707
                                    6 1s   -1.13707
   12.1     0.00000     0.30953     1 1s    1.97224     2 1s   -1.97224     3 1s   -1.08112     4 1s   -1.08112     5 1s    1.08112
                                    6 1s    1.08112
   13.1     0.00000     0.38852     1 2py  -1.81597     2 2py   1.81597     3 1s    1.64078     4 1s   -1.64078     5 1s   -1.64078
                                    6 1s    1.64078
   14.1     0.00000     0.47763     1 1s   -2.36571     1 2pz   2.71597     2 1s    2.36571     2 2pz   2.71597     3 1s   -0.63119
                                    4 1s   -0.63119     5 1s    0.63119     6 1s    0.63119
   15.1     0.00000     0.68829     1 1s    0.34632     1 2pz  -0.57250     1 2pz   1.03721     2 1s    0.34632     2 2pz   0.57250
                                    2 2pz  -1.03721
   16.1     0.00000     0.74138     1 2py  -0.39842     1 2py   0.77626     2 2py  -0.39842     2 2py   0.77626     3 1s   -0.37469
                                    4 1s    0.37469     5 1s   -0.37469     6 1s    0.37469
   17.1     0.00000     0.78877     1 2px  -0.75289     1 2px   0.63989     2 2px  -0.75289     2 2px   0.63989
   18.1     0.00000     0.86396     1 1s   -0.90781     1 1s    1.52296     1 2pz   0.31478     2 1s   -0.90781     2 1s    1.52296
                                    2 2pz  -0.31478     3 1s   -0.38477     3 1s   -0.26541     4 1s   -0.38477     4 1s   -0.26541
                                    5 1s   -0.38477     5 1s   -0.26541     6 1s   -0.38477     6 1s   -0.26541
   19.1     0.00000     0.88317     1 2px  -0.81290     1 2px   1.05338     2 2px   0.81290     2 2px  -1.05338
   20.1     0.00000     0.91120     1 1s   -0.46467     1 2pz   0.63386     1 2pz  -0.80144     2 1s    0.46467     2 2pz   0.63386
                                    2 2pz  -0.80144     3 1s    0.35469     4 1s    0.35469     5 1s   -0.35469     6 1s   -0.35469
   21.1     0.00000     1.14562     1 2py   0.69990     1 2py  -1.09304     2 2py   0.69990     2 2py  -1.09304     3 1s   -0.39114
                                    3 1s    1.06568     4 1s    0.39114     4 1s   -1.06568     5 1s   -0.39114     5 1s    1.06568
                                    6 1s    0.39114     6 1s   -1.06568
   22.1     0.00000     1.16137     1 2py   0.92112     1 2py  -2.96954     2 2py  -0.92112     2 2py   2.96954     3 1s    1.55768
                                    4 1s   -1.55768     5 1s   -1.55768     6 1s    1.55768
   23.1     0.00000     1.23023     1 1s   -0.34830     1 2pz  -0.63615     1 2pz   1.47619     2 1s    0.34830     2 2pz  -0.63615
                                    2 2pz   1.47619     3 1s    0.50445     3 1s   -0.88517     4 1s    0.50445     4 1s   -0.88517
                                    5 1s   -0.50445     5 1s    0.88517     6 1s   -0.50445     6 1s    0.88517
   24.1     0.00000     1.23098     1 1s    1.03719     1 1s   -1.74572     1 2pz   0.36311     1 2pz  -0.49750     2 1s    1.03719
                                    2 1s   -1.74572     2 2pz  -0.36311     2 2pz   0.49750     3 1s   -0.44608     3 1s    0.87758
                                    4 1s   -0.44608     4 1s    0.87758     5 1s   -0.44608     5 1s    0.87758     6 1s   -0.44608
                                    6 1s    0.87758
   25.1     0.00000     1.30948     1 1s   -1.65608     1 1s    5.02961     1 2pz  -1.47306     2 1s    1.65608     2 1s   -5.02961
                                    2 2pz  -1.47306     3 1s   -0.53354     4 1s   -0.53354     5 1s    0.53354     6 1s    0.53354
   26.1     0.00000     1.44335     1 2py   2.30559     2 2py  -2.30559     3 1s   -0.68786     3 1s   -0.60195     4 1s    0.68786
                                    4 1s    0.60195     5 1s    0.68786     5 1s    0.60195     6 1s   -0.68786     6 1s   -0.60195
   27.1     0.00000     1.72128     1 3d1+  0.62708     2 3d1+ -0.62708
   28.1     0.00000     1.83810     1 3d2-  0.68622     2 3d2-  0.68622
   29.1     0.00000     2.10217     1 3d2-  0.73003     2 3d2- -0.73003
   30.1     0.00000     2.23155     1 1s    0.30029     1 1s   -0.63307     1 3d0  -0.28286     1 3d2+  0.66643     2 1s    0.30029
                                    2 1s   -0.63307     2 3d0  -0.28286     2 3d2+  0.66643     3 1s    0.33819     4 1s    0.33819
                                    5 1s    0.33819     6 1s    0.33819
   31.1     0.00000     2.34602     1 2py   0.27616     1 3d1-  0.70814     2 2py   0.27616     2 3d1- -0.70814     3 1s   -0.53436
                                    4 1s    0.53436     5 1s   -0.53436     6 1s    0.53436
   32.1     0.00000     2.34798     1 1s   -0.43062     1 2pz  -0.46319     1 3d0   0.62317     1 3d2+  0.32518     2 1s   -0.43062
                                    2 2pz   0.46319     2 3d0   0.62317     2 3d2+  0.32518     3 1s    0.25236     4 1s    0.25236
                                    5 1s    0.25236     6 1s    0.25236
   33.1     0.00000     2.60969     1 1s    0.26630     1 1s   -1.19297     1 3d2+  0.79600     2 1s   -0.26630     2 1s    1.19297
                                    2 3d2+ -0.79600     3 1s    0.45497     4 1s    0.45497     5 1s   -0.45497     6 1s   -0.45497
   34.1     0.00000     2.64547     1 2px  -0.25441     1 3d1+  0.86950     2 2px   0.25441     2 3d1+  0.86950
   35.1     0.00000     3.00203     1 1s    1.94848     1 2pz  -0.64630     1 2pz  -1.16861     1 3d0   1.07441     2 1s   -1.94848
                                    2 2pz  -0.64630     2 2pz  -1.16861     2 3d0  -1.07441
   36.1     0.00000     3.04120     1 2py   0.60229     1 3d1-  0.94531     2 2py  -0.60229     2 3d1-  0.94531     3 1s   -0.50377
                                    4 1s    0.50377     5 1s    0.50377     6 1s   -0.50377


 HOMO      8.1    -0.355581 =      -9.6759eV
 LUMO      9.1     0.164909 =       4.4874eV
 LUMO-HOMO         0.520490 =      14.1632eV


 **********************************************************************************************************************************
 DATASETS  * FILE   NREC   LENGTH (MB)   RECORD NAMES
              1      19       30.63       500      610      700      900      950      970     1000      129      960     1100   
                                          VAR    BASINP    GEOM    SYMINP    ZMAT    AOBASIS   BASIS     P2S    ABASIS      S 
                                         1400     1410     1200     1210     1080     1600     1650     1300     1700   
                                           T        V       H0       H01     AOSYM     SMH    MOLCAS    ERIS     OPER   

              2       4        2.86       700     1000      520     2100   
                                         GEOM     BASIS   MCVARS     RHF  

 PROGRAMS   *        TOTAL    HF-SCF       INT
 CPU TIMES  *         0.39      0.10      0.21
 REAL TIME  *         0.63 SEC
 DISK USED  *        35.45 MB
 **********************************************************************************************************************************


 PROGRAM * MULTI (Direct Multiconfiguration SCF)       Authors: P.J. Knowles, H.-J. Werner (1984)


 Number of closed-shell orbitals:   7 (   7 )
 Number of active  orbitals:        2 (   2 )
 Number of external orbitals:      27 (  27 )

 State symmetry 1

 Number of electrons:     2    Spin symmetry=Singlet   Space symmetry=1
 Number of states:        3
 Number of CSFs:          3   (4 determinants, 4 intermediate states)

 Molecular orbitals read from record     2100.2  Type=RHF/CANONICAL (state 1.1)

 EXTRA SYMMETRY OF MOS IN SYMMETRY 1:   1 1 1 1 1 1 1 2 2 1   1 1 1 1 1 1 2 1 2 1   1 1 1 1 1 1 2 3 3 1   1 1 1 2 1 1

 Wavefunction dump at record             2140.2

 Convergence thresholds  0.10E-01 (gradient)  0.10E-05 (energy)  0.10E-02 (step length)

 Weight factors for state symmetry  1:    0.33333   0.33333   0.33333

 Number of orbital rotations:      257   (    14 Core/Active    189 Core/Virtual   0 Active/Active     54 Active/Virtual)
 Total number of variables:        269

 Micro-Iterations solved by the two-step solver

 ITER. MIC  NCI  NEG     ENERGY(VAR)     ENERGY(PROJ)   ENERGY CHANGE     GRAD(0)  GRAD(ORB)   GRAD(CI)     STEP       TIME

   1    3    3    0     -77.74413153     -77.74943097   -0.00529944    0.12124907 0.00000099 0.00000000  0.58D-01      0.05
   2    2    3    0     -77.74935932     -77.74936177   -0.00000245    0.00246487 0.00000120 0.00000000  0.13D-02      0.08
   3    2    3    0     -77.74936177     -77.74936177   -0.00000000    0.00000138 0.00000000 0.00000000  0.83D-06      0.11

 ** WVFN ****  CONVERGENCE REACHED, FINAL GRADIENT:  0.50D-12



 Results for state 1.1
 =====================

 !MCSCF STATE  1.1 Energy             -78.044686940438
 Nuclear energy                        32.88344084
 Kinetic energy                        77.99703681
 One electron energy                 -169.15861462
 Two electron energy                   58.23048683
 Virial ratio                           2.00061092

 !MCSCF STATE  1.1 Dipole moment        0.00000000     0.00000000    -0.00000000
 Dipole moment /Debye                   0.00000000     0.00000000    -0.00000000

 Results for state 2.1
 =====================

 !MCSCF STATE  2.1 Energy             -77.683041540675
 Nuclear energy                        32.88344084
 Kinetic energy                        78.19440550
 One electron energy                 -168.69791810
 Two electron energy                   58.13143572
 Virial ratio                           1.99346035

 !MCSCF STATE  2.1 Dipole moment        0.00000000     0.00000000    -0.00000000
 Dipole moment /Debye                   0.00000000     0.00000000    -0.00000000

 Results for state 3.1
 =====================

 !MCSCF STATE  3.1 Energy             -77.520356822001
 Nuclear energy                        32.88344084
 Kinetic energy                        78.39177420
 One electron energy                 -168.23722159
 Two electron energy                   57.83342392
 Virial ratio                           1.98888382

 !MCSCF STATE  3.1 Dipole moment        0.00000000     0.00000000    -0.00000000
 Dipole moment /Debye                   0.00000000     0.00000000    -0.00000000

 State-averaged charge density matrix saved on record  2140.2 (density set 1)

 !MCSCF trans         <2.1|DMZ|1.1>    -1.512180511863 au =    -3.843327745340 Debye
 !MCSCF trans         <3.1|DMZ|2.1>    -2.385336065286 au =    -6.062522436810 Debye


 NATURAL ORBITALS (state averaged)
 =================================

  Orbital  Occupation    Energy     Coefficients
    1.1     2.00000   -11.24236     1 1s    0.70427     2 1s    0.70427
    2.1     2.00000   -11.24139     1 1s    0.70446     2 1s   -0.70446
    3.1     2.00000    -1.02390     1 1s    0.30751     2 1s    0.30751
    4.1     2.00000    -0.81195     1 1s    0.27671     2 1s   -0.27671
    5.1     2.00000    -0.64793     1 2py   0.32734     2 2py   0.32734
    6.1     2.00000    -0.58934     1 2pz   0.40912     2 2pz  -0.40912
    7.1     2.00000    -0.52496     1 2py   0.31714     2 2py  -0.31714
    8.1     1.00000     0.02276     1 2px   0.38096     1 2px   0.65775     2 2px  -0.38096     2 2px  -0.65775
    9.1     1.00000    -0.21434     1 2px   0.35152     1 2px   0.33127     2 2px   0.35152     2 2px   0.33127
   10.1    -0.00000     0.26748     1 1s   -1.53864     1 2pz  -0.65312     2 1s   -1.53864     2 2pz   0.65312     3 1s    1.06999
                                    4 1s    1.06999     5 1s    1.06999     6 1s    1.06999
   11.1    -0.00000     0.29596     1 2py  -0.83415     2 2py  -0.83415     3 1s    1.13020     4 1s   -1.13020     5 1s    1.13020
                                    6 1s   -1.13020
   12.1    -0.00000     0.30674     1 1s    1.99924     2 1s   -1.99924     3 1s   -1.07360     4 1s   -1.07360     5 1s    1.07360
                                    6 1s    1.07360
   13.1    -0.00000     0.38528     1 2py  -0.25066     1 2py  -1.80483     2 2py   0.25066     2 2py   1.80483     3 1s    1.63519
                                    4 1s   -1.63519     5 1s   -1.63519     6 1s    1.63519
   14.1    -0.00000     0.47399     1 1s   -2.33173     1 2pz   2.69213     2 1s    2.33173     2 2pz   2.69213     3 1s   -0.64387
                                    4 1s   -0.64387     5 1s    0.64387     6 1s    0.64387
   15.1    -0.00000     0.67843     1 2pz  -0.56760     1 2pz   1.01286     2 2pz   0.56760     2 2pz  -1.01286
   16.1    -0.00000     0.73182     1 2py  -0.40855     1 2py   0.77997     2 2py  -0.40855     2 2py   0.77997     3 1s   -0.37096
                                    4 1s    0.37096     5 1s   -0.37096     6 1s    0.37096
   17.1    -0.00000     0.78345     1 2px  -0.76021     1 2px   0.63381     2 2px  -0.76021     2 2px   0.63381
   18.1    -0.00000     0.86144     1 1s   -0.90246     1 1s    1.55363     1 2pz   0.36678     2 1s   -0.90246     2 1s    1.55363
                                    2 2pz  -0.36678     3 1s   -0.38796     3 1s   -0.27849     4 1s   -0.38796     4 1s   -0.27849
                                    5 1s   -0.38796     5 1s   -0.27849     6 1s   -0.38796     6 1s   -0.27849
   19.1    -0.00000     0.86763     1 2px  -0.79851     1 2px   1.07955     2 2px   0.79851     2 2px  -1.07955
   20.1    -0.00000     0.89530     1 1s   -0.32981     1 2pz   0.63438     1 2pz  -0.87684     2 1s    0.32981     2 2pz   0.63438
                                    2 2pz  -0.87684     3 1s    0.35600     4 1s    0.35600     5 1s   -0.35600     6 1s   -0.35600
   21.1    -0.00000     1.13219     1 2py   0.69004     1 2py  -1.09525     2 2py   0.69004     2 2py  -1.09525     3 1s   -0.39100
                                    3 1s    1.07346     4 1s    0.39100     4 1s   -1.07346     5 1s   -0.39100     5 1s    1.07346
                                    6 1s    0.39100     6 1s   -1.07346
   22.1    -0.00000     1.15085     1 2py   0.91868     1 2py  -2.97386     2 2py  -0.91868     2 2py   2.97386     3 1s    1.56447
                                    4 1s   -1.56447     5 1s   -1.56447     6 1s    1.56447
   23.1    -0.00000     1.22638     1 1s   -0.83540     1 2pz  -0.64869     1 2pz   1.61383     2 1s    0.83540     2 2pz  -0.64869
                                    2 2pz   1.61383     3 1s    0.50422     3 1s   -0.82779     4 1s    0.50422     4 1s   -0.82779
                                    5 1s   -0.50422     5 1s    0.82779     6 1s   -0.50422     6 1s    0.82779
   24.1    -0.00000     1.22889     1 1s    1.03244     1 1s   -1.74139     1 2pz   0.36714     1 2pz  -0.50295     2 1s    1.03244
                                    2 1s   -1.74139     2 2pz  -0.36714     2 2pz   0.50295     3 1s   -0.44647     3 1s    0.87682
                                    4 1s   -0.44647     4 1s    0.87682     5 1s   -0.44647     5 1s    0.87682     6 1s   -0.44647
                                    6 1s    0.87682
   25.1    -0.00000     1.29403     1 1s   -1.67225     1 1s    4.97672     1 2pz  -1.31502     2 1s    1.67225     2 1s   -4.97672
                                    2 2pz  -1.31502     3 1s   -0.62033     4 1s   -0.62033     5 1s    0.62033     6 1s    0.62033
   26.1    -0.00000     1.43538     1 2py   2.30759     2 2py  -2.30759     3 1s   -0.68682     3 1s   -0.60235     4 1s    0.68682
                                    4 1s    0.60235     5 1s    0.68682     5 1s    0.60235     6 1s   -0.68682     6 1s   -0.60235
   27.1    -0.00000     1.69921     1 3d1+  0.62692     2 3d1+ -0.62692
   28.1    -0.00000     1.82679     1 3d2-  0.68622     2 3d2-  0.68622
   29.1    -0.00000     2.08180     1 3d2-  0.73003     2 3d2- -0.73003
   30.1    -0.00000     2.21819     1 1s    0.30140     1 1s   -0.62785     1 3d0  -0.29103     1 3d2+  0.66187     2 1s    0.30140
                                    2 1s   -0.62785     2 3d0  -0.29103     2 3d2+  0.66187     3 1s    0.33673     4 1s    0.33673
                                    5 1s    0.33673     6 1s    0.33673
   31.1    -0.00000     2.33031     1 1s   -0.42567     1 2pz   0.25206     1 2pz  -0.46743     1 3d0   0.61931     1 3d2+  0.33357
                                    2 1s   -0.42567     2 2pz  -0.25206     2 2pz   0.46743     2 3d0   0.61931     2 3d2+  0.33357
                                    3 1s    0.25676     4 1s    0.25676     5 1s    0.25676     6 1s    0.25676
   32.1    -0.00000     2.33202     1 2py   0.28284     1 3d1-  0.70644     2 2py   0.28284     2 3d1- -0.70644     3 1s   -0.53755
                                    4 1s    0.53755     5 1s   -0.53755     6 1s    0.53755
   33.1    -0.00000     2.59252     1 1s    0.26673     1 1s   -1.19721     1 3d2+  0.79529     2 1s   -0.26673     2 1s    1.19721
                                    2 3d2+ -0.79529     3 1s    0.45782     4 1s    0.45782     5 1s   -0.45782     6 1s   -0.45782
   34.1    -0.00000     2.62491     1 2px  -0.25477     1 3d1+  0.86983     2 2px   0.25477     2 3d1+  0.86983
   35.1    -0.00000     2.98686     1 1s    1.96942     1 2pz  -0.63937     1 2pz  -1.17957     1 3d0   1.07563     2 1s   -1.96942
                                    2 2pz  -0.63937     2 2pz  -1.17957     2 3d0  -1.07563
   36.1    -0.00000     3.02997     1 2py   0.60213     1 3d1-  0.94490     2 2py  -0.60213     2 3d1-  0.94490     3 1s   -0.50591
                                    4 1s    0.50591     5 1s    0.50591     6 1s   -0.50591


 Natural orbital dump (state averaged) at molpro section  2140.2    (Orbital set 2)



 **********************************************************************************************************************************
 DATASETS  * FILE   NREC   LENGTH (MB)   RECORD NAMES
              1      20       31.36       500      610      700      900      950      970     1000      129      960     1100   
                                          VAR    BASINP    GEOM    SYMINP    ZMAT    AOBASIS   BASIS     P2S    ABASIS      S 
                                         1400     1410     1200     1210     1080     1600     1650     1300     1700     1380   
                                           T        V       H0       H01     AOSYM     SMH    MOLCAS    ERIS     OPER     JKOP   

              2       5        5.42       700     1000      520     2100     2140   
                                         GEOM     BASIS   MCVARS     RHF     MCSCF   

 PROGRAMS   *        TOTAL     MULTI    HF-SCF       INT
 CPU TIMES  *         0.53      0.14      0.10      0.21
 REAL TIME  *         0.83 SEC
 DISK USED  *        38.54 MB
 **********************************************************************************************************************************
 Molecular orbitals read from record     2140.2  Type=MCSCF/NATURAL (state averaged)
 Occupation numbers read from record     2140.2  Type=MCSCF/NATURAL (state averaged)
 Orbital energies read from record       2140.2  Type=MCSCF/NATURAL (state averaged)
 Redundancy group numbers read from rec  2140.2  Type=MCSCF/NATURAL (state averaged)

 MULTI/6-31G* energy=    -77.520356822001

           MULTI          HF-SCF
    -77.52035682    -78.02350225
 **********************************************************************************************************************************
 Molpro calculation terminated
