
 Primary working directories    : /scratch.local/johan406.molpro_temp/molpro.Vt0rXMywV2
 Secondary working directories  : /scratch.local/johan406.molpro_temp/molpro.Vt0rXMywV2
 Wavefunction directory         : /home/goodpast/johan406/wfu/
 Main file repository           : /scratch.local/johan406.molpro_temp/molpro.Vt0rXMywV2/

 id        : roweumn

 Nodes     nprocs
 acn09        1

 Using customized tuning parameters: mindgm=1; mindgv=20; mindgc=4; mindgr=1; noblas=0; minvec=7
 default implementation of scratch files=df  


 Variables initialized (934), CPU time= 0.00 sec
                                                                                 !leave this line blank
 
 gprint, orbitals=30
 memory, 125., m
 symmetry, nosym
 nelect=16
 basis=6-31g*
 
 geometry={
 C -0.623 0.1331 0.301
 C 0.6388 -0.1934 -0.3567
 H -1.3124 0.9533 -0.1863
 H -0.9587 -0.8615 -0.1316
 H 0.9746 0.8209 0.0828
 H 1.2273 -0.8872 0.062
 }
 
 hf
 {multi,
 closed 7
 occ 9
 wf,spin=0;STATE,3
 }
 
 Commands  initialized (763), CPU time= 0.01 sec, 617 directives.
 Default parameters read. Elapsed time= 0.08 sec

 Checking input...
 Passed
1


                                         ***  PROGRAM SYSTEM MOLPRO  ***
                                       Copyright, TTI GmbH Stuttgart, 2015
                                    Version 2019.2 linked Oct 25 2019 22:50:27


 **********************************************************************************************************************************
 LABEL *                                                                                 
  64 bit serial version                                                                  DATE: 07-Feb-23          TIME: 16:10:58  
 **********************************************************************************************************************************

 SHA1:             8dbd9ae1082e4ce945b0f27595c9eb2d4aa09004
 **********************************************************************************************************************************


 Variable memory set to  125000000 words,  buffer space 

 SETTING NELECT         =        16.00000000                                  
 SETTING BASIS          =    6-31G*
 ZSYMEL=NOSYM


Geometry recognized as XYZ



 Recomputing integrals since basis changed


 Using spherical harmonics

 Library entry C      S 6-31G                selected for orbital group  1
 Library entry C      P 6-31G                selected for orbital group  1
 Library entry C      D 6-31G*               selected for orbital group  1
 Library entry H      S 6-31G                selected for orbital group  2


 PROGRAM * SEWARD (Integral evaluation for generally contracted gaussian basis sets)     Author: Roland Lindh, 1990

 Geometry written to block  1 of record 700


 Point group  C1  



 ATOMIC COORDINATES

 NR  ATOM    CHARGE       X              Y              Z

   1  C       6.00   -1.177299376    0.251522547    0.568807563
   2  C       6.00    1.207157048   -0.365473032   -0.674065309
   3  H       1.00   -2.480076566    1.801475915   -0.352055977
   4  H       1.00   -1.811680436   -1.627999056   -0.248687958
   5  H       1.00    1.841727081    1.551276176    0.156469323
   6  H       1.00    2.319260873   -1.676565018    0.117163020

 Bond lengths in Bohr (Angstrom)

 1-2  2.758812962  1-3  2.224314166  1-4  2.145539493  2-5  2.183207372  2-6  1.892558950
     ( 1.459900949)     ( 1.177056367)     ( 1.135370605)     ( 1.155303588)     ( 1.001499066)

 Bond angles

  1-2-5   83.30904917   1-2-6  118.32477771   2-1-3  118.39534418   2-1-4   83.56839051

  3-1-4  106.23085223   5-2-6  106.16296733

 NUCLEAR CHARGE:                   16
 NUMBER OF PRIMITIVE AOS:          72
 NUMBER OF SYMMETRY AOS:           70
 NUMBER OF CONTRACTIONS:           36   (   36A   )
 NUMBER OF CORE ORBITALS:           2   (    2A   )
 NUMBER OF VALENCE ORBITALS:       12   (   12A   )


 NUCLEAR REPULSION ENERGY   32.42025024

 Eigenvalues of metric

         1 0.922E-02 0.256E-01 0.595E-01 0.649E-01 0.821E-01 0.212E+00 0.237E+00 0.271E+00


 Contracted 2-electron integrals neglected if value below      1.0D-11
 AO integral compression algorithm  1   Integral accuracy      1.0D-11

     1.573 MB (compressed) written to integral file ( 59.2%)


 NUMBER OF SORTED TWO-ELECTRON INTEGRALS:     222111.     BUFFER LENGTH:  32768
 NUMBER OF SEGMENTS:   1  SEGMENT LENGTH:     222111      RECORD LENGTH: 524288

 Memory used in sort:       0.78 MW

 SORT1 READ      284735. AND WROTE      212531. INTEGRALS IN      1 RECORDS. CPU TIME:     0.01 SEC, REAL TIME:     0.00 SEC
 SORT2 READ      212531. AND WROTE      222111. INTEGRALS IN      6 RECORDS. CPU TIME:     0.01 SEC, REAL TIME:     0.02 SEC

 FILE SIZES:   FILE 1:    31.7 MBYTE,  FILE 4:     4.2 MBYTE,   TOTAL:     35.9 MBYTE

 OPERATOR DM      FOR CENTER  0  COORDINATES:    0.000000    0.000000    0.000000


 **********************************************************************************************************************************
 DATASETS  * FILE   NREC   LENGTH (MB)   RECORD NAMES
              1      19       31.13       500      610      700      900      950      970     1000      129      960     1100   
                                          VAR    BASINP    GEOM    SYMINP    ZMAT    AOBASIS   BASIS     P2S    ABASIS      S 
                                         1400     1410     1200     1210     1080     1600     1650     1300     1700   
                                           T        V       H0       H01     AOSYM     SMH    MOLCAS    ERIS     OPER   

 PROGRAMS   *        TOTAL       INT
 CPU TIMES  *         0.30      0.19
 REAL TIME  *         0.74 SEC
 DISK USED  *        36.24 MB
 **********************************************************************************************************************************


 PROGRAM * RHF-SCF (CLOSED SHELL)       Authors: W. Meyer, H.-J. Werner


 NUMBER OF ELECTRONS:       8+    8-    SPACE SYMMETRY=1    SPIN SYMMETRY: Singlet 
 CONVERGENCE THRESHOLDS:    1.00E-05 (Density)    1.00E-07 (Energy)
 MAX. NUMBER OF ITERATIONS:       60
 INTERPOLATION TYPE:            DIIS
 INTERPOLATION STEPS:              2 (START)      1 (STEP)
 LEVEL SHIFTS:                  0.00 (CLOSED)  0.00 (OPEN) 



 Orbital guess generated from atomic densities. Full valence occupancy:    8

 Molecular orbital dump at record        2100.2

 Initial occupancy:   8

 ITERATION    DDIFF          GRAD             ENERGY        2-EL.EN.            DIPOLE MOMENTS         DIIS   ORB.
    1      0.000D+00      0.000D+00       -77.81582214    116.035880   -0.13087    0.10075    0.06995    0    start
    2      0.000D+00      0.728D-02       -77.83440995    114.979114    0.03807   -0.05035   -0.08865    1    diag
    3      0.802D-02      0.276D-02       -77.83671063    115.363752   -0.04872    0.00714    0.04742    2    diag
    4      0.328D-02      0.137D-02       -77.83742879    115.314301    0.01386   -0.03511   -0.03455    3    diag
    5      0.183D-02      0.543D-03       -77.83758342    115.269612    0.00174   -0.02750   -0.01150    4    diag
    6      0.753D-03      0.229D-03       -77.83767602    115.279988    0.00547   -0.02900   -0.01433    5    diag
    7      0.778D-03      0.103D-03       -77.83770604    115.281149    0.00569   -0.02832   -0.01447    6    diag
    8      0.518D-03      0.314D-04       -77.83770850    115.282249    0.00555   -0.02834   -0.01458    7    diag
    9      0.153D-03      0.960D-05       -77.83770868    115.282475    0.00545   -0.02828   -0.01459    8    diag
   10      0.413D-04      0.280D-05       -77.83770870    115.282464    0.00541   -0.02829   -0.01456    9    orth
   11      0.926D-05      0.653D-06       -77.83770870    115.282466    0.00540   -0.02829   -0.01457    0    orth

 Final occupancy:   8

 !RHF STATE  1.1 Energy               -77.837708695479
 Nuclear energy                        32.42025024
 One-electron energy                 -167.89919206
 Two-electron energy                   57.64123312
 Virial quotient                       -1.00065027
 !RHF STATE  1.1 Dipole moment          0.00540340    -0.02829289    -0.01456950
 Dipole moment /Debye                   0.01373317    -0.07190865    -0.03702954

 ELECTRON ORBITALS
 =================

  Orbital  Occupation    Energy     Coefficients
    1.1     2.00000   -11.26691     1 1s    0.99593
    2.1     2.00000   -11.25191     2 1s    0.99587
    3.1     2.00000    -1.03921     1 1s    0.27002     2 1s    0.29601     2 1s    0.25535
    4.1     2.00000    -0.78878     1 1s   -0.30925     2 1s    0.26157
    5.1     2.00000    -0.62438     1 2py   0.26091     2 2py   0.34538
    6.1     2.00000    -0.55798     1 2px   0.29503     1 2py  -0.25521     2 2px  -0.28878
    7.1     2.00000    -0.39216     1 2pz   0.29122     1 2pz   0.27116     2 2pz   0.31839     2 2pz   0.29125
    8.1     2.00000    -0.38703     1 2px  -0.25420     2 2px   0.28377     4 1s    0.27733     5 1s    0.28562
    9.1     0.00000     0.06257     1 1s    0.43315     1 2pz   0.32450     1 2pz   0.45313     2 1s    0.35880     2 2pz  -0.33540
                                    2 2pz  -0.48042
   10.1     0.00000     0.23022     1 1s   -1.18570     1 2px   0.47454     1 2py   0.29664     1 2pz   0.47710     2 1s   -1.00185
                                    2 2px  -0.49555     2 2py  -0.38556     2 2pz  -0.40627     3 1s    0.68544     4 1s    1.04624
                                    5 1s    1.08490     6 1s    0.50892
   11.1     0.00000     0.27604     1 1s   -1.34161     1 2py  -0.71831     1 2pz   0.52400     2 1s    1.34108     2 2pz   0.27196
                                    3 1s    1.64037     4 1s   -0.26522     5 1s   -0.32409     6 1s   -0.88571
   12.1     0.00000     0.31869     1 2px   0.46164     1 2py  -0.76632     2 1s   -1.72819     2 2px  -0.32278     2 2py   1.11291
                                    2 2pz  -0.68085     3 1s    0.77110     4 1s   -0.34501     5 1s   -0.39138     6 1s    2.30698
   13.1     0.00000     0.33513     1 1s    1.09670     1 2px  -0.29058     1 2py  -0.79989     1 2pz  -0.32763     2 1s   -1.04004
                                    2 2px  -0.27721     2 2py  -0.71223     2 2pz  -0.31806     4 1s   -1.76358     5 1s    1.62806
   14.1     0.00000     0.42401     1 1s    2.13234     1 2px   1.72703     1 2py  -0.53720     1 2pz  -0.82926     2 1s   -1.84453
                                    2 2px   1.83485     2 2py  -0.74639     2 2pz  -0.73092     3 1s    0.46417     6 1s   -0.86293
   15.1     0.00000     0.70163     1 2px   0.52279     1 2px  -0.85575     2 2px  -0.57054     2 2px   1.03549     4 1s    0.41088
                                    5 1s    0.42042     6 1s   -0.35207
   16.1     0.00000     0.75108     1 1s   -0.44811     1 2px  -0.49806     2 2py  -0.56549     2 2px  -0.62003     2 2py   1.29691
                                    3 1s   -0.40299     5 1s   -0.35454     6 1s    0.48759     6 1s    0.40777
   17.1     0.00000     0.79187     1 2py  -0.61395     1 2pz  -0.61369     1 2px  -0.26499     1 2py   1.27771     1 2pz   0.69505
                                    2 1s    0.46417     2 2py   0.28864     2 2py  -0.56959     4 1s    0.38683
   18.1     0.00000     0.80229     1 2py   0.31207     1 2pz  -0.44356     1 2py  -0.59714     1 2pz   0.35330     2 2py  -0.26356
                                    2 2pz  -0.82048     2 2py   0.51462     2 2pz   0.79611
   19.1     0.00000     0.86702     1 1s   -0.37831     1 1s    0.41412     1 2px  -0.28531     1 2py   0.27780     1 2pz  -0.71454
                                    1 2px   0.60983     1 2py  -0.74338     1 2pz   0.90501     2 1s   -0.33959     2 2pz   0.61947
                                    2 2px  -0.27963     2 2py   0.36369     2 2pz  -0.94186     3 1s    0.25823
   20.1     0.00000     0.97350     1 1s   -0.28152     1 2px   0.70446     1 2py   0.36100     1 2px  -1.14124     1 2py  -0.76579
                                    2 2px   0.72297     2 2py   0.38314     2 2px  -1.16052     2 2py  -0.78270     4 1s   -1.04684
                                    5 1s    1.04582
   21.1     0.00000     1.09897     1 1s   -0.57902     1 1s    0.68883     1 2px   0.51718     1 2py  -0.53181     1 2px  -0.83820
                                    1 2py   0.77413     2 1s    0.38605     2 2py  -0.28297     2 2px  -0.54594     2 2py   0.60433
                                    3 1s    0.91473     3 1s   -1.66205     5 1s   -0.34412     6 1s    0.59169
   22.1     0.00000     1.11833     1 1s   -0.51419     1 1s    0.88366     1 2py   0.38353     1 2px  -0.33158     1 2py  -0.36335
                                    2 1s   -0.73039     2 1s    1.43134     2 2py  -0.44687     2 2px   0.34110     2 2py   0.43788
                                    2 2pz   0.27128     4 1s    0.57708     4 1s   -1.04734     5 1s    0.71380     5 1s   -1.29760
   23.1     0.00000     1.17015     1 1s   -0.56462     1 1s    0.68899     1 2py   0.39303     1 2pz   0.27423     1 2px  -0.40016
                                    1 2py  -0.41871     2 2py   0.43523     2 2py  -0.48157     3 1s    0.25847     3 1s   -0.27860
                                    4 1s    0.83748     4 1s   -1.26575     5 1s   -0.68242     5 1s    0.95778     6 1s   -0.31915
   24.1     0.00000     1.25118     1 1s   -0.39107     1 1s    2.10606     1 2px   1.12802     1 2py  -0.74177     2 1s    0.78872
                                    2 1s   -2.97511     2 2px  -0.39635     2 2py   0.32442     2 2px   1.00445     2 2py  -0.62031
                                    2 2pz  -0.96823     3 1s    0.25770     5 1s    0.51228     5 1s    0.34747     6 1s    0.93656
                                    6 1s   -0.47893
   25.1     0.00000     1.26010     1 1s   -1.29568     1 1s    2.55135     1 2py   0.28440     1 2pz  -1.00987     2 1s   -1.23366
                                    2 1s    1.99045     2 2py   0.35706     2 2px   1.06358     2 2py  -0.94930     2 2pz   0.84709
                                    3 1s   -0.30291     3 1s   -0.66972     4 1s   -0.47668     4 1s   -0.32744     5 1s   -0.30354
                                    6 1s   -1.83723
   26.1     0.00000     1.29949     1 1s   -1.44973     1 1s    4.36495     1 2px   0.88658     1 2py  -0.56074     1 2pz  -1.15757
                                    2 1s    1.51663     2 1s   -4.49564     2 2px   0.26393     2 2px   0.81658     2 2py  -0.42580
                                    2 2pz  -0.95754     3 1s   -0.30266     3 1s   -0.33745     4 1s   -0.70441     5 1s    0.50358
                                    6 1s   -0.48364     6 1s    1.06771
   27.1     0.00000     1.69526     1 1s    0.58212     1 3d0   0.35248     1 3d2- -0.29604     1 3d2+ -0.31996     2 1s   -0.60729
                                    2 3d0  -0.34548     2 3d2-  0.29793     2 3d2+  0.33448
   28.1     0.00000     1.91014     1 1s    0.43085     1 1s   -1.16382     1 2pz   0.45706     1 3d0   0.35584     2 2px  -0.33621
                                    2 2py   0.27125     2 3d0   0.26909     2 3d1+  0.46897     2 3d2+  0.38010     2 3d1-  0.45276
                                    3 1s    0.34122     6 1s    0.29775
   29.1     0.00000     1.94779     1 1s    0.88552     1 2px   0.35406     1 3d2- -0.30781     1 3d1+  0.51787     1 3d2+  0.30999
                                    1 3d1-  0.46939     2 1s    0.40149     2 1s   -1.56730     2 2pz  -0.49142     5 1s    0.27790
                                    6 1s    0.42254
   30.1     0.00000     2.17693     1 1s   -0.28069     1 1s    1.50818     1 2px   0.34007     1 2pz  -0.39758     1 3d0  -0.49763
                                    1 3d2+ -0.36796     2 1s    0.38421     2 1s   -1.68783     2 2px   0.39679     2 2py  -0.31348
                                    2 2pz  -0.45950     2 3d0   0.61630     2 3d2+  0.33559     3 1s   -0.35337     4 1s   -0.25147
                                    5 1s    0.39084     6 1s    0.34081
   31.1     0.00000     2.24951     1 1s   -0.51093     1 1s    0.43348     1 2px  -0.26433     1 2px   0.31975     1 3d2- -0.30783
                                    1 3d1+ -0.38467     1 3d2+  0.36370     2 1s   -0.47867     2 2px   0.25059     2 2px  -0.26440
                                    2 3d2- -0.30785     2 3d1+ -0.38429     2 3d2+  0.41207
   32.1     0.00000     2.35097     1 1s   -0.38393     1 2px  -0.27736     1 2py   0.43267     1 3d0   0.60261     1 3d2- -0.36944
                                    1 3d1- -0.42406     2 1s    0.34517     2 2py  -0.27787     2 3d0   0.41561     2 3d2- -0.35415
                                    2 3d1- -0.28623     4 1s    0.49741     5 1s    0.28438     6 1s   -0.32357
   33.1     0.00000     2.56426     1 1s    0.36104     1 3d2-  0.64402     1 3d1+ -0.34853     1 3d1-  0.49154     2 1s   -0.31590
                                    2 2py  -0.35106     2 3d0   0.31103     2 3d1- -0.59334     3 1s    0.47276     4 1s   -0.37365
                                    5 1s    0.39194     6 1s   -0.36202
   34.1     0.00000     2.64588     1 1s    0.25486     1 2py  -0.37519     1 3d2- -0.31158     1 3d2+ -0.54142     1 3d1-  0.60886
                                    2 2py   0.27141     2 3d2- -0.45154     2 3d2+ -0.51855     2 3d1-  0.43276     4 1s   -0.44109
                                    5 1s   -0.31161
   35.1     0.00000     2.75843     1 3d0   0.34964     1 3d2-  0.25077     1 3d1+ -0.41054     2 1s   -0.27495     2 3d0   0.36984
                                    2 3d2-  0.72825     2 3d1+ -0.50566     2 3d1-  0.47056     5 1s   -0.27914     6 1s    0.82160
   36.1     0.00000     2.95960     1 1s    1.72323     1 2px   0.43490     1 2px   0.86539     1 2pz  -0.44059     1 3d2- -0.36881
                                    1 3d1+ -0.67879     1 3d2+  0.65085     2 1s   -1.69328     2 2px   0.44228     2 2px   0.87990
                                    2 2py  -0.25727     2 2pz  -0.43310     2 3d2-  0.31040     2 3d1+  0.71829     2 3d2+ -0.63582


 HOMO      8.1    -0.387032 =     -10.5317eV
 LUMO      9.1     0.062571 =       1.7026eV
 LUMO-HOMO         0.449603 =      12.2343eV


 **********************************************************************************************************************************
 DATASETS  * FILE   NREC   LENGTH (MB)   RECORD NAMES
              1      19       31.13       500      610      700      900      950      970     1000      129      960     1100   
                                          VAR    BASINP    GEOM    SYMINP    ZMAT    AOBASIS   BASIS     P2S    ABASIS      S 
                                         1400     1410     1200     1210     1080     1600     1650     1300     1700   
                                           T        V       H0       H01     AOSYM     SMH    MOLCAS    ERIS     OPER   

              2       4        2.86       700     1000      520     2100   
                                         GEOM     BASIS   MCVARS     RHF  

 PROGRAMS   *        TOTAL    HF-SCF       INT
 CPU TIMES  *         0.41      0.11      0.19
 REAL TIME  *         1.14 SEC
 DISK USED  *        36.24 MB
 **********************************************************************************************************************************


 PROGRAM * MULTI (Direct Multiconfiguration SCF)       Authors: P.J. Knowles, H.-J. Werner (1984)


 Number of closed-shell orbitals:   7 (   7 )
 Number of active  orbitals:        2 (   2 )
 Number of external orbitals:      27 (  27 )

 State symmetry 1

 Number of electrons:     2    Spin symmetry=Singlet   Space symmetry=1
 Number of states:        3
 Number of CSFs:          3   (4 determinants, 4 intermediate states)

 Molecular orbitals read from record     2100.2  Type=RHF/CANONICAL (state 1.1)

 Wavefunction dump at record             2140.2

 Convergence thresholds  0.10E-01 (gradient)  0.10E-05 (energy)  0.10E-02 (step length)

 Weight factors for state symmetry  1:    0.33333   0.33333   0.33333

 Number of orbital rotations:      257   (    14 Core/Active    189 Core/Virtual   0 Active/Active     54 Active/Virtual)
 Total number of variables:        269

 Micro-Iterations solved by the two-step solver

 ITER. MIC  NCI  NEG     ENERGY(VAR)     ENERGY(PROJ)   ENERGY CHANGE     GRAD(0)  GRAD(ORB)   GRAD(CI)     STEP       TIME

   1   13    7    0     -77.67976817     -77.70124717   -0.02147900    0.16522409 0.00119227 0.00000000  0.16D+00      0.16
   2    7    5    0     -77.70073839     -77.70081032   -0.00007194    0.01304948 0.00002739 0.00000000  0.74D-02      0.26
   3    8    5    0     -77.70081050     -77.70081050   -0.00000000    0.00004917 0.00000000 0.00000000  0.54D-04      0.36
   4    3    3    0     -77.70081050     -77.70081050    0.00000000    0.00000000 0.00000000 0.00000000  0.18D-08      0.41

 ** WVFN ****  CONVERGENCE REACHED, FINAL GRADIENT:  0.38D-12



 Results for state 1.1
 =====================

 !MCSCF STATE  1.1 Energy             -77.831330489533
 Nuclear energy                        32.42025024
 Kinetic energy                        77.84307957
 One electron energy                 -167.97610444
 Two electron energy                   57.72452371
 Virial ratio                           1.99984907

 !MCSCF STATE  1.1 Dipole moment       -0.00343627    -0.02784882    -0.01468949
 Dipole moment /Debye                  -0.00873355    -0.07078000    -0.03733451

 Results for state 2.1
 =====================

 !MCSCF STATE  2.1 Energy             -77.728455768806
 Nuclear energy                        32.42025024
 Kinetic energy                        77.91908946
 One electron energy                 -167.67095336
 Two electron energy                   57.52224735
 Virial ratio                           1.99755344

 !MCSCF STATE  2.1 Dipole moment        0.03138117    -0.02435317    -0.00213223
 Dipole moment /Debye                   0.07975774    -0.06189552    -0.00541924

 Results for state 3.1
 =====================

 !MCSCF STATE  3.1 Energy             -77.542645246713
 Nuclear energy                        32.42025024
 Kinetic energy                        77.98053332
 One electron energy                 -167.41197567
 Two electron energy                   57.44908018
 Virial ratio                           1.99438465

 !MCSCF STATE  3.1 Dipole moment        0.07653009    -0.02660886     0.01280889
 Dipole moment /Debye                   0.19450736    -0.06762854     0.03255481

 State-averaged charge density matrix saved on record  2140.2 (density set 1)

 !MCSCF expec         <1.1|DMX|1.1>    -0.003436266327 au =    -0.008733545773 Debye
 !MCSCF trans         <2.1|DMX|1.1>     0.023706149558 au =     0.060251075594 Debye
 !MCSCF expec         <2.1|DMX|2.1>     0.031381165575 au =     0.079757742802 Debye
 !MCSCF trans         <3.1|DMX|1.1>    -0.002071106685 au =    -0.005263883330 Debye
 !MCSCF trans         <3.1|DMX|2.1>     0.022967319539 au =     0.058373279994 Debye
 !MCSCF expec         <3.1|DMX|3.1>     0.076530093609 au =     0.194507355314 Debye

 !MCSCF expec         <1.1|DMY|1.1>    -0.027848817011 au =    -0.070779996339 Debye
 !MCSCF trans         <2.1|DMY|1.1>    -0.012310461653 au =    -0.031288023128 Debye
 !MCSCF expec         <2.1|DMY|2.1>    -0.024353166318 au =    -0.061895520451 Debye
 !MCSCF trans         <3.1|DMY|1.1>    -0.001021813364 au =    -0.002597020410 Debye
 !MCSCF trans         <3.1|DMY|2.1>    -0.013591497578 au =    -0.034543878414 Debye
 !MCSCF expec         <3.1|DMY|3.1>    -0.026608858997 au =    -0.067628543850 Debye

 !MCSCF expec         <1.1|DMZ|1.1>    -0.014689488341 au =    -0.037334509777 Debye
 !MCSCF trans         <2.1|DMZ|1.1>     0.005645138008 au =     0.014347569858 Debye
 !MCSCF expec         <2.1|DMZ|2.1>    -0.002132231674 au =    -0.005419237378 Debye
 !MCSCF trans         <3.1|DMZ|1.1>    -0.000907890884 au =    -0.002307477313 Debye
 !MCSCF trans         <3.1|DMZ|2.1>     0.005140042714 au =     0.013063829762 Debye
 !MCSCF expec         <3.1|DMZ|3.1>     0.012808886923 au =     0.032554810827 Debye


 NATURAL ORBITALS (state averaged)
 =================================

  Orbital  Occupation    Energy     Coefficients
    1.1     2.00000   -11.26196     1 1s    0.99600
    2.1     2.00000   -11.24650     2 1s    0.99593
    3.1     2.00000    -1.05185     1 1s    0.26676     2 1s    0.28936     2 1s    0.25206
    4.1     2.00000    -0.78986     1 1s   -0.33040     2 1s    0.28950
    5.1     2.00000    -0.62769     2 2py   0.34499
    6.1     2.00000    -0.55604     1 2px   0.25808     1 2py  -0.28232
    7.1     2.00000    -0.41954     1 2pz   0.32250     1 2pz   0.27728     2 2pz   0.32766     2 2pz   0.28323
    8.1     1.00000    -0.08742     1 1s    0.28589     1 2pz   0.40043     1 2pz   0.42228     2 2pz  -0.40813     2 2pz  -0.43543
    9.1     1.00000    -0.23083     1 2px  -0.30975     2 2px   0.31079     4 1s    0.29310     5 1s    0.29552
   10.1    -0.00000     0.21833     1 1s   -1.17001     1 2px   0.46913     1 2py   0.32513     1 2pz   0.40553     2 1s   -1.03888
                                    2 2px  -0.49080     2 2py  -0.40198     2 2pz  -0.35326     3 1s    0.62395     4 1s    1.06288
                                    5 1s    1.10145     6 1s    0.49481
   11.1    -0.00000     0.27519     1 1s   -1.47505     1 2py  -0.63681     1 2pz   0.52900     2 1s    1.40376     2 2pz   0.30805
                                    3 1s    1.64033     5 1s   -0.39420     6 1s   -0.91126
   12.1    -0.00000     0.31862     1 1s    0.99291     1 2py  -0.27236     1 2py  -1.15882     2 1s   -1.79548     2 2px  -0.29743
                                    2 2pz  -0.62297     3 1s    0.54722     4 1s   -1.70435     5 1s    1.22304     6 1s    1.10912
   13.1    -0.00000     0.32151     1 1s   -0.56303     1 2px   0.47077     1 2pz   0.32810     2 1s   -0.95043     2 2py   0.30732
                                    2 2py   1.35256     2 2pz  -0.38154     3 1s    0.63274     4 1s    0.63486     5 1s   -1.13533
                                    6 1s    2.02126
   14.1    -0.00000     0.43008     1 1s    1.98862     1 2px   1.74258     1 2py  -0.43402     1 2pz  -0.76836     2 1s   -1.71879
                                    2 2px   1.84259     2 2py  -0.63659     2 2pz  -0.67851     3 1s    0.47013     6 1s   -0.85310
   15.1    -0.00000     0.69853     1 2px   0.51402     1 2px  -0.83922     2 2px  -0.55383     2 2px   1.00676     4 1s   -0.26577
                                    4 1s    0.46697     5 1s    0.48259     6 1s   -0.34398
   16.1    -0.00000     0.74798     1 1s   -0.54098     1 2px  -0.50881     2 2py  -0.54183     2 2px  -0.70437     2 2py   1.30367
                                    3 1s   -0.40121     5 1s   -0.37249     6 1s    0.49154     6 1s    0.40474
   17.1    -0.00000     0.79095     1 1s   -0.35534     1 2py  -0.59285     1 2pz  -0.58876     1 2px  -0.32785     1 2py   1.29943
                                    1 2pz   0.77178     2 1s    0.56251     2 2py   0.29815     2 2py  -0.57875     4 1s    0.39249
   18.1    -0.00000     0.80206     1 2py   0.28629     1 2pz  -0.46054     1 2py  -0.51716     1 2pz   0.38832     2 2pz  -0.82152
                                    2 2py   0.49819     2 2pz   0.89799
   19.1    -0.00000     0.86517     1 1s   -0.33558     1 1s    0.35699     1 2px  -0.29784     1 2py   0.27934     1 2pz  -0.69785
                                    1 2px   0.65273     1 2py  -0.75532     1 2pz   0.95870     2 1s   -0.30011     2 2pz   0.58629
                                    2 2px  -0.30564     2 2py   0.36468     2 2pz  -0.98918     3 1s    0.31074
   20.1    -0.00000     0.98014     1 2px   0.70068     1 2py   0.36547     1 2px  -1.06050     1 2py  -0.78069     2 2px   0.72007
                                    2 2py   0.39181     2 2px  -1.08141     2 2py  -0.80437     4 1s   -1.00385     5 1s    1.01635
   21.1    -0.00000     1.09122     1 1s   -0.62470     1 1s    1.00145     1 2px   0.41845     1 2px  -0.56851     2 1s   -0.71457
                                    2 1s    1.34707     2 2py  -0.55087     2 2py   0.67344     3 1s   -0.39016     4 1s    0.48316
                                    4 1s   -0.84024     5 1s    0.76820     5 1s   -1.34915
   22.1    -0.00000     1.10429     1 1s   -0.27673     1 2px   0.39344     1 2py  -0.68332     1 2px  -0.62459     1 2py   0.90640
                                    2 2px   0.30968     2 2px  -0.64153     2 2py   0.44779     3 1s    0.89442     3 1s   -1.55278
                                    4 1s   -0.34845     4 1s    0.64962     6 1s    0.60272
   23.1    -0.00000     1.13415     1 1s   -0.61237     1 1s    0.69631     1 2py   0.34564     1 2pz   0.27070     1 2px  -0.56700
                                    1 2py  -0.33011     2 2py   0.37041     2 2px  -0.32869     2 2py  -0.35219     3 1s    0.37887
                                    3 1s   -0.49847     4 1s    0.83958     4 1s   -1.26966     5 1s   -0.66493     5 1s    0.93082
   24.1    -0.00000     1.24346     1 1s    1.16299     1 2px   1.14349     1 2py  -0.81047     2 1s    1.24824     2 1s   -3.66504
                                    2 2px  -0.31344     2 2px   0.58856     2 2py  -0.26439     2 2pz  -1.23494     3 1s    0.35956
                                    3 1s    0.37872     5 1s    0.50069     5 1s    0.52210     6 1s    0.81794
   25.1    -0.00000     1.25691     1 1s   -1.51898     1 1s    3.54837     1 2px   0.35064     1 2pz  -1.12041     2 1s   -0.75370
                                    2 1s    0.46472     2 2px  -0.27559     2 2py   0.45030     2 2px   1.41176     2 2py  -1.15495
                                    2 2pz   0.35804     3 1s   -0.62035     4 1s   -0.42086     4 1s   -0.47061     6 1s    0.43383
                                    6 1s   -1.79935
   26.1    -0.00000     1.29600     1 1s   -1.31929     1 1s    4.04492     1 2px   0.84569     1 2py  -0.51080     1 2pz  -1.05459
                                    2 1s    1.55560     2 1s   -4.46217     2 2px   0.29308     2 2px   0.70314     2 2py  -0.28966
                                    2 2pz  -0.94155     3 1s   -0.30328     3 1s   -0.29436     4 1s   -0.62491     5 1s    0.44637
                                    6 1s   -0.54228     6 1s    1.23046
   27.1    -0.00000     1.68990     1 1s    0.60965     1 3d0   0.34585     1 3d2- -0.30031     1 3d2+ -0.32228     2 1s   -0.63200
                                    2 3d0  -0.33965     2 3d2-  0.30140     2 3d2+  0.33623
   28.1    -0.00000     1.90720     1 1s    0.42000     1 1s   -1.14417     1 2pz   0.44878     1 3d0   0.35318     1 3d2+  0.25153
                                    2 2px  -0.33530     2 2py   0.27501     2 3d0   0.26583     2 3d1+  0.46851     2 3d2+  0.38777
                                    2 3d1-  0.45235     3 1s    0.34251     6 1s    0.29712
   29.1    -0.00000     1.94479     1 1s    0.85828     1 2px   0.34633     1 3d2- -0.30970     1 3d1+  0.51793     1 3d2+  0.31617
                                    1 3d1-  0.46904     2 1s    0.38888     2 1s   -1.52943     2 2pz  -0.48021     5 1s    0.27001
                                    6 1s    0.42414
   30.1    -0.00000     2.17691     1 1s   -0.29266     1 1s    1.50325     1 2px   0.33723     1 2pz  -0.39615     1 3d0  -0.50090
                                    1 3d2+ -0.36474     2 1s    0.37915     2 1s   -1.66634     2 2px   0.38879     2 2py  -0.31619
                                    2 2pz  -0.44869     2 3d0   0.61960     2 3d2+  0.34384     3 1s   -0.35411     5 1s    0.38814
                                    6 1s    0.33798
   31.1    -0.00000     2.24460     1 1s   -0.49907     1 1s    0.38826     1 2px  -0.27231     1 2px   0.29979     1 3d2- -0.31639
                                    1 3d1+ -0.39026     1 3d2+  0.36952     2 1s   -0.48160     2 1s    0.26807     2 2px   0.25797
                                    2 2px  -0.27056     2 3d2- -0.32210     2 3d1+ -0.39645     2 3d2+  0.40442
   32.1    -0.00000     2.34512     1 1s   -0.41316     1 2px  -0.29436     1 2py   0.45234     1 3d0   0.60777     1 3d2- -0.36586
                                    1 3d1- -0.43983     2 1s    0.34846     2 2py  -0.28713     2 3d0   0.40852     2 3d2- -0.34671
                                    2 3d1- -0.29414     4 1s    0.48920     5 1s    0.26894     6 1s   -0.33889
   33.1    -0.00000     2.56018     1 1s    0.33785     1 3d2-  0.64222     1 3d1+ -0.33626     1 3d1-  0.47930     2 1s   -0.29814
                                    2 2py  -0.36240     2 3d0   0.30243     2 3d1- -0.61145     3 1s    0.46986     4 1s   -0.35327
                                    5 1s    0.39513     6 1s   -0.38076
   34.1    -0.00000     2.63793     1 1s    0.25696     1 2py  -0.38281     1 3d2- -0.30955     1 3d2+ -0.53792     1 3d1-  0.61852
                                    2 2py   0.26921     2 3d2- -0.46965     2 3d2+ -0.51043     2 3d1-  0.41983     4 1s   -0.43549
                                    5 1s   -0.29433
   35.1    -0.00000     2.76150     1 3d0   0.35605     1 3d1+ -0.42529     2 1s   -0.28618     2 3d0   0.38517     2 3d2-  0.71234
                                    2 3d1+ -0.50628     2 3d1-  0.46351     5 1s   -0.26676     6 1s    0.81290
   36.1    -0.00000     2.95518     1 1s    1.75332     1 2px   0.42854     1 2px   0.87709     1 2pz  -0.44829     1 3d2- -0.36743
                                    1 3d1+ -0.68026     1 3d2+  0.64833     2 1s   -1.72225     2 2px   0.43630     2 2px   0.89206
                                    2 2py  -0.26547     2 2pz  -0.44095     2 3d2-  0.30661     2 3d1+  0.72252     2 3d2+ -0.63271


 Natural orbital dump (state averaged) at molpro section  2140.2    (Orbital set 2)



 **********************************************************************************************************************************
 DATASETS  * FILE   NREC   LENGTH (MB)   RECORD NAMES
              1      20       31.86       500      610      700      900      950      970     1000      129      960     1100   
                                          VAR    BASINP    GEOM    SYMINP    ZMAT    AOBASIS   BASIS     P2S    ABASIS      S 
                                         1400     1410     1200     1210     1080     1600     1650     1300     1700     1380   
                                           T        V       H0       H01     AOSYM     SMH    MOLCAS    ERIS     OPER     JKOP   

              2       5        5.42       700     1000      520     2100     2140   
                                         GEOM     BASIS   MCVARS     RHF     MCSCF   

 PROGRAMS   *        TOTAL     MULTI    HF-SCF       INT
 CPU TIMES  *         0.86      0.45      0.11      0.19
 REAL TIME  *         1.87 SEC
 DISK USED  *        39.04 MB
 **********************************************************************************************************************************
 Molecular orbitals read from record     2140.2  Type=MCSCF/NATURAL (state averaged)
 Occupation numbers read from record     2140.2  Type=MCSCF/NATURAL (state averaged)
 Orbital energies read from record       2140.2  Type=MCSCF/NATURAL (state averaged)
 Redundancy group numbers read from rec  2140.2  Type=MCSCF/NATURAL (state averaged)

 MULTI/6-31G* energy=    -77.542645246713

           MULTI          HF-SCF
    -77.54264525    -77.83770870
 **********************************************************************************************************************************
 Molpro calculation terminated
