
 Primary working directories    : /scratch.local/johan406.molpro_temp/molpro.pdKlAqlCsO
 Secondary working directories  : /scratch.local/johan406.molpro_temp/molpro.pdKlAqlCsO
 Wavefunction directory         : /home/goodpast/johan406/wfu/
 Main file repository           : /scratch.local/johan406.molpro_temp/molpro.pdKlAqlCsO/

 id        : roweumn

 Nodes     nprocs
 acn09        1

 Using customized tuning parameters: mindgm=1; mindgv=20; mindgc=4; mindgr=1; noblas=0; minvec=7
 default implementation of scratch files=df  


 Variables initialized (934), CPU time= 0.00 sec
                                                                                 !leave this line blank
 
 gprint, orbitals=30
 memory, 125., m
 symmetry, nosym
 nelect=16
 basis=6-31g*
 
 geometry={
 C -0.6216 0.1311 0.3019
 C 0.6403 -0.1958 -0.3557
 H -1.3311 0.9768 -0.1992
 H -0.9573 -0.8596 -0.1292
 H 0.976 0.8228 0.0852
 H 1.2071 -0.8627 0.0486
 }
 
 hf
 {multi,
 closed 7
 occ 9
 wf,spin=0;STATE,3
 }
 
 Commands  initialized (763), CPU time= 0.01 sec, 617 directives.
 Default parameters read. Elapsed time= 0.08 sec

 Checking input...
 Passed
1


                                         ***  PROGRAM SYSTEM MOLPRO  ***
                                       Copyright, TTI GmbH Stuttgart, 2015
                                    Version 2019.2 linked Oct 25 2019 22:50:27


 **********************************************************************************************************************************
 LABEL *                                                                                 
  64 bit serial version                                                                  DATE: 07-Feb-23          TIME: 16:12:05  
 **********************************************************************************************************************************

 SHA1:             8dbd9ae1082e4ce945b0f27595c9eb2d4aa09004
 **********************************************************************************************************************************


 Variable memory set to  125000000 words,  buffer space 

 SETTING NELECT         =        16.00000000                                  
 SETTING BASIS          =    6-31G*
 ZSYMEL=NOSYM


Geometry recognized as XYZ



 Recomputing integrals since basis changed


 Using spherical harmonics

 Library entry C      S 6-31G                selected for orbital group  1
 Library entry C      P 6-31G                selected for orbital group  1
 Library entry C      D 6-31G*               selected for orbital group  1
 Library entry H      S 6-31G                selected for orbital group  2


 PROGRAM * SEWARD (Integral evaluation for generally contracted gaussian basis sets)     Author: Roland Lindh, 1990

 Geometry written to block  1 of record 700


 Point group  C1  



 ATOMIC COORDINATES

 NR  ATOM    CHARGE       X              Y              Z

   1  C       6.00   -1.174653759    0.247743095    0.570508317
   2  C       6.00    1.209991638   -0.370008375   -0.672175583
   3  H       1.00   -2.515414444    1.845884478   -0.376433444
   4  H       1.00   -1.809034819   -1.624408577   -0.244152615
   5  H       1.00    1.844372698    1.554866655    0.161004666
   6  H       1.00    2.281088405   -1.630266728    0.091840690

 Bond lengths in Bohr (Angstrom)

 1-2  2.759060315  1-3  2.290937318  1-4  2.138004594  2-5  2.191294717  2-6  1.821872735
     ( 1.460031842)     ( 1.212311820)     ( 1.131383308)     ( 1.159583227)     ( 0.964093533)

 Bond angles

  1-2-5   83.23970160   1-2-6  118.30262805   2-1-3  118.41444747   2-1-4   83.61393409

  3-1-4  106.24221734   5-2-6  106.14004929

 NUCLEAR CHARGE:                   16
 NUMBER OF PRIMITIVE AOS:          72
 NUMBER OF SYMMETRY AOS:           70
 NUMBER OF CONTRACTIONS:           36   (   36A   )
 NUMBER OF CORE ORBITALS:           2   (    2A   )
 NUMBER OF VALENCE ORBITALS:       12   (   12A   )


 NUCLEAR REPULSION ENERGY   32.46765552

 Eigenvalues of metric

         1 0.918E-02 0.242E-01 0.595E-01 0.653E-01 0.839E-01 0.205E+00 0.237E+00 0.269E+00


 Contracted 2-electron integrals neglected if value below      1.0D-11
 AO integral compression algorithm  1   Integral accuracy      1.0D-11

     1.573 MB (compressed) written to integral file ( 59.2%)


 NUMBER OF SORTED TWO-ELECTRON INTEGRALS:     222111.     BUFFER LENGTH:  32768
 NUMBER OF SEGMENTS:   1  SEGMENT LENGTH:     222111      RECORD LENGTH: 524288

 Memory used in sort:       0.78 MW

 SORT1 READ      284735. AND WROTE      212530. INTEGRALS IN      1 RECORDS. CPU TIME:     0.00 SEC, REAL TIME:     0.00 SEC
 SORT2 READ      212530. AND WROTE      222111. INTEGRALS IN      6 RECORDS. CPU TIME:     0.02 SEC, REAL TIME:     0.03 SEC

 FILE SIZES:   FILE 1:    31.7 MBYTE,  FILE 4:     4.2 MBYTE,   TOTAL:     35.9 MBYTE

 OPERATOR DM      FOR CENTER  0  COORDINATES:    0.000000    0.000000    0.000000


 **********************************************************************************************************************************
 DATASETS  * FILE   NREC   LENGTH (MB)   RECORD NAMES
              1      19       31.13       500      610      700      900      950      970     1000      129      960     1100   
                                          VAR    BASINP    GEOM    SYMINP    ZMAT    AOBASIS   BASIS     P2S    ABASIS      S 
                                         1400     1410     1200     1210     1080     1600     1650     1300     1700   
                                           T        V       H0       H01     AOSYM     SMH    MOLCAS    ERIS     OPER   

 PROGRAMS   *        TOTAL       INT
 CPU TIMES  *         0.30      0.18
 REAL TIME  *         0.45 SEC
 DISK USED  *        36.24 MB
 **********************************************************************************************************************************


 PROGRAM * RHF-SCF (CLOSED SHELL)       Authors: W. Meyer, H.-J. Werner


 NUMBER OF ELECTRONS:       8+    8-    SPACE SYMMETRY=1    SPIN SYMMETRY: Singlet 
 CONVERGENCE THRESHOLDS:    1.00E-05 (Density)    1.00E-07 (Energy)
 MAX. NUMBER OF ITERATIONS:       60
 INTERPOLATION TYPE:            DIIS
 INTERPOLATION STEPS:              2 (START)      1 (STEP)
 LEVEL SHIFTS:                  0.00 (CLOSED)  0.00 (OPEN) 



 Orbital guess generated from atomic densities. Full valence occupancy:    8

 Molecular orbital dump at record        2100.2

 Initial occupancy:   8

 ITERATION    DDIFF          GRAD             ENERGY        2-EL.EN.            DIPOLE MOMENTS         DIIS   ORB.
    1      0.000D+00      0.000D+00       -77.80344469    116.120223   -0.18753    0.14448    0.10085    0    start
    2      0.000D+00      0.753D-02       -77.82263039    115.027969    0.05454   -0.07164   -0.12680    1    diag
    3      0.849D-02      0.320D-02       -77.82534088    115.390024   -0.06177    0.00543    0.05528    2    diag
    4      0.355D-02      0.156D-02       -77.82624931    115.378451    0.01139   -0.04390   -0.03812    3    diag
    5      0.199D-02      0.551D-03       -77.82641723    115.322202    0.00289   -0.03903   -0.01741    4    diag
    6      0.814D-03      0.231D-03       -77.82651097    115.332639    0.00707   -0.04043   -0.01978    5    diag
    7      0.783D-03      0.104D-03       -77.82654120    115.333713    0.00749   -0.03957   -0.02008    6    diag
    8      0.509D-03      0.337D-04       -77.82654407    115.334882    0.00732   -0.03954   -0.02023    7    diag
    9      0.163D-03      0.107D-04       -77.82654430    115.335147    0.00717   -0.03947   -0.02025    8    diag
   10      0.466D-04      0.305D-05       -77.82654432    115.335144    0.00710   -0.03948   -0.02021    9    orth
   11      0.107D-04      0.746D-06       -77.82654432    115.335139    0.00708   -0.03948   -0.02020    9    diag
   12      0.208D-05      0.200D-06       -77.82654432    115.335140    0.00707   -0.03948   -0.02020    0    orth

 Final occupancy:   8

 !RHF STATE  1.1 Energy               -77.826544317906
 Nuclear energy                        32.46765552
 One-electron energy                 -167.96177008
 Two-electron energy                   57.66757025
 Virial quotient                       -1.00010590
 !RHF STATE  1.1 Dipole moment          0.00707226    -0.03948203    -0.02019941
 Dipole moment /Debye                   0.01797470    -0.10034675    -0.05133842

 ELECTRON ORBITALS
 =================

  Orbital  Occupation    Energy     Coefficients
    1.1     2.00000   -11.26999     1 1s    0.99614
    2.1     2.00000   -11.24897     2 1s    0.99604
    3.1     2.00000    -1.04120     1 1s    0.26439     2 1s    0.30161     2 1s    0.25681
    4.1     2.00000    -0.79279     1 1s   -0.31308
    5.1     2.00000    -0.62646     2 2py   0.35397
    6.1     2.00000    -0.55442     1 2px   0.29107     1 2py  -0.26556     2 2px  -0.28243
    7.1     2.00000    -0.39244     1 2pz   0.28200     1 2pz   0.26280     2 2pz   0.31976     2 2pz   0.29060
    8.1     2.00000    -0.38703     2 2px   0.28466     4 1s    0.27130     5 1s    0.28292
    9.1     0.00000     0.06184     1 1s    0.44641     1 2pz   0.32153     1 2pz   0.44558     2 1s    0.34163     2 2pz  -0.33700
                                    2 2pz  -0.48374
   10.1     0.00000     0.22893     1 1s   -1.22115     1 2px   0.47307     1 2pz   0.50211     2 1s   -0.95422     2 2px  -0.49972
                                    2 2py  -0.37741     2 2pz  -0.39917     3 1s    0.75024     4 1s    1.01481     5 1s    1.06755
                                    6 1s    0.49066
   11.1     0.00000     0.27116     1 1s   -1.15096     1 2py  -0.25901     1 2py  -0.78102     1 2pz   0.49616     2 1s    1.26850
                                    3 1s    1.57046     4 1s   -0.35924     5 1s   -0.42749     6 1s   -0.74636
   12.1     0.00000     0.32255     1 1s    0.29472     1 2px   0.48929     1 2py  -0.68326     2 1s   -2.01654     2 2px  -0.29643
                                    2 2py   1.12423     2 2pz  -0.73012     3 1s    0.58730     4 1s   -0.28968     5 1s   -0.38567
                                    6 1s    2.51409
   13.1     0.00000     0.33498     1 1s    1.12290     1 2px  -0.28758     1 2py  -0.82058     1 2pz  -0.33232     2 1s   -1.05982
                                    2 2px  -0.27506     2 2py  -0.68283     2 2pz  -0.32523     4 1s   -1.79266     5 1s    1.59666
   14.1     0.00000     0.42442     1 1s    2.15642     1 2px   1.70485     1 2py  -0.50061     1 2pz  -0.84082     2 1s   -1.74148
                                    2 2px   1.85691     2 2py  -0.79520     2 2pz  -0.70210     3 1s    0.41123     6 1s   -0.98163
   15.1     0.00000     0.70044     1 2px   0.50640     1 2px  -0.82666     2 1s    0.27611     2 2px  -0.57707     2 2px   1.09293
                                    2 2py  -0.34867     4 1s    0.39716     5 1s    0.40768     6 1s   -0.44353
   16.1     0.00000     0.74593     1 1s   -0.43915     1 2px   0.26432     1 2px  -0.47527     2 1s   -0.28422     2 2py  -0.58514
                                    2 2px  -0.57306     2 2py   1.37172     2 2pz  -0.25067     3 1s   -0.37548     5 1s   -0.37061
                                    6 1s    0.46659     6 1s    0.51204
   17.1     0.00000     0.79278     1 1s   -0.28463     1 2py  -0.53690     1 2pz  -0.70959     1 2py   1.11252     1 2pz   0.81172
                                    2 1s    0.45390     2 2pz  -0.26112     2 2py  -0.32152     2 2pz   0.28639     4 1s    0.37177
   18.1     0.00000     0.80476     1 2py   0.42906     1 2pz  -0.27377     1 2px   0.26901     1 2py  -0.81815     2 2py  -0.29545
                                    2 2pz  -0.81252     2 2py   0.54417     2 2pz   0.79776
   19.1     0.00000     0.86939     1 1s   -0.38948     1 1s    0.52347     1 2px  -0.30514     1 2py   0.33208     1 2pz  -0.71362
                                    1 2px   0.66860     1 2py  -0.83876     1 2pz   0.85916     2 1s   -0.33565     2 2pz   0.58001
                                    2 2py   0.29644     2 2pz  -0.91210     3 1s    0.26547
   20.1     0.00000     0.97302     1 1s   -0.31190     1 2px   0.69735     1 2py   0.35724     1 2px  -1.13630     1 2py  -0.76230
                                    2 2px   0.72354     2 2py   0.38921     2 2px  -1.16305     2 2py  -0.78835     4 1s   -1.04437
                                    5 1s    1.04498
   21.1     0.00000     1.07864     1 1s   -0.61855     1 1s    0.78552     1 2px   0.50590     1 2py  -0.49416     1 2px  -0.80329
                                    1 2py   0.69172     2 2px  -0.54479     2 2py   0.52632     3 1s    0.94309     3 1s   -1.65325
                                    6 1s    0.56281
   22.1     0.00000     1.11735     1 1s   -0.48074     1 1s    0.77457     1 2px   0.25720     1 2py   0.33097     1 2px  -0.37693
                                    1 2py  -0.28909     2 1s   -0.76083     2 1s    1.53035     2 2py  -0.48349     2 2px   0.29386
                                    2 2py   0.49995     2 2pz   0.29283     4 1s    0.53681     4 1s   -0.96191     5 1s    0.74867
                                    5 1s   -1.36274
   23.1     0.00000     1.16972     1 1s   -0.54927     1 1s    0.67393     1 2py   0.45286     1 2pz   0.26584     1 2px  -0.38631
                                    1 2py  -0.48193     2 2py   0.40701     2 2py  -0.47132     4 1s    0.87315     4 1s   -1.33754
                                    5 1s   -0.65768     5 1s    0.90829     6 1s   -0.32159
   24.1     0.00000     1.25400     1 1s   -0.30700     1 1s   -0.67932     1 2px  -1.04799     1 2py   0.82015     1 2pz  -0.26162
                                    2 1s   -1.55048     2 1s    4.19033     2 2pz   1.40285     3 1s   -0.33811     3 1s   -0.46685
                                    5 1s   -0.55661     5 1s   -0.51701     6 1s   -0.56151     6 1s   -0.98893
   25.1     0.00000     1.27414     1 1s   -1.74299     1 1s    4.70114     1 2px   0.86308     1 2py  -0.42954     1 2pz  -1.34719
                                    2 1s   -1.74606     2 2py   0.40212     2 2px   1.67838     2 2py  -1.25248     3 1s   -0.25682
                                    3 1s   -0.45160     4 1s   -0.43492     4 1s   -0.62863     6 1s    0.41997     6 1s   -1.29505
   26.1     0.00000     1.32636     1 1s   -0.88077     1 1s    2.64049     1 2px   0.47043     1 2py  -0.32478     1 2pz  -0.71594
                                    2 1s    1.43170     2 1s   -3.64767     2 2px   0.42026     2 2py  -0.34984     2 2pz   0.28448
                                    2 2pz  -0.76869     3 1s   -0.28213     4 1s   -0.49879     5 1s    0.36573     6 1s   -0.79833
                                    6 1s    1.65016
   27.1     0.00000     1.69477     1 1s    0.58168     1 3d0   0.35322     1 3d2- -0.29577     1 3d2+ -0.31742     2 1s   -0.61971
                                    2 3d0  -0.34334     2 3d2-  0.29858     2 3d2+  0.33808
   28.1     0.00000     1.90351     1 1s    0.43383     1 1s   -1.18928     1 2pz   0.45388     1 3d0   0.34791     2 2px  -0.35491
                                    2 2py   0.28598     2 3d1+  0.47353     2 3d2+  0.37764     2 3d1-  0.46699     3 1s    0.34590
                                    6 1s    0.31004
   29.1     0.00000     1.95250     1 1s    0.77681     1 2px   0.34362     1 3d2- -0.30196     1 3d1+  0.52888     1 3d2+  0.32355
                                    1 3d1-  0.47080     2 1s    0.39204     2 1s   -1.56312     2 2pz  -0.50067     2 3d0   0.25765
                                    5 1s    0.29161     6 1s    0.43726
   30.1     0.00000     2.17234     1 1s    1.42193     1 2px   0.31813     1 2pz  -0.37040     1 3d0  -0.46701     1 3d2+ -0.36915
                                    2 1s    0.38973     2 1s   -1.67316     2 2px   0.39313     2 2py  -0.31934     2 2pz  -0.45859
                                    2 3d0   0.62870     2 3d2+  0.32743     3 1s   -0.34691     5 1s    0.40652     6 1s    0.33548
   31.1     0.00000     2.24865     1 1s   -0.51501     1 1s    0.46782     1 2px  -0.26416     1 2px   0.32507     1 3d2- -0.31226
                                    1 3d1+ -0.38271     1 3d2+  0.35432     2 1s   -0.47471     2 2px  -0.25141     2 3d2- -0.31379
                                    2 3d1+ -0.38345     2 3d2+  0.41903
   32.1     0.00000     2.35260     1 1s   -0.52159     1 2px  -0.30811     1 2py   0.45488     1 3d0   0.63264     1 3d2- -0.36893
                                    1 3d1- -0.44392     2 1s    0.48155     2 2pz   0.27143     2 3d0   0.37548     2 3d2- -0.34498
                                    2 3d1- -0.25017     4 1s    0.53155     6 1s   -0.34129
   33.1     0.00000     2.55138     1 1s    0.41669     1 3d2-  0.64959     1 3d1+ -0.38409     1 3d1-  0.45101     2 1s   -0.33887
                                    2 2py  -0.36704     2 3d0   0.36062     2 3d1- -0.57891     3 1s    0.42903     4 1s   -0.36017
                                    5 1s    0.38044     6 1s   -0.32831
   34.1     0.00000     2.64611     1 1s    0.27875     1 2py  -0.38301     1 3d2- -0.29097     1 3d2+ -0.54599     1 3d1-  0.61634
                                    2 2py   0.26507     2 3d2- -0.42655     2 3d2+ -0.52158     2 3d1-  0.43715     4 1s   -0.45211
                                    5 1s   -0.31264
   35.1     0.00000     2.78969     1 3d0   0.30974     1 3d1+ -0.39013     2 1s   -0.40905     2 3d0   0.35555     2 3d2-  0.79386
                                    2 3d1+ -0.48407     2 3d1-  0.51034     5 1s   -0.28548     6 1s    0.94984
   36.1     0.00000     2.95958     1 1s    1.71640     1 2px   0.43550     1 2px   0.85826     1 2pz  -0.43874     1 3d2- -0.37644
                                    1 3d1+ -0.66818     1 3d2+  0.65245     2 1s   -1.66966     2 2px   0.44886     2 2px   0.88251
                                    2 2py  -0.26736     2 2pz  -0.42680     2 3d2-  0.28166     2 3d1+  0.73370     2 3d2+ -0.63151


 HOMO      8.1    -0.387035 =     -10.5317eV
 LUMO      9.1     0.061842 =       1.6828eV
 LUMO-HOMO         0.448877 =      12.2146eV


 **********************************************************************************************************************************
 DATASETS  * FILE   NREC   LENGTH (MB)   RECORD NAMES
              1      19       31.13       500      610      700      900      950      970     1000      129      960     1100   
                                          VAR    BASINP    GEOM    SYMINP    ZMAT    AOBASIS   BASIS     P2S    ABASIS      S 
                                         1400     1410     1200     1210     1080     1600     1650     1300     1700   
                                           T        V       H0       H01     AOSYM     SMH    MOLCAS    ERIS     OPER   

              2       4        2.86       700     1000      520     2100   
                                         GEOM     BASIS   MCVARS     RHF  

 PROGRAMS   *        TOTAL    HF-SCF       INT
 CPU TIMES  *         0.41      0.11      0.18
 REAL TIME  *         0.85 SEC
 DISK USED  *        36.24 MB
 **********************************************************************************************************************************


 PROGRAM * MULTI (Direct Multiconfiguration SCF)       Authors: P.J. Knowles, H.-J. Werner (1984)


 Number of closed-shell orbitals:   7 (   7 )
 Number of active  orbitals:        2 (   2 )
 Number of external orbitals:      27 (  27 )

 State symmetry 1

 Number of electrons:     2    Spin symmetry=Singlet   Space symmetry=1
 Number of states:        3
 Number of CSFs:          3   (4 determinants, 4 intermediate states)

 Molecular orbitals read from record     2100.2  Type=RHF/CANONICAL (state 1.1)

 Wavefunction dump at record             2140.2

 Convergence thresholds  0.10E-01 (gradient)  0.10E-05 (energy)  0.10E-02 (step length)

 Weight factors for state symmetry  1:    0.33333   0.33333   0.33333

 Number of orbital rotations:      257   (    14 Core/Active    189 Core/Virtual   0 Active/Active     54 Active/Virtual)
 Total number of variables:        269

 Micro-Iterations solved by the two-step solver

 ITER. MIC  NCI  NEG     ENERGY(VAR)     ENERGY(PROJ)   ENERGY CHANGE     GRAD(0)  GRAD(ORB)   GRAD(CI)     STEP       TIME

   1   11    6    0     -77.66719821     -77.69053298   -0.02333477    0.16335147 0.00084822 0.00000000  0.18D+00      0.16
   2    7    5    0     -77.68978328     -77.68991000   -0.00012672    0.01809509 0.00002893 0.00000000  0.84D-02      0.25
   3    8    5    0     -77.68991033     -77.68991033   -0.00000000    0.00007900 0.00000000 0.00000000  0.68D-04      0.35
   4    4    3    0     -77.68991033     -77.68991033   -0.00000000    0.00000000 0.00000000 0.00000000  0.38D-08      0.41

 ** WVFN ****  CONVERGENCE REACHED, FINAL GRADIENT:  0.47D-13



 Results for state 1.1
 =====================

 !MCSCF STATE  1.1 Energy             -77.820169532295
 Nuclear energy                        32.46765552
 Kinetic energy                        77.87453715
 One electron energy                 -168.03942517
 Two electron energy                   57.75160011
 Virial ratio                           1.99930186

 !MCSCF STATE  1.1 Dipole moment       -0.00540112    -0.03883368    -0.02036572
 Dipole moment /Debye                  -0.01372737    -0.09869890    -0.05176111

 Results for state 2.1
 =====================

 !MCSCF STATE  2.1 Energy             -77.717502827889
 Nuclear energy                        32.46765552
 Kinetic energy                        77.95063333
 One electron energy                 -167.73319803
 Two electron energy                   57.54803969
 Virial ratio                           1.99700925

 !MCSCF STATE  2.1 Dipole moment        0.04374642    -0.03393987    -0.00281486
 Dipole moment /Debye                   0.11118502    -0.08626089    -0.00715420

 Results for state 3.1
 =====================

 !MCSCF STATE  3.1 Energy             -77.532058626425
 Nuclear energy                        32.46765552
 Kinetic energy                        78.01179900
 One electron energy                 -167.47236994
 Two electron energy                   57.47265580
 Virial ratio                           1.99385041

 !MCSCF STATE  3.1 Dipole moment        0.10780031    -0.03735440     0.01809556
 Dipole moment /Debye                   0.27398310    -0.09493918     0.04599132

 State-averaged charge density matrix saved on record  2140.2 (density set 1)

 !MCSCF expec         <1.1|DMX|1.1>    -0.005401118110 au =    -0.013727373767 Debye
 !MCSCF trans         <2.1|DMX|1.1>     0.033935519000 au =     0.086249836381 Debye
 !MCSCF expec         <2.1|DMX|2.1>     0.043746416535 au =     0.111185017337 Debye
 !MCSCF trans         <3.1|DMX|1.1>    -0.002900268921 au =    -0.007371265485 Debye
 !MCSCF trans         <3.1|DMX|2.1>     0.032904268048 au =     0.083628829585 Debye
 !MCSCF expec         <3.1|DMX|3.1>     0.107800305479 au =     0.273983100398 Debye

 !MCSCF expec         <1.1|DMY|1.1>    -0.038833678427 au =    -0.098698900416 Debye
 !MCSCF trans         <2.1|DMY|1.1>    -0.017654290867 au =    -0.044869792583 Debye
 !MCSCF expec         <2.1|DMY|2.1>    -0.033939868782 au =    -0.086260891700 Debye
 !MCSCF trans         <3.1|DMY|1.1>    -0.001461513333 au =    -0.003714553058 Debye
 !MCSCF trans         <3.1|DMY|2.1>    -0.019485684269 au =    -0.049524425425 Debye
 !MCSCF expec         <3.1|DMY|3.1>    -0.037354395550 au =    -0.094939184642 Debye

 !MCSCF expec         <1.1|DMZ|1.1>    -0.020365721663 au =    -0.051761110864 Debye
 !MCSCF trans         <2.1|DMZ|1.1>     0.007901038774 au =     0.020081122128 Debye
 !MCSCF expec         <2.1|DMZ|2.1>    -0.002814863726 au =    -0.007154201348 Debye
 !MCSCF trans         <3.1|DMZ|1.1>    -0.001270851439 au =    -0.003229970601 Debye
 !MCSCF trans         <3.1|DMZ|2.1>     0.007186140229 au =     0.018264150283 Debye
 !MCSCF expec         <3.1|DMZ|3.1>     0.018095561979 au =     0.045991318414 Debye


 NATURAL ORBITALS (state averaged)
 =================================

  Orbital  Occupation    Energy     Coefficients
    1.1     2.00000   -11.26520     1 1s    0.99616
    2.1     2.00000   -11.24356     2 1s    0.99605
    3.1     2.00000    -1.05378     1 1s    0.26195     2 1s    0.29437     2 1s    0.25410
    4.1     2.00000    -0.79411     1 1s   -0.33225     2 1s    0.27259
    5.1     2.00000    -0.63004     2 2py   0.35546
    6.1     2.00000    -0.55222     1 2px   0.25481     1 2py  -0.29215     3 1s   -0.25241
    7.1     2.00000    -0.41972     1 2pz   0.32139     1 2pz   0.27565     2 2pz   0.32889     2 2pz   0.28400
    8.1     1.00000    -0.08799     1 1s    0.29267     1 2pz   0.39866     1 2pz   0.41880     2 2pz  -0.40961     2 2pz  -0.43710
    9.1     1.00000    -0.23111     1 2px  -0.30956     2 2px   0.31114     4 1s    0.29239     5 1s    0.29590
   10.1    -0.00000     0.21719     1 1s   -1.19742     1 2px   0.46652     1 2py   0.28844     1 2pz   0.42226     2 1s   -1.00742
                                    2 2px  -0.49494     2 2py  -0.39878     2 2pz  -0.34645     3 1s    0.67178     4 1s    1.03974
                                    5 1s    1.09242     6 1s    0.48284
   11.1    -0.00000     0.27015     1 1s   -1.30439     1 2py  -0.70683     1 2pz   0.50499     2 1s    1.30799     2 2pz   0.25860
                                    3 1s    1.59194     5 1s   -0.46149     6 1s   -0.76667
   12.1    -0.00000     0.31877     1 1s    1.20571     1 2py  -0.25946     1 2py  -1.04279     1 2pz  -0.31702     2 1s   -1.54371
                                    2 2py  -0.44970     2 2pz  -0.50977     3 1s    0.28291     4 1s   -1.83259     5 1s    1.46769
                                    6 1s    0.58700
   13.1    -0.00000     0.32477     1 2px   0.49897     1 2py  -0.45015     2 1s   -1.69177     2 2py   0.27178     2 2px  -0.27241
                                    2 2py   1.27656     2 2pz  -0.59038     3 1s    0.58211     5 1s   -0.72841     6 1s    2.44855
   14.1    -0.00000     0.43037     1 1s    2.01206     1 2px   1.72194     1 2py  -0.39885     1 2pz  -0.77919     2 1s   -1.62351
                                    2 2px   1.86278     2 2py  -0.68374     2 2pz  -0.65243     3 1s    0.41850     6 1s   -0.96549
   15.1    -0.00000     0.69763     1 2px   0.50171     1 2px  -0.81356     2 2px  -0.56145     2 2px   1.06391     2 2py  -0.28156
                                    4 1s   -0.26642     4 1s    0.45357     5 1s    0.47303     6 1s   -0.42840
   16.1    -0.00000     0.74255     1 1s   -0.52626     1 2px  -0.47048     2 2py  -0.56221     2 2px  -0.67068     2 2py   1.38529
                                    3 1s   -0.37422     5 1s   -0.39103     6 1s    0.47475     6 1s    0.51733
   17.1    -0.00000     0.79195     1 1s   -0.49166     1 2py  -0.52543     1 2pz  -0.68551     1 2px  -0.31141     1 2py   1.15909
                                    1 2pz   0.89587     2 1s    0.60234     2 2py  -0.33446     2 2pz   0.27404     4 1s    0.38091
   18.1    -0.00000     0.80419     1 2py   0.39581     1 2pz  -0.29999     1 2py  -0.73642     2 2py  -0.27100     2 2pz  -0.81788
                                    2 2py   0.53350     2 2pz   0.90784
   19.1    -0.00000     0.86753     1 1s   -0.34758     1 1s    0.47286     1 2px  -0.31661     1 2py   0.33388     1 2pz  -0.69978
                                    1 2px   0.71234     1 2py  -0.85230     1 2pz   0.90955     2 1s   -0.29867     2 2pz   0.54436
                                    2 2py   0.29503     2 2pz  -0.95456     3 1s    0.31797
   20.1    -0.00000     0.97959     1 1s   -0.25390     1 2px   0.69290     1 2py   0.36033     1 2px  -1.05546     1 2py  -0.77452
                                    2 2px   0.72026     2 2py   0.39864     2 2px  -1.08449     2 2py  -0.81066     4 1s   -0.99763
                                    5 1s    1.01803
   21.1    -0.00000     1.08276     1 1s   -0.70409     1 1s    0.94941     1 2px   0.58414     1 2py  -0.34269     1 2px  -0.87040
                                    1 2py   0.52206     2 1s   -0.41256     2 1s    0.70643     2 2py  -0.39498     2 2px  -0.41794
                                    2 2py   0.69930     3 1s    0.78749     3 1s   -1.45750     5 1s    0.38777     5 1s   -0.70936
                                    6 1s    0.53343
   22.1    -0.00000     1.09267     1 1s    0.41899     1 2py   0.49878     1 2py  -0.55787     2 1s   -0.60380     2 1s    1.19044
                                    2 2px  -0.30223     2 2py  -0.39705     2 2px   0.51342     2 2py   0.31150     3 1s   -0.54595
                                    3 1s    0.74361     4 1s    0.48642     4 1s   -0.85614     5 1s    0.70060     5 1s   -1.18746
   23.1    -0.00000     1.13287     1 1s   -0.57739     1 1s    0.69474     1 2py   0.47516     1 2pz   0.25544     1 2px  -0.47030
                                    1 2py  -0.49608     2 2py   0.36685     2 2py  -0.40700     4 1s    0.90115     4 1s   -1.40263
                                    5 1s   -0.62473     5 1s    0.87231
   24.1    -0.00000     1.24382     1 1s   -0.32621     1 1s   -0.64433     1 2px  -1.08180     1 2py   0.81895     1 2pz  -0.26473
                                    2 1s   -1.58409     2 1s    4.25956     2 2pz   1.40104     3 1s   -0.34970     3 1s   -0.46848
                                    5 1s   -0.51151     5 1s   -0.57187     6 1s   -0.57500     6 1s   -0.97845
   25.1    -0.00000     1.27013     1 1s   -1.82250     1 1s    4.88418     1 2px   0.89708     1 2py  -0.42892     1 2pz  -1.37351
                                    2 1s   -1.94749     2 2py   0.37914     2 2px   1.69488     2 2py  -1.24286     2 2pz  -0.27310
                                    3 1s   -0.26532     3 1s   -0.47618     4 1s   -0.40761     4 1s   -0.67706     6 1s    0.37001
                                    6 1s   -1.19845
   26.1    -0.00000     1.32570     1 1s   -0.75490     1 1s    2.33894     1 2px   0.42760     1 2py  -0.28320     1 2pz  -0.62437
                                    2 1s    1.42999     2 1s   -3.55364     2 2px   0.43471     2 2py  -0.39958     2 2pz   0.25813
                                    2 2pz  -0.73863     3 1s   -0.27715     4 1s   -0.41964     5 1s    0.30727     6 1s   -0.81780
                                    6 1s    1.73914
   27.1    -0.00000     1.68933     1 1s    0.60827     1 3d0   0.34656     1 3d2- -0.30000     1 3d2+ -0.31990     2 1s   -0.64165
                                    2 3d0  -0.33782     2 3d2-  0.30164     2 3d2+  0.33974
   28.1    -0.00000     1.90045     1 1s    0.42325     1 1s   -1.16759     1 2pz   0.44535     1 3d0   0.34514     2 2px  -0.35308
                                    2 2py   0.28966     2 3d1+  0.47355     2 3d2+  0.38514     2 3d1-  0.46612     3 1s    0.34703
                                    6 1s    0.31067
   29.1    -0.00000     1.94953     1 1s    0.75348     1 2px   0.33654     1 3d2- -0.30498     1 3d1+  0.52773     1 3d2+  0.32978
                                    1 3d1-  0.47043     2 1s    0.37805     2 1s   -1.52399     2 2pz  -0.48878     2 3d0   0.25839
                                    5 1s    0.28378     6 1s    0.43872
   30.1    -0.00000     2.17214     1 1s   -0.26313     1 1s    1.41928     1 2px   0.31616     1 2pz  -0.37049     1 3d0  -0.47028
                                    1 3d2+ -0.36410     2 1s    0.38182     2 1s   -1.64794     2 2px   0.38453     2 2py  -0.32236
                                    2 2pz  -0.44601     2 3d0   0.63193     2 3d2+  0.33745     3 1s   -0.34831     5 1s    0.40451
                                    6 1s    0.33195
   31.1    -0.00000     2.24352     1 1s   -0.50182     1 1s    0.40812     1 2px  -0.27332     1 2px   0.30211     1 3d2- -0.31808
                                    1 3d1+ -0.38754     1 3d2+  0.36247     2 1s   -0.48016     2 1s    0.25182     2 2px   0.25262
                                    2 2px  -0.26282     2 3d2- -0.32695     2 3d1+ -0.39694     2 3d2+  0.40980
   32.1    -0.00000     2.34686     1 1s   -0.55495     1 2px  -0.32484     1 2py   0.47491     1 3d0   0.63863     1 3d2- -0.36641
                                    1 3d1- -0.45988     2 1s    0.48998     2 2pz   0.27540     2 3d0   0.36548     2 3d2- -0.33687
                                    2 3d1- -0.25533     4 1s    0.52424     6 1s   -0.35668
   33.1    -0.00000     2.54796     1 1s    0.38972     1 3d2-  0.64813     1 3d1+ -0.37310     1 3d1-  0.43660     2 1s   -0.31843
                                    2 2py  -0.37955     2 3d0   0.35304     2 3d1- -0.59883     3 1s    0.42649     4 1s   -0.33755
                                    5 1s    0.38485     6 1s   -0.34948
   34.1    -0.00000     2.63832     1 1s    0.28185     1 2py  -0.39054     1 3d2- -0.28652     1 3d2+ -0.54324     1 3d1-  0.62712
                                    2 2py   0.26148     2 3d2- -0.44508     2 3d2+ -0.51344     2 3d1-  0.42227     4 1s   -0.44720
                                    5 1s   -0.29425
   35.1    -0.00000     2.79172     1 3d0   0.31536     1 3d1+ -0.40652     2 1s   -0.42467     2 3d0   0.37167     2 3d2-  0.78118
                                    2 3d1+ -0.48313     2 3d1-  0.50385     5 1s   -0.27430     6 1s    0.94250
   36.1    -0.00000     2.95515     1 1s    1.74554     1 2px   0.42910     1 2px   0.86937     1 2pz  -0.44606     1 3d2- -0.37538
                                    1 3d1+ -0.66859     1 3d2+  0.64993     2 1s   -1.69701     2 2px   0.44312     2 2px   0.89448
                                    2 2py  -0.27583     2 2pz  -0.43438     2 3d2-  0.27639     2 3d1+  0.73885     2 3d2+ -0.62808


 Natural orbital dump (state averaged) at molpro section  2140.2    (Orbital set 2)



 **********************************************************************************************************************************
 DATASETS  * FILE   NREC   LENGTH (MB)   RECORD NAMES
              1      20       31.86       500      610      700      900      950      970     1000      129      960     1100   
                                          VAR    BASINP    GEOM    SYMINP    ZMAT    AOBASIS   BASIS     P2S    ABASIS      S 
                                         1400     1410     1200     1210     1080     1600     1650     1300     1700     1380   
                                           T        V       H0       H01     AOSYM     SMH    MOLCAS    ERIS     OPER     JKOP   

              2       5        5.42       700     1000      520     2100     2140   
                                         GEOM     BASIS   MCVARS     RHF     MCSCF   

 PROGRAMS   *        TOTAL     MULTI    HF-SCF       INT
 CPU TIMES  *         0.87      0.46      0.11      0.18
 REAL TIME  *         1.41 SEC
 DISK USED  *        39.04 MB
 **********************************************************************************************************************************
 Molecular orbitals read from record     2140.2  Type=MCSCF/NATURAL (state averaged)
 Occupation numbers read from record     2140.2  Type=MCSCF/NATURAL (state averaged)
 Orbital energies read from record       2140.2  Type=MCSCF/NATURAL (state averaged)
 Redundancy group numbers read from rec  2140.2  Type=MCSCF/NATURAL (state averaged)

 MULTI/6-31G* energy=    -77.532058626425

           MULTI          HF-SCF
    -77.53205863    -77.82654432
 **********************************************************************************************************************************
 Molpro calculation terminated
