
 Primary working directories    : /scratch.local/johan406.molpro_temp/molpro.oMjEwAilY5
 Secondary working directories  : /scratch.local/johan406.molpro_temp/molpro.oMjEwAilY5
 Wavefunction directory         : /home/goodpast/johan406/wfu/
 Main file repository           : /scratch.local/johan406.molpro_temp/molpro.oMjEwAilY5/

 id        : roweumn

 Nodes     nprocs
 acn09        1

 Using customized tuning parameters: mindgm=1; mindgv=20; mindgc=4; mindgr=1; noblas=0; minvec=7
 default implementation of scratch files=df  


 Variables initialized (934), CPU time= 0.01 sec
                                                                                 !leave this line blank
 
 gprint, orbitals=30
 memory, 125., m
 symmetry, nosym
 nelect=16
 basis=6-31g*
 
 geometry={
 C -0.621 0.1303 0.3023
 C 0.6409 -0.1968 -0.3553
 H -1.3389 0.9866 -0.2046
 H -0.9567 -0.8588 -0.1282
 H 0.9766 0.8236 0.0862
 H 1.1987 -0.8525 0.043
 }
 
 hf
 {multi,
 closed 7
 occ 9
 wf,spin=0;STATE,3
 }
 
 Commands  initialized (763), CPU time= 0.01 sec, 617 directives.
 Default parameters read. Elapsed time= 0.07 sec

 Checking input...
 Passed
1


                                         ***  PROGRAM SYSTEM MOLPRO  ***
                                       Copyright, TTI GmbH Stuttgart, 2015
                                    Version 2019.2 linked Oct 25 2019 22:50:27


 **********************************************************************************************************************************
 LABEL *                                                                                 
  64 bit serial version                                                                  DATE: 07-Feb-23          TIME: 16:12:28  
 **********************************************************************************************************************************

 SHA1:             8dbd9ae1082e4ce945b0f27595c9eb2d4aa09004
 **********************************************************************************************************************************


 Variable memory set to  125000000 words,  buffer space 

 SETTING NELECT         =        16.00000000                                  
 SETTING BASIS          =    6-31G*
 ZSYMEL=NOSYM


Geometry recognized as XYZ



 Recomputing integrals since basis changed


 Using spherical harmonics

 Library entry C      S 6-31G                selected for orbital group  1
 Library entry C      P 6-31G                selected for orbital group  1
 Library entry C      D 6-31G*               selected for orbital group  1
 Library entry H      S 6-31G                selected for orbital group  2


 PROGRAM * SEWARD (Integral evaluation for generally contracted gaussian basis sets)     Author: Roland Lindh, 1990

 Geometry written to block  1 of record 700


 Point group  C1  



 ATOMIC COORDINATES

 NR  ATOM    CHARGE       X              Y              Z

   1  C       6.00   -1.173519923    0.246231314    0.571264207
   2  C       6.00    1.211125473   -0.371898101   -0.671419692
   3  H       1.00   -2.530154308    1.864403794   -0.386637965
   4  H       1.00   -1.807900983   -1.622896796   -0.242262889
   5  H       1.00    1.845506533    1.556378436    0.162894392
   6  H       1.00    2.265214706   -1.610991521    0.081258223

 Bond lengths in Bohr (Angstrom)

 1-2  2.759144961  1-3  2.318731464  1-4  2.134925188  2-5  2.194714042  2-6  1.792478914
     ( 1.460076635)     ( 1.227019849)     ( 1.129753756)     ( 1.161392655)     ( 0.948538992)

 Bond angles

  1-2-5   83.21010060   1-2-6  118.29350035   2-1-3  118.42090986   2-1-4   83.63003870

  3-1-4  106.24308582   5-2-6  106.12578414

 NUCLEAR CHARGE:                   16
 NUMBER OF PRIMITIVE AOS:          72
 NUMBER OF SYMMETRY AOS:           70
 NUMBER OF CONTRACTIONS:           36   (   36A   )
 NUMBER OF CORE ORBITALS:           2   (    2A   )
 NUMBER OF VALENCE ORBITALS:       12   (   12A   )


 NUCLEAR REPULSION ENERGY   32.49175153

 Eigenvalues of metric

         1 0.916E-02 0.235E-01 0.594E-01 0.655E-01 0.849E-01 0.201E+00 0.237E+00 0.268E+00


 Contracted 2-electron integrals neglected if value below      1.0D-11
 AO integral compression algorithm  1   Integral accuracy      1.0D-11

     1.573 MB (compressed) written to integral file ( 59.2%)


 NUMBER OF SORTED TWO-ELECTRON INTEGRALS:     222111.     BUFFER LENGTH:  32768
 NUMBER OF SEGMENTS:   1  SEGMENT LENGTH:     222111      RECORD LENGTH: 524288

 Memory used in sort:       0.78 MW

 SORT1 READ      284735. AND WROTE      212530. INTEGRALS IN      1 RECORDS. CPU TIME:     0.00 SEC, REAL TIME:     0.01 SEC
 SORT2 READ      212530. AND WROTE      222111. INTEGRALS IN      6 RECORDS. CPU TIME:     0.02 SEC, REAL TIME:     0.03 SEC

 FILE SIZES:   FILE 1:    31.7 MBYTE,  FILE 4:     4.2 MBYTE,   TOTAL:     35.9 MBYTE

 OPERATOR DM      FOR CENTER  0  COORDINATES:    0.000000    0.000000    0.000000


 **********************************************************************************************************************************
 DATASETS  * FILE   NREC   LENGTH (MB)   RECORD NAMES
              1      19       31.13       500      610      700      900      950      970     1000      129      960     1100   
                                          VAR    BASINP    GEOM    SYMINP    ZMAT    AOBASIS   BASIS     P2S    ABASIS      S 
                                         1400     1410     1200     1210     1080     1600     1650     1300     1700   
                                           T        V       H0       H01     AOSYM     SMH    MOLCAS    ERIS     OPER   

 PROGRAMS   *        TOTAL       INT
 CPU TIMES  *         0.27      0.18
 REAL TIME  *         0.46 SEC
 DISK USED  *        36.24 MB
 **********************************************************************************************************************************


 PROGRAM * RHF-SCF (CLOSED SHELL)       Authors: W. Meyer, H.-J. Werner


 NUMBER OF ELECTRONS:       8+    8-    SPACE SYMMETRY=1    SPIN SYMMETRY: Singlet 
 CONVERGENCE THRESHOLDS:    1.00E-05 (Density)    1.00E-07 (Energy)
 MAX. NUMBER OF ITERATIONS:       60
 INTERPOLATION TYPE:            DIIS
 INTERPOLATION STEPS:              2 (START)      1 (STEP)
 LEVEL SHIFTS:                  0.00 (CLOSED)  0.00 (OPEN) 



 Orbital guess generated from atomic densities. Full valence occupancy:    8

 Molecular orbital dump at record        2100.2

 Initial occupancy:   8

 ITERATION    DDIFF          GRAD             ENERGY        2-EL.EN.            DIPOLE MOMENTS         DIIS   ORB.
    1      0.000D+00      0.000D+00       -77.79681127    116.162944   -0.21168    0.16318    0.11412    0    start
    2      0.000D+00      0.766D-02       -77.81631122    115.052053    0.06162   -0.08062   -0.14309    1    diag
    3      0.873D-02      0.341D-02       -77.81927899    115.405146   -0.06598    0.00395    0.05656    2    diag
    4      0.368D-02      0.162D-02       -77.82025563    115.408158    0.01023   -0.04741   -0.03954    3    diag
    5      0.205D-02      0.553D-03       -77.82042790    115.348324    0.00324   -0.04368   -0.01973    4    diag
    6      0.834D-03      0.232D-03       -77.82052200    115.358754    0.00767   -0.04508   -0.02200    5    diag
    7      0.784D-03      0.105D-03       -77.82055232    115.359790    0.00818   -0.04415   -0.02236    6    diag
    8      0.504D-03      0.348D-04       -77.82055541    115.360994    0.00800   -0.04409   -0.02253    7    diag
    9      0.169D-03      0.112D-04       -77.82055566    115.361275    0.00782   -0.04402   -0.02256    8    diag
   10      0.489D-04      0.316D-05       -77.82055568    115.361276    0.00774   -0.04403   -0.02251    9    orth
   11      0.113D-04      0.790D-06       -77.82055568    115.361271    0.00772   -0.04403   -0.02250    9    diag
   12      0.218D-05      0.217D-06       -77.82055568    115.361273    0.00771   -0.04403   -0.02250    0    orth

 Final occupancy:   8

 !RHF STATE  1.1 Energy               -77.820555680121
 Nuclear energy                        32.49175153
 One-electron energy                 -167.99294367
 Two-electron energy                   57.68063646
 Virial quotient                       -0.99982430
 !RHF STATE  1.1 Dipole moment          0.00771303    -0.04403275    -0.02250408
 Dipole moment /Debye                   0.01960329    -0.11191275    -0.05719592

 ELECTRON ORBITALS
 =================

  Orbital  Occupation    Energy     Coefficients
    1.1     2.00000   -11.27128     1 1s    0.99619
    2.1     2.00000   -11.24782     2 1s    0.99608
    3.1     2.00000    -1.04224     1 1s    0.26198     2 1s    0.30398     2 1s    0.25714
    4.1     2.00000    -0.79478     1 1s   -0.31428
    5.1     2.00000    -0.62741     2 2py   0.35654
    6.1     2.00000    -0.55268     1 2px   0.28937     1 2py  -0.26844     2 2px  -0.27983
    7.1     2.00000    -0.39259     1 2pz   0.27811     1 2pz   0.25917     2 2pz   0.31998     2 2pz   0.28996
    8.1     2.00000    -0.38703     2 2px   0.28453     4 1s    0.26859     5 1s    0.28153
    9.1     0.00000     0.06146     1 1s    0.45172     1 2pz   0.32021     1 2pz   0.44223     2 1s    0.33435     2 2pz  -0.33761
                                    2 2pz  -0.48483
   10.1     0.00000     0.22822     1 1s   -1.23491     1 2px   0.47266     1 2pz   0.51365     2 1s   -0.93164     2 2px  -0.50076
                                    2 2py  -0.37092     2 2pz  -0.39660     3 1s    0.78050     4 1s    0.99834     5 1s    1.05632
                                    6 1s    0.48371
   11.1     0.00000     0.26898     1 1s   -1.06581     1 2py  -0.26534     1 2py  -0.79886     1 2pz   0.47942     2 1s    1.24967
                                    3 1s    1.52889     4 1s   -0.39742     5 1s   -0.47050     6 1s   -0.70540
   12.1     0.00000     0.32419     1 1s    0.34869     1 2px   0.50218     1 2py  -0.65103     2 1s   -2.12232     2 2px  -0.28601
                                    2 2py   1.13060     2 2pz  -0.74582     3 1s    0.52897     4 1s   -0.26066     5 1s   -0.39085
                                    6 1s    2.59299
   13.1     0.00000     0.33489     1 1s    1.13638     1 2px  -0.28405     1 2py  -0.83117     1 2pz  -0.33448     2 1s   -1.07890
                                    2 2px  -0.27507     2 2py  -0.66604     2 2pz  -0.33152     4 1s   -1.80536     5 1s    1.58209
   14.1     0.00000     0.42464     1 1s    2.16405     1 2px   1.69572     1 2py  -0.48608     1 2pz  -0.84495     2 1s   -1.69409
                                    2 2px   1.86606     2 2py  -0.81582     2 2pz  -0.68958     3 1s    0.39134     5 1s    0.25154
                                    6 1s   -1.03487
   15.1     0.00000     0.69978     1 2px   0.49814     1 2px  -0.81399     2 1s    0.32052     2 2px  -0.57904     2 2px   1.11916
                                    2 2py  -0.40436     4 1s    0.39012     5 1s    0.40008     6 1s   -0.49094
   16.1     0.00000     0.74373     1 1s   -0.43049     1 2px   0.27483     1 2px  -0.47260     2 1s   -0.35248     2 2py  -0.58789
                                    2 2px  -0.54706     2 2py   1.38880     2 2pz  -0.28914     3 1s   -0.36543     5 1s   -0.37518
                                    6 1s    0.45586     6 1s    0.55117
   17.1     0.00000     0.79298     1 1s   -0.31120     1 2py  -0.50465     1 2pz  -0.73448     1 2py   1.04430     1 2pz   0.84189
                                    2 1s    0.44193     2 2pz  -0.30426     2 2pz   0.32269     4 1s    0.36199
   18.1     0.00000     0.80591     1 2py   0.46087     1 2px   0.27494     1 2py  -0.87463     2 2py  -0.29979     2 2pz  -0.80804
                                    2 2py   0.53705     2 2pz   0.80034
   19.1     0.00000     0.87059     1 1s   -0.39389     1 1s    0.57033     1 2px  -0.31333     1 2py   0.35575     1 2pz  -0.71133
                                    1 2px   0.69189     1 2py  -0.87920     1 2pz   0.83658     2 1s   -0.33424     2 2pz   0.56202
                                    2 2py   0.26808     2 2pz  -0.89629     3 1s    0.26866
   20.1     0.00000     0.97278     1 1s   -0.32687     1 2px   0.69402     1 2py   0.35562     1 2px  -1.13420     1 2py  -0.76043
                                    2 2px   0.72335     2 2py   0.39196     2 2px  -1.16396     2 2py  -0.79111     4 1s   -1.04278
                                    5 1s    1.04482
   21.1     0.00000     1.07066     1 1s   -0.63253     1 1s    0.82215     1 2px   0.50288     1 2py  -0.47664     1 2px  -0.79147
                                    1 2py   0.65660     2 2px  -0.54548     2 2py   0.50520     3 1s    0.94894     3 1s   -1.64456
                                    6 1s    0.56183
   22.1     0.00000     1.11684     1 1s   -0.46256     1 1s    0.72530     1 2px   0.26387     1 2py   0.31406     1 2px  -0.38817
                                    1 2py  -0.26588     2 1s   -0.77046     2 1s    1.56401     2 2py  -0.49454     2 2px   0.27882
                                    2 2py   0.51877     2 2pz   0.30017     4 1s    0.52117     4 1s   -0.92891     5 1s    0.76066
                                    5 1s   -1.38355
   23.1     0.00000     1.16970     1 1s   -0.54575     1 1s    0.66640     1 2py   0.47025     1 2pz   0.26356     1 2px  -0.38907
                                    1 2py  -0.49766     2 1s    0.25934     2 2py   0.39360     2 2py  -0.46210     4 1s    0.88572
                                    4 1s   -1.36082     5 1s   -0.64602     5 1s    0.88335     6 1s   -0.32404
   24.1     0.00000     1.25351     1 1s   -0.32561     1 1s   -0.65482     1 2px  -1.03127     1 2py   0.81474     1 2pz  -0.26865
                                    2 1s   -1.58876     2 1s    4.29546     2 2pz   1.42404     3 1s   -0.33312     3 1s   -0.45660
                                    4 1s   -0.25170     5 1s   -0.55331     5 1s   -0.52089     6 1s   -0.51920     6 1s   -1.12606
   25.1     0.00000     1.27803     1 1s    1.81852     1 1s   -4.95761     1 2px  -0.93410     1 2py   0.49083     1 2pz   1.41026
                                    2 1s   -0.25576     2 1s    2.19480     2 2py  -0.36614     2 2px  -1.69693     2 2py   1.24557
                                    2 2pz   0.33152     3 1s    0.29422     3 1s    0.42491     4 1s    0.42423     4 1s    0.69549
                                    6 1s   -0.33988     6 1s    1.11043
   26.1     0.00000     1.34250     1 1s   -0.69777     1 1s    2.08518     1 2px   0.34398     1 2pz  -0.56957     2 1s    1.37063
                                    2 1s   -3.32664     2 2px   0.45316     2 2py  -0.40195     2 2pz   0.29684     2 2pz  -0.69960
                                    3 1s   -0.26174     4 1s   -0.41864     5 1s    0.31207     6 1s   -0.85824     6 1s    1.77826
   27.1     0.00000     1.69453     1 1s    0.58206     1 3d0   0.35348     1 3d2- -0.29570     1 3d2+ -0.31636     2 1s   -0.62617
                                    2 3d0  -0.34235     2 3d2-  0.29892     2 3d2+  0.33968
   28.1     0.00000     1.90051     1 1s    0.43230     1 1s   -1.18796     1 2pz   0.44995     1 3d0   0.34516     2 2px  -0.36026
                                    2 2py   0.29112     2 3d1+  0.47292     2 3d2+  0.37641     2 3d1-  0.47079     3 1s    0.34530
                                    6 1s    0.31754
   29.1     0.00000     1.95455     1 1s    0.74232     1 2px   0.33845     1 3d2- -0.29998     1 3d1+  0.53168     1 3d2+  0.32673
                                    1 3d1-  0.46994     2 1s    0.38475     2 1s   -1.55802     2 2pz  -0.50179     2 3d0   0.26210
                                    5 1s    0.29645     6 1s    0.44317
   30.1     0.00000     2.17004     1 1s    1.38279     1 2px   0.30875     1 2pz  -0.35802     1 3d0  -0.45440     1 3d2+ -0.36894
                                    2 1s    0.39029     2 1s   -1.66316     2 2px   0.39007     2 2py  -0.32034     2 2pz  -0.45731
                                    2 3d0   0.63258     2 3d2+  0.32431     3 1s   -0.34298     5 1s    0.41183     6 1s    0.33362
   31.1     0.00000     2.24824     1 1s   -0.51617     1 1s    0.47935     1 2px  -0.26394     1 2px   0.32640     1 3d2- -0.31429
                                    1 3d1+ -0.38171     1 3d2+  0.35079     2 1s   -0.47380     2 3d2- -0.31682     2 3d1+ -0.38321
                                    2 3d2+  0.42139
   32.1     0.00000     2.35340     1 1s   -0.57575     1 2px  -0.31989     1 2py   0.46298     1 3d0   0.64385     1 3d2- -0.36874
                                    1 3d1- -0.45145     2 1s    0.53439     2 2pz   0.28431     2 3d0   0.35923     2 3d2- -0.34053
                                    4 1s    0.54456     6 1s   -0.34825
   33.1     0.00000     2.54600     1 1s    0.43952     1 3d2-  0.64788     1 3d1+ -0.39545     1 3d1-  0.43533     2 1s   -0.34735
                                    2 2py  -0.37371     2 3d0   0.37804     2 3d1- -0.57372     3 1s    0.40957     4 1s   -0.35479
                                    5 1s    0.37649     6 1s   -0.31858
   34.1     0.00000     2.64608     1 1s    0.28891     1 2py  -0.38546     1 3d2- -0.28618     1 3d2+ -0.54725     1 3d1-  0.61744
                                    2 2py   0.26262     2 3d2- -0.41754     2 3d2+ -0.52248     2 3d1-  0.43960     4 1s   -0.45523
                                    5 1s   -0.31321
   35.1     0.00000     2.80476     1 1s    0.25981     1 3d0   0.29214     1 3d1+ -0.38748     2 1s   -0.47321     2 3d0   0.35193
                                    2 3d2-  0.81794     2 3d1+ -0.47087     2 3d1-  0.52261     5 1s   -0.28612     6 1s    1.00244
   36.1     0.00000     2.95969     1 1s    1.71079     1 2px   0.43588     1 2px   0.85373     1 2pz  -0.43731     1 3d2- -0.37963
                                    1 3d1+ -0.66212     1 3d2+  0.65251     2 1s   -1.65525     2 2px   0.45299     2 2px   0.88363
                                    2 2py  -0.27290     2 2pz  -0.42298     2 3d2-  0.26456     2 3d1+  0.74256     2 3d2+ -0.62925


 HOMO      8.1    -0.387029 =     -10.5316eV
 LUMO      9.1     0.061458 =       1.6724eV
 LUMO-HOMO         0.448487 =      12.2040eV


 **********************************************************************************************************************************
 DATASETS  * FILE   NREC   LENGTH (MB)   RECORD NAMES
              1      19       31.13       500      610      700      900      950      970     1000      129      960     1100   
                                          VAR    BASINP    GEOM    SYMINP    ZMAT    AOBASIS   BASIS     P2S    ABASIS      S 
                                         1400     1410     1200     1210     1080     1600     1650     1300     1700   
                                           T        V       H0       H01     AOSYM     SMH    MOLCAS    ERIS     OPER   

              2       4        2.86       700     1000      520     2100   
                                         GEOM     BASIS   MCVARS     RHF  

 PROGRAMS   *        TOTAL    HF-SCF       INT
 CPU TIMES  *         0.39      0.12      0.18
 REAL TIME  *         0.94 SEC
 DISK USED  *        36.24 MB
 **********************************************************************************************************************************


 PROGRAM * MULTI (Direct Multiconfiguration SCF)       Authors: P.J. Knowles, H.-J. Werner (1984)


 Number of closed-shell orbitals:   7 (   7 )
 Number of active  orbitals:        2 (   2 )
 Number of external orbitals:      27 (  27 )

 State symmetry 1

 Number of electrons:     2    Spin symmetry=Singlet   Space symmetry=1
 Number of states:        3
 Number of CSFs:          3   (4 determinants, 4 intermediate states)

 Molecular orbitals read from record     2100.2  Type=RHF/CANONICAL (state 1.1)

 Wavefunction dump at record             2140.2

 Convergence thresholds  0.10E-01 (gradient)  0.10E-05 (energy)  0.10E-02 (step length)

 Weight factors for state symmetry  1:    0.33333   0.33333   0.33333

 Number of orbital rotations:      257   (    14 Core/Active    189 Core/Virtual   0 Active/Active     54 Active/Virtual)
 Total number of variables:        269

 Micro-Iterations solved by the two-step solver

 ITER. MIC  NCI  NEG     ENERGY(VAR)     ENERGY(PROJ)   ENERGY CHANGE     GRAD(0)  GRAD(ORB)   GRAD(CI)     STEP       TIME

   1   12    7    0     -77.66057895     -77.68474984   -0.02417089    0.16247129 0.00074211 0.00000000  0.19D+00      0.17
   2    7    5    0     -77.68391448     -77.68406639   -0.00015191    0.01999914 0.00002894 0.00000000  0.88D-02      0.27
   3    8    5    0     -77.68406679     -77.68406679   -0.00000000    0.00009053 0.00000000 0.00000000  0.66D-04      0.39
   4    3    3    0     -77.68406679     -77.68406679    0.00000000    0.00000000 0.00000000 0.00000000  0.41D-08      0.45

 ** WVFN ****  CONVERGENCE REACHED, FINAL GRADIENT:  0.58D-12



 Results for state 1.1
 =====================

 !MCSCF STATE  1.1 Energy             -77.814182975989
 Nuclear energy                        32.49175153
 Kinetic energy                        77.89058885
 One electron energy                 -168.07095279
 Two electron energy                   57.76501828
 Virial ratio                           1.99901906

 !MCSCF STATE  1.1 Dipole moment       -0.00627494    -0.04328282    -0.02268883
 Dipole moment /Debye                  -0.01594825    -0.11000674    -0.05766548

 Results for state 2.1
 =====================

 !MCSCF STATE  2.1 Energy             -77.711632086761
 Nuclear energy                        32.49175153
 Kinetic energy                        77.96674015
 One electron energy                 -167.76422517
 Two electron energy                   57.56084156
 Virial ratio                           1.99672799

 !MCSCF STATE  2.1 Dipole moment        0.04879493    -0.03785757    -0.00308867
 Dipole moment /Debye                   0.12401622    -0.09621805    -0.00785010

 Results for state 3.1
 =====================

 !MCSCF STATE  3.1 Energy             -77.526385300545
 Nuclear energy                        32.49175153
 Kinetic energy                        78.02776544
 One electron energy                 -167.50249678
 Two electron energy                   57.48435995
 Virial ratio                           1.99357434

 !MCSCF STATE  3.1 Dipole moment        0.12077565    -0.04185911     0.02028612
 Dipole moment /Debye                   0.30696098    -0.10638828     0.05155879

 State-averaged charge density matrix saved on record  2140.2 (density set 1)

 !MCSCF expec         <1.1|DMX|1.1>    -0.006274936822 au =    -0.015948253929 Debye
 !MCSCF trans         <2.1|DMX|1.1>     0.038330509541 au =     0.097420056439 Debye
 !MCSCF expec         <2.1|DMX|2.1>     0.048794929093 au =     0.124016215885 Debye
 !MCSCF trans         <3.1|DMX|1.1>    -0.003234349368 au =    -0.008220357666 Debye
 !MCSCF trans         <3.1|DMX|2.1>     0.037182983909 au =     0.094503528244 Debye
 !MCSCF expec         <3.1|DMX|3.1>     0.120775652167 au =     0.306960982034 Debye

 !MCSCF expec         <1.1|DMY|1.1>    -0.043282816223 au =    -0.110006740055 Debye
 !MCSCF trans         <2.1|DMY|1.1>    -0.019950938045 au =    -0.050706905117 Debye
 !MCSCF expec         <2.1|DMY|2.1>    -0.037857574688 au =    -0.096218054675 Debye
 !MCSCF trans         <3.1|DMY|1.1>    -0.001646246116 au =    -0.004184066205 Debye
 !MCSCF trans         <3.1|DMY|2.1>    -0.022014496493 au =    -0.055951603997 Debye
 !MCSCF expec         <3.1|DMY|3.1>    -0.041859111882 au =    -0.106388281578 Debye

 !MCSCF expec         <1.1|DMZ|1.1>    -0.022688831642 au =    -0.057665480724 Debye
 !MCSCF trans         <2.1|DMZ|1.1>     0.008842124240 au =     0.022472966127 Debye
 !MCSCF expec         <2.1|DMZ|2.1>    -0.003088671211 au =    -0.007850104977 Debye
 !MCSCF trans         <3.1|DMZ|1.1>    -0.001419742526 au =    -0.003608389208 Debye
 !MCSCF trans         <3.1|DMZ|2.1>     0.008039093334 au =     0.020431998836 Debye
 !MCSCF expec         <3.1|DMZ|3.1>     0.020286116882 au =     0.051558788944 Debye


 NATURAL ORBITALS (state averaged)
 =================================

  Orbital  Occupation    Energy     Coefficients
    1.1     2.00000   -11.26655     1 1s    0.99619
    2.1     2.00000   -11.24242     2 1s    0.99607
    3.1     2.00000    -1.05478     1 1s    0.25989     2 1s    0.29651     2 1s    0.25472
    4.1     2.00000    -0.79624     1 1s   -0.33259     2 1s    0.26467
    5.1     2.00000    -0.63111     2 2py   0.35868
    6.1     2.00000    -0.55035     1 2px   0.25329     1 2py  -0.29488     3 1s   -0.25397
    7.1     2.00000    -0.41982     1 2pz   0.32090     1 2pz   0.27492     2 2pz   0.32943     2 2pz   0.28425
    8.1     1.00000    -0.23125     1 2px  -0.30946     2 2px   0.31128     4 1s    0.29209     5 1s    0.29605
    9.1     1.00000    -0.08829     1 1s    0.29537     1 2pz   0.39787     1 2pz   0.41727     2 2pz  -0.41021     2 2pz  -0.43765
   10.1    -0.00000     0.21657     1 1s   -1.20865     1 2px   0.46563     1 2py   0.27055     1 2pz   0.42999     2 1s   -0.99272
                                    2 2px  -0.49624     2 2py  -0.39525     2 2pz  -0.34374     3 1s    0.69432     4 1s    1.02809
                                    5 1s    1.08603     6 1s    0.47857
   11.1    -0.00000     0.26785     1 1s   -1.22825     1 2py  -0.72781     1 2pz   0.49109     2 1s    1.27861     3 1s    1.56030
                                    5 1s   -0.49001     6 1s   -0.72161
   12.1    -0.00000     0.31873     1 1s    1.23971     1 2py  -0.25549     1 2py  -1.01612     1 2pz  -0.33580     2 1s   -1.48266
                                    2 2py  -0.50489     2 2pz  -0.48440     4 1s   -1.84731     5 1s    1.49252     6 1s    0.49114
   13.1    -0.00000     0.32625     1 2px   0.50532     1 2py  -0.47528     2 1s   -1.87634     2 2py   0.26153     2 2px  -0.27694
                                    2 2py   1.25404     2 2pz  -0.63351     3 1s    0.53726     5 1s   -0.64615     6 1s    2.55346
   14.1    -0.00000     0.43052     1 1s    2.01967     1 2px   1.71345     1 2py  -0.38495     1 2pz  -0.78312     2 1s   -1.57984
                                    2 2px   1.87111     2 2py  -0.70364     2 2pz  -0.64114     3 1s    0.39905     6 1s   -1.01571
   15.1    -0.00000     0.69712     1 2px   0.49542     1 2px  -0.80241     2 2px  -0.56433     2 2px   1.09084     2 2py  -0.33285
                                    4 1s   -0.26542     4 1s    0.44672     5 1s    0.46686     6 1s   -0.47255
   16.1    -0.00000     0.74018     1 1s   -0.51573     1 2px  -0.46199     2 1s   -0.29140     2 2py  -0.56572     2 2px  -0.64998
                                    2 2py   1.40617     2 2pz  -0.25307     3 1s   -0.36449     5 1s   -0.39685     6 1s    0.46585
                                    6 1s    0.56088
   17.1    -0.00000     0.79219     1 1s   -0.52945     1 2py  -0.49525     1 2pz  -0.71221     1 2px  -0.30023     1 2py   1.09616
                                    1 2pz   0.92863     2 1s    0.60535     2 2pz  -0.27828     2 2py  -0.25132     2 2pz   0.31981
                                    4 1s    0.37181
   18.1    -0.00000     0.80518     1 2py   0.42766     1 2py  -0.79797     2 2py  -0.27855     2 2pz  -0.81349     2 2py   0.53002
                                    2 2pz   0.91102
   19.1    -0.00000     0.86873     1 1s   -0.35242     1 1s    0.52253     1 2px  -0.32420     1 2py   0.35752     1 2pz  -0.69853
                                    1 2px   0.73561     1 2py  -0.89318     1 2pz   0.88523     2 1s   -0.29845     2 2pz   0.52566
                                    2 2py   0.26567     2 2pz  -0.93668     3 1s    0.32100
   20.1    -0.00000     0.97931     1 1s    0.25153     1 1s   -0.27265     1 2px   0.68925     1 2py   0.35803     1 2px  -1.05339
                                    1 2py  -0.77132     2 2px   0.71986     2 2py   0.40175     2 2px  -1.08572     2 2py  -0.81362
                                    4 1s   -0.99434     5 1s    1.01899
   21.1    -0.00000     1.07583     1 1s   -0.68434     1 1s    0.91009     1 2px   0.56554     1 2py  -0.40000     1 2px  -0.85218
                                    1 2py   0.56941     2 1s   -0.30037     2 1s    0.45087     2 2py  -0.30292     2 2px  -0.50324
                                    2 2py   0.61297     3 1s    0.87571     3 1s   -1.55677     5 1s   -0.45812     6 1s    0.56307
   22.1    -0.00000     1.09131     1 1s   -0.27028     1 1s    0.50802     1 2py   0.40824     1 2py  -0.42672     2 1s   -0.67238
                                    2 1s    1.32229     2 2px  -0.26815     2 2py  -0.47527     2 2px   0.42392     2 2py   0.45078
                                    3 1s   -0.41033     3 1s    0.48854     4 1s    0.47295     4 1s   -0.82501     5 1s    0.77716
                                    5 1s   -1.32515
   23.1    -0.00000     1.13282     1 1s   -0.57141     1 1s    0.69304     1 2py   0.50388     1 2pz   0.25149     1 2px  -0.45886
                                    1 2py  -0.52895     2 1s    0.28359     2 2py   0.35500     2 2py  -0.40649     4 1s    0.91711
                                    4 1s   -1.43526     5 1s   -0.60459     5 1s    0.83739
   24.1    -0.00000     1.24324     1 1s   -0.32817     1 1s   -0.66852     1 2px  -1.07599     1 2py   0.81761     1 2pz  -0.25759
                                    2 1s   -1.62213     2 1s    4.38279     2 2pz   1.42367     3 1s   -0.34169     3 1s   -0.45433
                                    5 1s   -0.51180     5 1s   -0.57481     6 1s   -0.53852     6 1s   -1.09981
   25.1    -0.00000     1.27344     1 1s    1.87326     1 1s   -5.05807     1 2px  -0.94659     1 2py   0.47046     1 2pz   1.41950
                                    2 1s   -0.29349     2 1s    2.27136     2 2py  -0.34401     2 2px  -1.70448     2 2py   1.23003
                                    2 2pz   0.34481     3 1s    0.30313     3 1s    0.44574     4 1s    0.40317     4 1s    0.72220
                                    6 1s   -0.29804     6 1s    1.05205
   26.1    -0.00000     1.34229     1 1s   -0.60262     1 1s    1.86905     1 2px   0.31564     1 2pz  -0.50289     2 1s    1.36964
                                    2 1s   -3.26615     2 2px   0.46206     2 2py  -0.43934     2 2pz   0.26838     2 2py   0.32256
                                    2 2pz  -0.67618     3 1s   -0.25900     4 1s   -0.35499     5 1s    0.26290     6 1s   -0.86501
                                    6 1s    1.83964
   27.1    -0.00000     1.68903     1 1s    0.60809     1 3d0   0.34683     1 3d2- -0.29988     1 3d2+ -0.31892     2 1s   -0.64655
                                    2 3d0  -0.33698     2 3d2-  0.30176     2 3d2+  0.34130
   28.1    -0.00000     1.89739     1 1s    0.42191     1 1s   -1.16582     1 2pz   0.44144     1 3d0   0.34236     2 2px  -0.35821
                                    2 2py   0.29483     2 3d1+  0.47313     2 3d2+  0.38387     2 3d1-  0.46978     3 1s    0.34640
                                    6 1s    0.31872
   29.1    -0.00000     1.95159     1 1s    0.72041     1 2px   0.33161     1 3d2- -0.30343     1 3d1+  0.53010     1 3d2+  0.33293
                                    1 3d1-  0.46961     2 1s    0.37028     2 1s   -1.51840     2 2pz  -0.48966     2 3d0   0.26273
                                    5 1s    0.28864     6 1s    0.44461
   30.1    -0.00000     2.16975     1 1s   -0.25015     1 1s    1.38091     1 2px   0.30707     1 2pz  -0.35867     1 3d0  -0.45768
                                    1 3d2+ -0.36323     2 1s    0.38135     2 1s   -1.63640     2 2px   0.38131     2 2py  -0.32350
                                    2 2pz  -0.44405     2 3d0   0.63575     2 3d2+  0.33493     3 1s   -0.34463     5 1s    0.41002
                                    6 1s    0.32980
   31.1    -0.00000     2.24300     1 1s   -0.50266     1 1s    0.41488     1 2px  -0.27362     1 2px   0.30253     1 3d2- -0.31897
                                    1 3d1+ -0.38629     1 3d2+  0.35974     2 1s   -0.48006     2 2px   0.25017     2 2px  -0.25962
                                    2 3d2- -0.32934     2 3d1+ -0.39719     2 3d2+  0.41169
   32.1    -0.00000     2.34772     1 1s   -0.61035     1 2px  -0.33634     1 2py   0.48299     1 3d0   0.64997     1 3d2- -0.36671
                                    1 3d1- -0.46738     2 1s    0.54449     2 2pz   0.28859     2 3d0   0.34810     2 3d2- -0.33214
                                    4 1s    0.53752     6 1s   -0.36353
   33.1    -0.00000     2.54281     1 1s    0.41101     1 3d2-  0.64648     1 3d1+ -0.38509     1 3d1-  0.42020     2 1s   -0.32574
                                    2 2py  -0.38635     2 3d0   0.37092     2 3d1- -0.59385     3 1s    0.40719     4 1s   -0.33139
                                    5 1s    0.38099     6 1s   -0.34044
   34.1    -0.00000     2.63835     1 1s    0.29244     1 2py  -0.39286     1 3d2- -0.28105     1 3d2+ -0.54478     1 3d1-  0.62830
                                    2 2py   0.25882     2 3d2- -0.43562     2 3d2+ -0.51444     2 3d1-  0.42460     4 1s   -0.45041
                                    5 1s   -0.29478
   35.1    -0.00000     2.80639     1 1s    0.28373     1 3d0   0.29714     1 3d1+ -0.40446     2 1s   -0.49136     2 3d0   0.36807
                                    2 3d2-  0.80672     2 3d1+ -0.46879     2 3d1-  0.51614     5 1s   -0.27540     6 1s    0.99555
   36.1    -0.00000     2.95527     1 1s    1.73916     1 2px   0.42945     1 2px   0.86441     1 2pz  -0.44437     1 3d2- -0.37871
                                    1 3d1+ -0.66185     1 3d2+  0.64993     2 1s   -1.68145     2 2px   0.44740     2 2px   0.89543
                                    2 2py  -0.28155     2 2pz  -0.43033     2 3d2-  0.25828     2 3d1+  0.74826     2 3d2+ -0.62560


 Natural orbital dump (state averaged) at molpro section  2140.2    (Orbital set 2)



 **********************************************************************************************************************************
 DATASETS  * FILE   NREC   LENGTH (MB)   RECORD NAMES
              1      20       31.86       500      610      700      900      950      970     1000      129      960     1100   
                                          VAR    BASINP    GEOM    SYMINP    ZMAT    AOBASIS   BASIS     P2S    ABASIS      S 
                                         1400     1410     1200     1210     1080     1600     1650     1300     1700     1380   
                                           T        V       H0       H01     AOSYM     SMH    MOLCAS    ERIS     OPER     JKOP   

              2       5        5.42       700     1000      520     2100     2140   
                                         GEOM     BASIS   MCVARS     RHF     MCSCF   

 PROGRAMS   *        TOTAL     MULTI    HF-SCF       INT
 CPU TIMES  *         0.89      0.49      0.12      0.18
 REAL TIME  *         1.53 SEC
 DISK USED  *        39.04 MB
 **********************************************************************************************************************************
 Molecular orbitals read from record     2140.2  Type=MCSCF/NATURAL (state averaged)
 Occupation numbers read from record     2140.2  Type=MCSCF/NATURAL (state averaged)
 Orbital energies read from record       2140.2  Type=MCSCF/NATURAL (state averaged)
 Redundancy group numbers read from rec  2140.2  Type=MCSCF/NATURAL (state averaged)

 MULTI/6-31G* energy=    -77.526385300545

           MULTI          HF-SCF
    -77.52638530    -77.82055568
 **********************************************************************************************************************************
 Molpro calculation terminated
