
 Primary working directories    : /scratch.local/johan406.molpro_temp/molpro.PvbVEGKbtd
 Secondary working directories  : /scratch.local/johan406.molpro_temp/molpro.PvbVEGKbtd
 Wavefunction directory         : /home/goodpast/johan406/wfu/
 Main file repository           : /scratch.local/johan406.molpro_temp/molpro.PvbVEGKbtd/

 id        : roweumn

 Nodes     nprocs
 acn09        1

 Using customized tuning parameters: mindgm=1; mindgv=20; mindgc=4; mindgr=1; noblas=0; minvec=7
 default implementation of scratch files=df  


 Variables initialized (934), CPU time= 0.00 sec
                                                                                 !leave this line blank
 
 gprint, orbitals=30
 memory, 125., m
 symmetry, nosym
 nelect=16
 basis=6-31g*
 
 geometry={
 C -0.619 0.1278 0.3036
 C 0.6428 -0.2 -0.3541
 H -1.3638 1.0179 -0.2219
 H -0.9547 -0.8563 -0.125
 H 0.9785 0.8262 0.0894
 H 1.1719 -0.8199 0.0251
 }
 
 hf
 {multi,
 closed 7
 occ 9
 wf,spin=0;STATE,3
 }
 
 Commands  initialized (763), CPU time= 0.01 sec, 617 directives.
 Default parameters read. Elapsed time= 0.07 sec

 Checking input...
 Passed
1


                                         ***  PROGRAM SYSTEM MOLPRO  ***
                                       Copyright, TTI GmbH Stuttgart, 2015
                                    Version 2019.2 linked Oct 25 2019 22:50:27


 **********************************************************************************************************************************
 LABEL *                                                                                 
  64 bit serial version                                                                  DATE: 07-Feb-23          TIME: 16:13:46  
 **********************************************************************************************************************************

 SHA1:             8dbd9ae1082e4ce945b0f27595c9eb2d4aa09004
 **********************************************************************************************************************************


 Variable memory set to  125000000 words,  buffer space 

 SETTING NELECT         =        16.00000000                                  
 SETTING BASIS          =    6-31G*
 ZSYMEL=NOSYM


Geometry recognized as XYZ



 Recomputing integrals since basis changed


 Using spherical harmonics

 Library entry C      S 6-31G                selected for orbital group  1
 Library entry C      P 6-31G                selected for orbital group  1
 Library entry C      D 6-31G*               selected for orbital group  1
 Library entry H      S 6-31G                selected for orbital group  2


 PROGRAM * SEWARD (Integral evaluation for generally contracted gaussian basis sets)     Author: Roland Lindh, 1990

 Geometry written to block  1 of record 700


 Point group  C1  



 ATOMIC COORDINATES

 NR  ATOM    CHARGE       X              Y              Z

   1  C       6.00   -1.169740471    0.241506999    0.573720851
   2  C       6.00    1.214715953   -0.377945225   -0.669152021
   3  H       1.00   -2.577208489    1.923552222   -0.419330227
   4  H       1.00   -1.804121531   -1.618172480   -0.236215766
   5  H       1.00    1.849097013    1.561291724    0.168941516
   6  H       1.00    2.214570045   -1.549386450    0.047432126

 Bond lengths in Bohr (Angstrom)

 1-2  2.759363418  1-3  2.407569895  1-4  2.125286903  2-5  2.205783319  2-6  1.698668769
     ( 1.460192237)     ( 1.274031122)     ( 1.124653395)     ( 1.167250265)     ( 0.898896802)

 Bond angles

  1-2-5   83.10915444   1-2-6  118.25794327   2-1-3  118.43935846   2-1-4   83.67595007

  3-1-4  106.23907040   5-2-6  106.06467194

 NUCLEAR CHARGE:                   16
 NUMBER OF PRIMITIVE AOS:          72
 NUMBER OF SYMMETRY AOS:           70
 NUMBER OF CONTRACTIONS:           36   (   36A   )
 NUMBER OF CORE ORBITALS:           2   (    2A   )
 NUMBER OF VALENCE ORBITALS:       12   (   12A   )


 NUCLEAR REPULSION ENERGY   32.58712251

 Eigenvalues of metric

         1 0.904E-02 0.212E-01 0.593E-01 0.664E-01 0.884E-01 0.183E+00 0.236E+00 0.264E+00


 Contracted 2-electron integrals neglected if value below      1.0D-11
 AO integral compression algorithm  1   Integral accuracy      1.0D-11

     1.573 MB (compressed) written to integral file ( 59.2%)


 NUMBER OF SORTED TWO-ELECTRON INTEGRALS:     222111.     BUFFER LENGTH:  32768
 NUMBER OF SEGMENTS:   1  SEGMENT LENGTH:     222111      RECORD LENGTH: 524288

 Memory used in sort:       0.78 MW

 SORT1 READ      284735. AND WROTE      212530. INTEGRALS IN      1 RECORDS. CPU TIME:     0.01 SEC, REAL TIME:     0.00 SEC
 SORT2 READ      212530. AND WROTE      222111. INTEGRALS IN      6 RECORDS. CPU TIME:     0.02 SEC, REAL TIME:     0.02 SEC

 FILE SIZES:   FILE 1:    31.7 MBYTE,  FILE 4:     4.2 MBYTE,   TOTAL:     35.9 MBYTE

 OPERATOR DM      FOR CENTER  0  COORDINATES:    0.000000    0.000000    0.000000


 **********************************************************************************************************************************
 DATASETS  * FILE   NREC   LENGTH (MB)   RECORD NAMES
              1      19       31.13       500      610      700      900      950      970     1000      129      960     1100   
                                          VAR    BASINP    GEOM    SYMINP    ZMAT    AOBASIS   BASIS     P2S    ABASIS      S 
                                         1400     1410     1200     1210     1080     1600     1650     1300     1700   
                                           T        V       H0       H01     AOSYM     SMH    MOLCAS    ERIS     OPER   

 PROGRAMS   *        TOTAL       INT
 CPU TIMES  *         0.29      0.20
 REAL TIME  *         0.47 SEC
 DISK USED  *        36.24 MB
 **********************************************************************************************************************************


 PROGRAM * RHF-SCF (CLOSED SHELL)       Authors: W. Meyer, H.-J. Werner


 NUMBER OF ELECTRONS:       8+    8-    SPACE SYMMETRY=1    SPIN SYMMETRY: Singlet 
 CONVERGENCE THRESHOLDS:    1.00E-05 (Density)    1.00E-07 (Energy)
 MAX. NUMBER OF ITERATIONS:       60
 INTERPOLATION TYPE:            DIIS
 INTERPOLATION STEPS:              2 (START)      1 (STEP)
 LEVEL SHIFTS:                  0.00 (CLOSED)  0.00 (OPEN) 



 Orbital guess generated from atomic densities. Full valence occupancy:    8

 Molecular orbital dump at record        2100.2

 Initial occupancy:   8

 ITERATION    DDIFF          GRAD             ENERGY        2-EL.EN.            DIPOLE MOMENTS         DIIS   ORB.
    1      0.000D+00      0.000D+00       -77.76907804    116.330896   -0.29178    0.22539    0.15874    0    start
    2      0.000D+00      0.818D-02       -77.78985810    115.144461    0.08520   -0.10990   -0.19699    1    diag
    3      0.968D-02      0.419D-02       -77.79403485    115.473435   -0.07631   -0.00268    0.05540    2    diag
    4      0.414D-02      0.171D-02       -77.79517900    115.518428    0.00623   -0.05816   -0.04426    3    diag
    5      0.221D-02      0.566D-03       -77.79536545    115.449267    0.00366   -0.05784   -0.02652    4    diag
    6      0.890D-03      0.235D-03       -77.79546064    115.459615    0.00904   -0.05932   -0.02870    5    diag
    7      0.787D-03      0.107D-03       -77.79549121    115.460508    0.00988   -0.05823   -0.02924    6    diag
    8      0.487D-03      0.391D-04       -77.79549524    115.461854    0.00968   -0.05806   -0.02948    7    diag
    9      0.193D-03      0.128D-04       -77.79549556    115.462185    0.00943   -0.05797   -0.02953    8    diag
   10      0.566D-04      0.349D-05       -77.79549558    115.462202    0.00933   -0.05799   -0.02946    9    orth
   11      0.131D-04      0.954D-06       -77.79549558    115.462195    0.00929   -0.05798   -0.02945    9    diag
   12      0.261D-05      0.277D-06       -77.79549558    115.462199    0.00928   -0.05798   -0.02945    0    orth

 Final occupancy:   8

 !RHF STATE  1.1 Energy               -77.795495583718
 Nuclear energy                        32.58712251
 One-electron energy                 -168.11371737
 Two-electron energy                   57.73109928
 Virial quotient                       -0.99869308
 !RHF STATE  1.1 Dipole moment          0.00928156    -0.05798226    -0.02944941
 Dipole moment /Debye                   0.02358983    -0.14736654    -0.07484804

 ELECTRON ORBITALS
 =================

  Orbital  Occupation    Energy     Coefficients
    1.1     2.00000   -11.27538     1 1s    0.99627
    2.1     2.00000   -11.24450     2 1s    0.99612
    3.1     2.00000    -1.04638     1 1s    0.25397     2 1s    0.31172     2 1s    0.25692
    4.1     2.00000    -0.80228     1 1s   -0.25231     1 1s   -0.31689
    5.1     2.00000    -0.63058     2 2py   0.36167
    6.1     2.00000    -0.54642     1 2px   0.28434     1 2py  -0.27316     2 2px  -0.27238     3 1s   -0.25057
    7.1     2.00000    -0.39320     1 2pz   0.26595     2 2pz   0.31984     2 2pz   0.28689
    8.1     2.00000    -0.38700     2 2px   0.28256     4 1s    0.25962     5 1s    0.27652
    9.1     0.00000     0.05992     1 1s    0.46773     1 2pz   0.31560     1 2pz   0.43080     2 1s    0.31046     2 2pz  -0.33929
                                    2 2pz  -0.48715     3 1s   -0.27237
   10.1     0.00000     0.22518     1 1s   -1.26911     1 2px   0.47104     1 2pz   0.55327     2 1s   -0.84622     2 2px  -0.49892
                                    2 2py  -0.33661     2 2pz  -0.38916     3 1s    0.88659     4 1s    0.92937     5 1s    1.00062
                                    6 1s    0.46272
   11.1     0.00000     0.26199     1 1s   -0.77924     1 2py  -0.27935     1 2py  -0.83435     1 2pz   0.41007     2 1s    1.22874
                                    2 2py   0.33550     3 1s    1.36295     4 1s   -0.52103     5 1s   -0.61335     6 1s   -0.62540
   12.1     0.00000     0.32922     1 1s    0.41970     1 2px   0.55502     1 2py  -0.52318     2 1s   -2.38459     2 2py   1.17722
                                    2 2pz  -0.77068     3 1s    0.38881     5 1s   -0.48185     6 1s    2.82010
   13.1     0.00000     0.33458     1 1s   -1.20528     1 2py   0.88689     1 2pz   0.34273     2 1s    1.26559     2 2px   0.28545
                                    2 2py   0.55821     2 2pz   0.38937     4 1s    1.84901     5 1s   -1.51490     6 1s   -0.40037
   14.1     0.00000     0.42545     1 1s   -2.17996     1 2px  -1.66730     1 2py   0.44266     1 2pz   0.85543     2 1s    1.52436
                                    2 2px  -1.89513     2 2py   0.88226     2 2pz   0.64775     3 1s   -0.33570     5 1s   -0.26356
                                    6 1s    1.22040
   15.1     0.00000     0.69689     1 2px   0.46472     1 2px  -0.76927     2 1s    0.50917     2 2px  -0.58025     2 2px   1.20899
                                    2 2py  -0.61019     4 1s    0.36181     5 1s    0.36540     6 1s   -0.27526     6 1s   -0.68441
   16.1     0.00000     0.73698     1 1s   -0.38920     1 2px   0.31743     1 2px  -0.48697     1 2py  -0.27960     2 1s   -0.54673
                                    2 2py  -0.58175     2 2px  -0.43874     2 2py   1.39937     2 2pz  -0.39756     3 1s   -0.33511
                                    5 1s   -0.38423     5 1s    0.27997     6 1s    0.41432     6 1s    0.65538
   17.1     0.00000     0.79309     1 1s   -0.36357     1 2py  -0.42013     1 2pz  -0.77933     1 2py   0.86648     1 2pz   0.89811
                                    2 1s    0.39574     2 2pz  -0.39278     2 2pz   0.39127     4 1s    0.33103
   18.1     0.00000     0.80948     1 2py   0.51354     1 2px   0.26371     1 2py  -0.95550     2 2py  -0.29912     2 2pz  -0.80217
                                    2 2px   0.30434     2 2py   0.48639     2 2pz   0.82398
   19.1     0.00000     0.87519     1 1s    0.40472     1 1s   -0.71937     1 2px   0.33850     1 2py  -0.43297     1 2pz   0.69762
                                    1 2px  -0.76038     1 2py   1.00707     1 2pz  -0.75382     2 1s    0.33009     2 2pz  -0.50104
                                    2 2pz   0.83495     3 1s   -0.28339
   20.1     0.00000     0.97179     1 1s    0.27474     1 1s   -0.38562     1 2px   0.68199     1 2py   0.34960     1 2px  -1.12778
                                    1 2py  -0.75154     2 2px   0.72090     2 2py   0.40159     2 2px  -1.16621     2 2py  -0.80132
                                    4 1s   -1.03442     5 1s    1.04511
   21.1     0.00000     1.04761     1 1s   -0.66926     1 1s    0.92699     1 2px   0.49625     1 2py  -0.41851     1 2px  -0.75896
                                    1 2py   0.54167     2 2px  -0.55490     2 2py   0.45485     3 1s    0.96030     3 1s   -1.61001
                                    6 1s    0.58066
   22.1     0.00000     1.11486     1 1s   -0.40027     1 1s    0.56691     1 2px   0.27990     1 2py   0.26611     1 2px  -0.41465
                                    2 1s   -0.79385     2 1s    1.65274     2 2py  -0.52248     2 2py   0.56841     2 2pz   0.31895
                                    4 1s    0.47368     4 1s   -0.82806     5 1s    0.79406     5 1s   -1.43735
   23.1     0.00000     1.16993     1 1s   -0.53745     1 1s    0.63355     1 2py   0.51033     1 2pz   0.25844     1 2px  -0.41349
                                    1 2py  -0.52707     2 1s    0.41204     2 2py   0.34964     2 2py  -0.42530     4 1s    0.92061
                                    4 1s   -1.41942     5 1s   -0.60761     5 1s    0.79898     6 1s   -0.34062
   24.1     0.00000     1.25173     1 1s   -0.31093     1 1s   -0.75134     1 2px  -1.00940     1 2py   0.80532     2 1s   -1.64113
                                    2 1s    4.57811     2 2pz   1.46886     3 1s   -0.31788     3 1s   -0.40177     4 1s   -0.26301
                                    5 1s   -0.55242     5 1s   -0.52021     6 1s   -0.45388     6 1s   -1.41557
   25.1     0.00000     1.28568     1 1s   -1.90182     1 1s    5.17883     1 2px   0.98087     1 2py  -0.55098     1 2pz  -1.47905
                                    2 1s    0.47512     2 1s   -2.62763     2 2py   0.29777     2 2px   1.68435     2 2py  -1.21188
                                    2 2pz  -0.42395     3 1s   -0.37658     3 1s   -0.34610     4 1s   -0.39467     4 1s   -0.79876
                                    5 1s    0.25804     6 1s   -0.86301
   26.1     0.00000     1.40332     1 1s    0.40653     1 1s   -1.19435     1 2pz   0.32738     2 1s   -1.26200     2 1s    2.84516
                                    2 2px  -0.49713     2 2py   0.47993     2 2pz  -0.30965     2 2px   0.36532     2 2py  -0.49840
                                    2 2pz   0.59747     4 1s    0.27103     6 1s    0.91757     6 1s   -1.99233
   27.1     0.00000     1.69359     1 1s    0.58586     1 3d0   0.35394     1 3d2- -0.29580     1 3d2+ -0.31296     2 1s   -0.65427
                                    2 3d0  -0.33876     2 3d2-  0.30060     2 3d2+  0.34507
   28.1     0.00000     1.89039     1 1s    0.41974     1 1s   -1.15444     1 2pz   0.43092     1 3d0   0.33798     2 2px  -0.37223
                                    2 2py   0.30639     2 3d1+  0.46567     2 3d2+  0.37289     2 3d1-  0.47911     3 1s    0.33712
                                    6 1s    0.35222
   29.1     0.00000     1.96147     1 1s    0.65428     1 2px   0.31971     1 3d2- -0.29439     1 3d1+  0.53694     1 3d2+  0.33166
                                    1 3d1-  0.46426     2 1s    0.35064     2 1s   -1.52726     2 2pz  -0.49725     2 3d0   0.26842
                                    5 1s    0.30995     6 1s    0.46322
   30.1     0.00000     2.16167     1 1s    1.24971     1 2px   0.27883     1 2pz  -0.31567     1 3d0  -0.41535     1 3d2- -0.25491
                                    1 3d2+ -0.36578     2 1s    0.38580     2 1s   -1.62007     2 2px   0.37610     2 2py  -0.31933
                                    2 2pz  -0.45075     2 3d0   0.64097     2 3d2+  0.31526     3 1s   -0.32606     5 1s    0.42530
                                    6 1s    0.32979
   31.1     0.00000     2.24675     1 1s   -0.51776     1 1s    0.50589     1 2px  -0.26282     1 2px   0.32764     1 3d2- -0.32119
                                    1 3d1+ -0.37786     1 3d2+  0.34100     2 1s   -0.47391     2 3d2- -0.32856     2 3d1+ -0.38276
                                    2 3d2+  0.42694
   32.1     0.00000     2.35650     1 1s   -0.73620     1 2px  -0.35378     1 2py   0.48475     1 3d0   0.67452     1 3d2- -0.36894
                                    1 3d1- -0.47312     2 1s    0.68608     2 2pz   0.32000     2 3d0   0.30937     2 3d2- -0.32347
                                    4 1s    0.58175     6 1s   -0.36843
   33.1     0.00000     2.52988     1 1s    0.50425     1 3d2-  0.63506     1 3d1+ -0.42393     1 3d1-  0.38785     2 1s   -0.36645
                                    2 2px   0.26104     2 2py  -0.39426     2 3d0   0.42487     2 3d1- -0.55964     3 1s    0.34762
                                    4 1s   -0.33662     5 1s    0.36575     6 1s   -0.30021
   34.1     0.00000     2.64565     1 1s    0.32193     1 2py  -0.39241     1 3d2- -0.27823     1 3d2+ -0.54992     1 3d1-  0.61863
                                    2 2py   0.25381     2 3d2- -0.39538     2 3d2+ -0.52411     2 3d1-  0.44598     4 1s   -0.46316
                                    5 1s   -0.31358
   35.1     0.00000     2.86026     1 1s    0.49604     1 2px   0.30021     1 3d1+ -0.41908     2 1s   -0.75448     2 3d0   0.35058
                                    2 3d2-  0.89206     2 3d1+ -0.38796     2 3d1-  0.54021     5 1s   -0.28468     6 1s    1.16173
   36.1     0.00000     2.96150     1 1s    1.66046     1 2px   0.43618     1 2px   0.82053     1 2pz  -0.42484     1 3d2- -0.38982
                                    1 3d1+ -0.62282     1 3d2+  0.64438     2 1s   -1.55979     2 2px   0.47764     2 2px   0.88412
                                    2 2py  -0.30216     2 2pz  -0.39757     2 3d1+  0.79148     2 3d2+ -0.61522     2 3d1- -0.26840
                                    6 1s   -0.31636


 HOMO      8.1    -0.387001 =     -10.5308eV
 LUMO      9.1     0.059921 =       1.6305eV
 LUMO-HOMO         0.446923 =      12.1614eV


 **********************************************************************************************************************************
 DATASETS  * FILE   NREC   LENGTH (MB)   RECORD NAMES
              1      19       31.13       500      610      700      900      950      970     1000      129      960     1100   
                                          VAR    BASINP    GEOM    SYMINP    ZMAT    AOBASIS   BASIS     P2S    ABASIS      S 
                                         1400     1410     1200     1210     1080     1600     1650     1300     1700   
                                           T        V       H0       H01     AOSYM     SMH    MOLCAS    ERIS     OPER   

              2       4        2.86       700     1000      520     2100   
                                         GEOM     BASIS   MCVARS     RHF  

 PROGRAMS   *        TOTAL    HF-SCF       INT
 CPU TIMES  *         0.41      0.12      0.20
 REAL TIME  *         0.65 SEC
 DISK USED  *        36.24 MB
 **********************************************************************************************************************************


 PROGRAM * MULTI (Direct Multiconfiguration SCF)       Authors: P.J. Knowles, H.-J. Werner (1984)


 Number of closed-shell orbitals:   7 (   7 )
 Number of active  orbitals:        2 (   2 )
 Number of external orbitals:      27 (  27 )

 State symmetry 1

 Number of electrons:     2    Spin symmetry=Singlet   Space symmetry=1
 Number of states:        3
 Number of CSFs:          3   (4 determinants, 4 intermediate states)

 Molecular orbitals read from record     2100.2  Type=RHF/CANONICAL (state 1.1)

 Wavefunction dump at record             2140.2

 Convergence thresholds  0.10E-01 (gradient)  0.10E-05 (energy)  0.10E-02 (step length)

 Weight factors for state symmetry  1:    0.33333   0.33333   0.33333

 Number of orbital rotations:      257   (    14 Core/Active    189 Core/Virtual   0 Active/Active     54 Active/Virtual)
 Total number of variables:        269

 Micro-Iterations solved by the two-step solver

 ITER. MIC  NCI  NEG     ENERGY(VAR)     ENERGY(PROJ)   ENERGY CHANGE     GRAD(0)  GRAD(ORB)   GRAD(CI)     STEP       TIME

   1   10    6    0     -77.63351349     -77.66034650   -0.02683301    0.15946234 0.00051591 0.00000000  0.21D+00      0.16
   2    6    5    0     -77.65934779     -77.65959147   -0.00024368    0.02539907 0.00003374 0.00000000  0.11D-01      0.25
   3    7    5    0     -77.65959222     -77.65959222   -0.00000001    0.00013486 0.00000000 0.00000000  0.64D-04      0.36
   4    3    3    0     -77.65959222     -77.65959222   -0.00000000    0.00000000 0.00000000 0.00000000  0.31D-08      0.42

 ** WVFN ****  CONVERGENCE REACHED, FINAL GRADIENT:  0.96D-13



 Results for state 1.1
 =====================

 !MCSCF STATE  1.1 Energy             -77.789132148292
 Nuclear energy                        32.58712251
 Kinetic energy                        77.95410139
 One electron energy                 -168.19306632
 Two electron energy                   57.81681166
 Virial ratio                           1.99788376

 !MCSCF STATE  1.1 Dipole moment       -0.00952990    -0.05684883    -0.02968015
 Dipole moment /Debye                  -0.02422100    -0.14448584    -0.07543448

 Results for state 2.1
 =====================

 !MCSCF STATE  2.1 Energy             -77.687048023346
 Nuclear energy                        32.58712251
 Kinetic energy                        78.03051371
 One electron energy                 -167.88450131
 Two electron energy                   57.61033078
 Virial ratio                           1.99559832

 !MCSCF STATE  2.1 Dipole moment        0.06432003    -0.04992327    -0.00377389
 Dipole moment /Debye                   0.16347450    -0.12688399    -0.00959164

 Results for state 3.1
 =====================

 !MCSCF STATE  3.1 Energy             -77.502596488723
 Nuclear energy                        32.58712251
 Kinetic energy                        78.09099781
 One electron energy                 -167.61931313
 Two electron energy                   57.52959413
 Virial ratio                           1.99246518

 !MCSCF STATE  3.1 Dipole moment        0.16198695    -0.05629938     0.02730794
 Dipole moment /Debye                   0.41170278    -0.14308938     0.06940530

 State-averaged charge density matrix saved on record  2140.2 (density set 1)

 !MCSCF expec         <1.1|DMX|1.1>    -0.009529896827 au =    -0.024220995178 Debye
 !MCSCF trans         <2.1|DMX|1.1>     0.053017267213 au =     0.134747626002 Debye
 !MCSCF expec         <2.1|DMX|2.1>     0.064320027987 au =     0.163474496732 Debye
 !MCSCF trans         <3.1|DMX|1.1>    -0.004254647281 au =    -0.010813526437 Debye
 !MCSCF trans         <3.1|DMX|2.1>     0.051514167145 au =     0.130927376933 Debye
 !MCSCF expec         <3.1|DMX|3.1>     0.161986945546 au =     0.411702781061 Debye

 !MCSCF expec         <1.1|DMY|1.1>    -0.056848825473 au =    -0.144485837846 Debye
 !MCSCF trans         <2.1|DMY|1.1>    -0.027688300970 au =    -0.070372031978 Debye
 !MCSCF expec         <2.1|DMY|2.1>    -0.049923274092 au =    -0.126883994966 Debye
 !MCSCF trans         <3.1|DMY|1.1>    -0.002253563337 au =    -0.005727611505 Debye
 !MCSCF trans         <3.1|DMY|2.1>    -0.030516097518 au =    -0.077559103131 Debye
 !MCSCF expec         <3.1|DMY|3.1>    -0.056299381489 au =    -0.143089382005 Debye

 !MCSCF expec         <1.1|DMZ|1.1>    -0.029680150314 au =    -0.075434476436 Debye
 !MCSCF trans         <2.1|DMZ|1.1>     0.011914192230 au =     0.030280872689 Debye
 !MCSCF expec         <2.1|DMZ|2.1>    -0.003773887580 au =    -0.009591637195 Debye
 !MCSCF trans         <3.1|DMZ|1.1>    -0.001872059239 au =    -0.004757988322 Debye
 !MCSCF trans         <3.1|DMZ|2.1>     0.010837037135 au =     0.027543196841 Debye
 !MCSCF expec         <3.1|DMZ|3.1>     0.027307936258 au =     0.069405304635 Debye


 NATURAL ORBITALS (state averaged)
 =================================

  Orbital  Occupation    Energy     Coefficients
    1.1     2.00000   -11.27089     1 1s    0.99625
    2.1     2.00000   -11.23916     2 1s    0.99609
    3.1     2.00000    -1.05877     1 1s    0.25302     2 1s    0.30358     2 1s    0.25558
    4.1     2.00000    -0.80427     1 1s   -0.33232
    5.1     2.00000    -0.63469     2 2py   0.36547
    6.1     2.00000    -0.54365     1 2py  -0.29949     3 1s   -0.25629
    7.1     2.00000    -0.42021     1 2pz   0.31917     1 2pz   0.27241     2 2pz   0.33127     2 2pz   0.28482
    8.1     1.00000    -0.08948     1 1s    0.30347     1 2pz   0.39525     1 2pz   0.41212     2 2pz  -0.41214     2 2pz  -0.43886
    9.1     1.00000    -0.23180     1 2px  -0.30905     2 2px   0.31176     4 1s    0.29106     5 1s    0.29657
   10.1    -0.00000     0.21394     1 1s   -1.24138     1 2px   0.46317     1 2pz   0.45717     2 1s   -0.93723     2 2px  -0.49719
                                    2 2py  -0.37418     2 2pz  -0.33515     3 1s    0.77613     4 1s    0.98096     5 1s    1.05250
                                    6 1s    0.46668
   11.1    -0.00000     0.26019     1 1s   -0.97448     1 2py  -0.26666     1 2py  -0.77361     1 2pz   0.43591     2 1s    1.22441
                                    2 2py   0.31921     3 1s    1.43045     4 1s   -0.33643     5 1s   -0.58943     6 1s   -0.62486
   12.1    -0.00000     0.31844     1 1s   -1.30399     1 2py   0.97049     1 2pz   0.36922     2 1s    1.36015     2 2py   0.58785
                                    2 2pz   0.43532     4 1s    1.87791     5 1s   -1.50930     6 1s   -0.32896
   13.1    -0.00000     0.33090     1 1s    0.29419     1 2px   0.52631     1 2py  -0.49199     2 1s   -2.33624     2 2px  -0.27889
                                    2 2py   1.21283     2 2pz  -0.72528     3 1s    0.41080     5 1s   -0.49651     6 1s    2.83795
   14.1    -0.00000     0.43110     1 1s   -2.03634     1 2px  -1.68711     1 2py   0.34362     1 2pz   0.79335     2 1s    1.42407
                                    2 2px  -1.89744     2 2py   0.76753     2 2pz   0.60355     3 1s   -0.34441     6 1s    1.18990
   15.1    -0.00000     0.69484     1 2px   0.46867     1 2px  -0.76232     2 1s    0.41532     2 2px  -0.57048     2 2px   1.18803
                                    2 2py  -0.53044     4 1s   -0.25588     4 1s    0.41844     5 1s    0.43605     6 1s   -0.65715
   16.1    -0.00000     0.73272     1 1s   -0.46994     1 2px   0.27718     1 2px  -0.46235     1 2py  -0.25052     2 1s   -0.51828
                                    2 2py  -0.56332     2 2px  -0.55504     2 2py   1.43093     2 2pz  -0.37256     3 1s   -0.33574
                                    5 1s   -0.41123     5 1s    0.27841     6 1s    0.42991     6 1s    0.68166
   17.1    -0.00000     0.79242     1 1s   -0.60294     1 2py  -0.41132     1 2pz  -0.76142     1 2px  -0.26671     1 2py   0.92110
                                    1 2pz   0.98726     2 1s    0.58797     2 2pz  -0.37800     2 2pz   0.41604     4 1s    0.34010
   18.1    -0.00000     0.80829     1 2py   0.48440     1 2py  -0.89942     2 2py  -0.28637     2 2pz  -0.80203     2 2px   0.27710
                                    2 2py   0.48781     2 2pz   0.92975     6 1s   -0.25468
   19.1    -0.00000     0.87327     1 1s    0.36489     1 1s   -0.68050     1 2px   0.34685     1 2py  -0.43397     1 2pz   0.68769
                                    1 2px  -0.80265     1 2py   1.02144     1 2pz  -0.79602     2 1s    0.29855     2 2pz  -0.46365
                                    2 2pz   0.86907     3 1s   -0.33471
   20.1    -0.00000     0.97821     1 1s    0.29121     1 1s   -0.34427     1 2px   0.67615     1 2py   0.34925     1 2px  -1.04760
                                    1 2py  -0.75707     2 2px   0.71661     2 2py   0.41260     2 2px  -1.08965     2 2py  -0.82399
                                    4 1s   -0.98000     5 1s    1.02332
   21.1    -0.00000     1.05420     1 1s   -0.69201     1 1s    0.96111     1 2px   0.53613     1 2py  -0.38432     1 2px  -0.79870
                                    1 2py   0.49590     2 2px  -0.56705     2 2py   0.48565     3 1s    0.93411     3 1s   -1.57563
                                    6 1s    0.58889
   22.1    -0.00000     1.08822     1 1s   -0.28076     1 1s    0.45199     1 2px   0.25667     1 2py   0.28570     1 2px  -0.29832
                                    1 2py  -0.26075     2 1s   -0.72071     2 1s    1.42794     2 2py  -0.54555     2 2px   0.31014
                                    2 2py   0.58752     3 1s   -0.29731     3 1s    0.27851     4 1s    0.40659     4 1s   -0.69415
                                    5 1s    0.84887     5 1s   -1.44244
   23.1    -0.00000     1.13337     1 1s   -0.56265     1 1s    0.67884     1 2py   0.55917     1 2px  -0.46313     1 2py  -0.58300
                                    2 1s    0.45424     2 2py   0.30944     2 2py  -0.37898     4 1s    0.95548     4 1s   -1.50678
                                    5 1s   -0.54384     5 1s    0.72578     6 1s   -0.27821
   24.1    -0.00000     1.24117     1 1s   -0.29511     1 1s   -0.82152     1 2px  -1.06833     1 2py   0.81285     2 1s   -1.68280
                                    2 1s    4.70288     2 2pz   1.47362     3 1s   -0.32226     3 1s   -0.39596     5 1s   -0.51480
                                    5 1s   -0.57398     6 1s   -0.47350     6 1s   -1.38446
   25.1    -0.00000     1.28058     1 1s   -1.92681     1 1s    5.19217     1 2px   0.97681     1 2py  -0.51244     1 2pz  -1.46969
                                    2 1s    0.45986     2 1s   -2.56871     2 2py   0.28012     2 2px   1.69160     2 2py  -1.19719
                                    2 2pz  -0.40088     3 1s   -0.38644     3 1s   -0.35776     4 1s   -0.38506     4 1s   -0.79634
                                    6 1s   -0.86351
   26.1    -0.00000     1.40311     1 1s    0.36324     1 1s   -1.11616     1 2pz   0.30115     2 1s   -1.26869     2 1s    2.84733
                                    2 2px  -0.50079     2 2py   0.49839     2 2pz  -0.28262     2 2px   0.38479     2 2py  -0.53220
                                    2 2pz   0.58744     6 1s    0.91245     6 1s   -2.02278
   27.1    -0.00000     1.68792     1 1s    0.60920     1 3d0   0.34747     1 3d2- -0.29964     1 3d2+ -0.31582     2 1s   -0.66721
                                    2 3d0  -0.33401     2 3d2-  0.30246     2 3d2+  0.34654
   28.1    -0.00000     1.88710     1 1s    0.41018     1 1s   -1.13190     1 2pz   0.42275     1 3d0   0.33509     2 2px  -0.37001
                                    2 2py   0.31041     2 3d1+  0.46643     2 3d2+  0.38029     2 3d1-  0.47778     3 1s    0.33817
                                    6 1s    0.35534
   29.1    -0.00000     1.95854     1 1s    0.63615     1 2px   0.31358     1 3d2- -0.29913     1 3d1+  0.53417     1 3d2+  0.33770
                                    1 3d1-  0.46413     2 1s    0.33481     2 1s   -1.48584     2 2pz  -0.48450     2 3d0   0.26881
                                    5 1s    0.30220     6 1s    0.46472
   30.1    -0.00000     2.16103     1 1s    1.24971     1 2px   0.27791     1 2pz  -0.31778     1 3d0  -0.41866     1 3d2- -0.26061
                                    1 3d2+ -0.35844     2 1s    0.37412     2 1s   -1.58839     2 2px   0.36707     2 2py  -0.32297
                                    2 2pz  -0.43551     2 3d0   0.64392     2 3d2+  0.32741     3 1s   -0.32837     5 1s    0.42378
                                    6 1s    0.32502
   31.1    -0.00000     2.24110     1 1s   -0.50414     1 1s    0.43072     1 2px  -0.27419     1 2px   0.30204     1 3d2- -0.32230
                                    1 3d1+ -0.38186     1 3d2+  0.35184     2 1s   -0.48174     2 3d2- -0.33848     2 3d1+ -0.39804
                                    2 3d2+  0.41643
   32.1    -0.00000     2.35100     1 1s   -0.77305     1 2px  -0.36881     1 2py   0.50407     1 3d0   0.68026     1 3d2- -0.36871
                                    1 3d1- -0.48861     2 1s    0.69956     2 2pz   0.32469     2 3d0   0.29503     2 3d2- -0.31426
                                    4 1s    0.57531     6 1s   -0.38279
   33.1    -0.00000     2.52732     1 1s    0.47080     1 3d2-  0.63348     1 3d1+ -0.41556     1 3d1-  0.37064     2 1s   -0.34107
                                    2 2px   0.25143     2 2py  -0.40653     2 3d0   0.41908     2 3d1- -0.57931     3 1s    0.34564
                                    4 1s   -0.31093     5 1s    0.36969     6 1s   -0.32371
   34.1    -0.00000     2.63801     1 1s    0.32679     1 2py  -0.39928     1 3d2- -0.27181     1 3d2+ -0.54817     1 3d1-  0.62900
                                    2 3d2- -0.41107     2 3d2+ -0.51649     2 3d1-  0.43180     4 1s   -0.45822     5 1s   -0.29576
   35.1    -0.00000     2.86062     1 1s    0.53753     1 2px   0.31868     1 3d1+ -0.44013     2 1s   -0.78897     2 3d0   0.36647
                                    2 3d2-  0.88491     2 3d1+ -0.37745     2 3d1-  0.53137     5 1s   -0.27490     6 1s    1.15300
   36.1    -0.00000     2.95727     1 1s    1.68114     1 2px   0.42924     1 2px   0.82705     1 2pz  -0.42954     1 3d2- -0.38920
                                    1 3d1+ -0.61733     1 3d2+  0.64046     2 1s   -1.57595     2 2px   0.47294     2 2px   0.89384
                                    2 2py  -0.31189     2 2pz  -0.40274     2 3d1+  0.80019     2 3d2+ -0.60952     2 3d1- -0.28031
                                    6 1s   -0.33405


 Natural orbital dump (state averaged) at molpro section  2140.2    (Orbital set 2)



 **********************************************************************************************************************************
 DATASETS  * FILE   NREC   LENGTH (MB)   RECORD NAMES
              1      20       31.86       500      610      700      900      950      970     1000      129      960     1100   
                                          VAR    BASINP    GEOM    SYMINP    ZMAT    AOBASIS   BASIS     P2S    ABASIS      S 
                                         1400     1410     1200     1210     1080     1600     1650     1300     1700     1380   
                                           T        V       H0       H01     AOSYM     SMH    MOLCAS    ERIS     OPER     JKOP   

              2       5        5.42       700     1000      520     2100     2140   
                                         GEOM     BASIS   MCVARS     RHF     MCSCF   

 PROGRAMS   *        TOTAL     MULTI    HF-SCF       INT
 CPU TIMES  *         0.88      0.47      0.12      0.20
 REAL TIME  *         1.44 SEC
 DISK USED  *        39.04 MB
 **********************************************************************************************************************************
 Molecular orbitals read from record     2140.2  Type=MCSCF/NATURAL (state averaged)
 Occupation numbers read from record     2140.2  Type=MCSCF/NATURAL (state averaged)
 Orbital energies read from record       2140.2  Type=MCSCF/NATURAL (state averaged)
 Redundancy group numbers read from rec  2140.2  Type=MCSCF/NATURAL (state averaged)

 MULTI/6-31G* energy=    -77.502596488723

           MULTI          HF-SCF
    -77.50259649    -77.79549558
 **********************************************************************************************************************************
 Molpro calculation terminated
