
 Primary working directories    : /scratch.local/johan406.molpro_temp/molpro.kBIwSQQ2JQ
 Secondary working directories  : /scratch.local/johan406.molpro_temp/molpro.kBIwSQQ2JQ
 Wavefunction directory         : /home/goodpast/johan406/wfu/
 Main file repository           : /scratch.local/johan406.molpro_temp/molpro.kBIwSQQ2JQ/

 id        : roweumn

 Nodes     nprocs
 acn09        1

 Using customized tuning parameters: mindgm=1; mindgv=20; mindgc=4; mindgr=1; noblas=0; minvec=7
 default implementation of scratch files=df  


 Variables initialized (934), CPU time= 0.00 sec
                                                                                 !leave this line blank
 
 gprint, orbitals=30
 memory, 125., m
 symmetry, nosym
 nelect=16
 basis=6-31g*
 
 geometry={
 C -0.616 0.1238 0.3056
 C 0.6458 -0.205 -0.3521
 H -1.4028 1.0669 -0.2489
 H -0.9517 -0.8523 -0.12
 H 0.9815 0.8302 0.0944
 H 1.1299 -0.7689 -0.0029
 }
 
 hf
 {multi,
 closed 7
 occ 9
 wf,spin=0;STATE,3
 }
 
 Commands  initialized (763), CPU time= 0.01 sec, 617 directives.
 Default parameters read. Elapsed time= 0.08 sec

 Checking input...
 Passed
1


                                         ***  PROGRAM SYSTEM MOLPRO  ***
                                       Copyright, TTI GmbH Stuttgart, 2015
                                    Version 2019.2 linked Oct 25 2019 22:50:27


 **********************************************************************************************************************************
 LABEL *                                                                                 
  64 bit serial version                                                                  DATE: 07-Feb-23          TIME: 16:15:57  
 **********************************************************************************************************************************

 SHA1:             8dbd9ae1082e4ce945b0f27595c9eb2d4aa09004
 **********************************************************************************************************************************


 Variable memory set to  125000000 words,  buffer space 

 SETTING NELECT         =        16.00000000                                  
 SETTING BASIS          =    6-31G*
 ZSYMEL=NOSYM


Geometry recognized as XYZ



 Recomputing integrals since basis changed


 Using spherical harmonics

 Library entry C      S 6-31G                selected for orbital group  1
 Library entry C      P 6-31G                selected for orbital group  1
 Library entry C      D 6-31G*               selected for orbital group  1
 Library entry H      S 6-31G                selected for orbital group  2


 PROGRAM * SEWARD (Integral evaluation for generally contracted gaussian basis sets)     Author: Roland Lindh, 1990

 Geometry written to block  1 of record 700


 Point group  C1  



 ATOMIC COORDINATES

 NR  ATOM    CHARGE       X              Y              Z

   1  C       6.00   -1.164071293    0.233948094    0.577500304
   2  C       6.00    1.220385131   -0.387393856   -0.665372568
   3  H       1.00   -2.650907808    2.016148802   -0.470352832
   4  H       1.00   -1.798452353   -1.610613576   -0.226767135
   5  H       1.00    1.854766191    1.568850629    0.178390146
   6  H       1.00    2.135201548   -1.453010417   -0.005480206

 Bond lengths in Bohr (Angstrom)

 1-2  2.759788259  1-3  2.546550290  1-4  2.109903599  2-5  2.222896158  2-6  1.551736338
     ( 1.460417053)     ( 1.347576380)     ( 1.116512902)     ( 1.176305989)     ( 0.821143508)

 Bond angles

  1-2-5   82.96332013   1-2-6  118.19405416   2-1-3  118.47089135   2-1-4   83.75858990

  3-1-4  106.22655983   5-2-6  105.94302512

 NUCLEAR CHARGE:                   16
 NUMBER OF PRIMITIVE AOS:          72
 NUMBER OF SYMMETRY AOS:           70
 NUMBER OF CONTRACTIONS:           36   (   36A   )
 NUMBER OF CORE ORBITALS:           2   (    2A   )
 NUMBER OF VALENCE ORBITALS:       12   (   12A   )


 NUCLEAR REPULSION ENERGY   32.79876268

 Eigenvalues of metric

         1 0.869E-02 0.175E-01 0.588E-01 0.678E-01 0.949E-01 0.146E+00 0.236E+00 0.259E+00


 Contracted 2-electron integrals neglected if value below      1.0D-11
 AO integral compression algorithm  1   Integral accuracy      1.0D-11

     1.573 MB (compressed) written to integral file ( 59.1%)


 NUMBER OF SORTED TWO-ELECTRON INTEGRALS:     222111.     BUFFER LENGTH:  32768
 NUMBER OF SEGMENTS:   1  SEGMENT LENGTH:     222111      RECORD LENGTH: 524288

 Memory used in sort:       0.78 MW

 SORT1 READ      284735. AND WROTE      212530. INTEGRALS IN      1 RECORDS. CPU TIME:     0.01 SEC, REAL TIME:     0.01 SEC
 SORT2 READ      212530. AND WROTE      222111. INTEGRALS IN      6 RECORDS. CPU TIME:     0.02 SEC, REAL TIME:     0.03 SEC

 FILE SIZES:   FILE 1:    31.7 MBYTE,  FILE 4:     4.2 MBYTE,   TOTAL:     35.9 MBYTE

 OPERATOR DM      FOR CENTER  0  COORDINATES:    0.000000    0.000000    0.000000


 **********************************************************************************************************************************
 DATASETS  * FILE   NREC   LENGTH (MB)   RECORD NAMES
              1      19       31.13       500      610      700      900      950      970     1000      129      960     1100   
                                          VAR    BASINP    GEOM    SYMINP    ZMAT    AOBASIS   BASIS     P2S    ABASIS      S 
                                         1400     1410     1200     1210     1080     1600     1650     1300     1700   
                                           T        V       H0       H01     AOSYM     SMH    MOLCAS    ERIS     OPER   

 PROGRAMS   *        TOTAL       INT
 CPU TIMES  *         0.29      0.19
 REAL TIME  *         0.48 SEC
 DISK USED  *        36.24 MB
 **********************************************************************************************************************************


 PROGRAM * RHF-SCF (CLOSED SHELL)       Authors: W. Meyer, H.-J. Werner


 NUMBER OF ELECTRONS:       8+    8-    SPACE SYMMETRY=1    SPIN SYMMETRY: Singlet 
 CONVERGENCE THRESHOLDS:    1.00E-05 (Density)    1.00E-07 (Energy)
 MAX. NUMBER OF ITERATIONS:       60
 INTERPOLATION TYPE:            DIIS
 INTERPOLATION STEPS:              2 (START)      1 (STEP)
 LEVEL SHIFTS:                  0.00 (CLOSED)  0.00 (OPEN) 



 Orbital guess generated from atomic densities. Full valence occupancy:    8

 Molecular orbital dump at record        2100.2

 Initial occupancy:   8

 ITERATION    DDIFF          GRAD             ENERGY        2-EL.EN.            DIPOLE MOMENTS         DIIS   ORB.
    1      0.000D+00      0.000D+00       -77.70136852    116.696542   -0.42880    0.33263    0.23686    0    start
    2      0.000D+00      0.933D-02       -77.72510407    115.338045    0.12620   -0.15775   -0.28872    1    diag
    3      0.117D-01      0.569D-02       -77.73254585    115.646369   -0.08877   -0.01480    0.04623    2    diag
    4      0.507D-02      0.175D-02       -77.73386239    115.745752   -0.00159   -0.07266   -0.05183    3    diag
    5      0.240D-02      0.609D-03       -77.73407913    115.663546    0.00207   -0.07738   -0.03532    4    diag
    6      0.982D-03      0.244D-03       -77.73417672    115.673699    0.00918   -0.07915   -0.03762    5    diag
    7      0.793D-03      0.112D-03       -77.73420772    115.674314    0.01067   -0.07794   -0.03842    6    diag
    8      0.458D-03      0.469D-04       -77.73421382    115.675936    0.01058   -0.07752   -0.03882    7    diag
    9      0.239D-03      0.154D-04       -77.73421429    115.676330    0.01021   -0.07741   -0.03891    8    diag
   10      0.690D-04      0.414D-05       -77.73421432    115.676383    0.01005   -0.07741   -0.03882    9    orth
   11      0.162D-04      0.129D-05       -77.73421432    115.676373    0.00999   -0.07740   -0.03880    9    diag
   12      0.362D-05      0.388D-06       -77.73421432    115.676380    0.00998   -0.07740   -0.03880    0    orth

 Final occupancy:   8

 !RHF STATE  1.1 Energy               -77.734214321235
 Nuclear energy                        32.79876268
 One-electron energy                 -168.37116707
 Two-electron energy                   57.83819007
 Virial quotient                       -0.99612396
 !RHF STATE  1.1 Dipole moment          0.00997981    -0.07740445    -0.03880019
 Dipole moment /Debye                   0.02536449    -0.19672959    -0.09861378

 ELECTRON ORBITALS
 =================

  Orbital  Occupation    Energy     Coefficients
    1.1     2.00000   -11.28173     1 1s    0.99633
    2.1     2.00000   -11.24097     2 1s    0.99611
    3.1     2.00000    -1.05538     2 1s    0.32408     2 1s    0.25147
    4.1     2.00000    -0.81677     1 1s   -0.26185     1 1s   -0.31829     2 2px   0.26005
    5.1     2.00000    -0.63551     2 2py   0.36388
    6.1     2.00000    -0.53545     1 2px   0.27839     1 2py  -0.27123     2 2px  -0.26467     3 1s   -0.25355
    7.1     2.00000    -0.39453     2 2pz   0.31745     2 2pz   0.27890
    8.1     2.00000    -0.38706     2 2px  -0.27548     5 1s   -0.26621
    9.1     0.00000     0.05665     1 1s    0.48923     1 2pz   0.30727     1 2pz   0.41108     2 1s    0.27072     2 2pz  -0.34131
                                    2 2pz  -0.48715     3 1s   -0.31057
   10.1     0.00000     0.21756     1 1s   -1.25765     1 2px   0.46014     1 2pz   0.60840     2 1s   -0.67916     2 2px  -0.47115
                                    2 2pz  -0.37761     3 1s    1.04169     4 1s    0.76872     5 1s    0.84672     6 1s    0.43460
   11.1     0.00000     0.25245     1 1s   -0.31962     1 2py  -0.28196     1 2py  -0.83815     1 2pz   0.26738     2 1s    1.27663
                                    2 2py   0.45027     3 1s    1.04014     4 1s   -0.70881     5 1s   -0.84235     6 1s   -0.60624
   12.1     0.00000     0.33343     1 1s   -0.88894     1 2px   0.48342     1 2py   0.61419     1 2pz   0.30679     2 2py   0.25116
                                    2 2py   0.98937     4 1s    1.68613     5 1s   -1.51317     6 1s    0.97975
   13.1     0.00000     0.33667     1 1s    1.08104     1 2px   0.43416     1 2py  -0.80316     2 1s   -3.20710     2 2px  -0.32564
                                    2 2py   0.83687     2 2pz  -0.92591     4 1s   -0.86718     6 1s    3.11241
   14.1     0.00000     0.42701     1 1s   -2.18312     1 2px  -1.62681     1 2py   0.38346     1 2pz   0.86329     2 1s    1.19817
                                    2 2px  -1.94073     2 2py   0.98591     2 2pz   0.57739     3 1s   -0.26977     5 1s   -0.28119
                                    6 1s    1.56210
   15.1     0.00000     0.68975     1 2px   0.39204     1 2px  -0.68494     2 1s    0.95611     2 2px  -0.55933     2 2px   1.34756
                                    2 2py  -0.97652     2 2pz   0.27083     3 1s   -0.30200     4 1s    0.30268     5 1s    0.28285
                                    6 1s   -0.35210     6 1s   -1.12123
   16.1     0.00000     0.72836     1 1s   -0.29641     1 2px   0.39378     1 2px  -0.54932     1 2py  -0.41930     2 1s   -0.75415
                                    2 2py  -0.53945     2 2pz   0.25630     2 2py   1.30561     2 2pz  -0.50960     3 1s   -0.28425
                                    4 1s    0.27160     5 1s   -0.38272     5 1s    0.38473     6 1s    0.33182     6 1s    0.73833
   17.1     0.00000     0.79228     1 1s   -0.40260     1 2py  -0.33601     1 2pz  -0.80677     1 2py   0.69093     1 2pz   0.93789
                                    2 1s    0.32059     2 2pz  -0.45224     2 2pz   0.42457     4 1s    0.29338
   18.1     0.00000     0.81345     1 2py   0.52352     1 2py  -0.94507     1 2pz  -0.40109     2 2py  -0.29194     2 2pz  -0.81001
                                    2 2px   0.35396     2 2py   0.41071     2 2pz   0.88190     6 1s   -0.26077
   19.1     0.00000     0.88369     1 1s    0.40042     1 1s   -0.91828     1 2px   0.37269     1 2py  -0.54892     1 2pz   0.66433
                                    1 2px  -0.84510     1 2py   1.18799     1 2pz  -0.61131     2 1s    0.32298     2 2pz  -0.40697
                                    2 2pz   0.71855     3 1s   -0.33841     4 1s    0.32131     6 1s    0.28938
   20.1     0.00000     0.96962     1 1s   -0.34309     1 1s    0.51803     1 2px  -0.66153     1 2py  -0.33160     1 2px   1.12441
                                    1 2py   0.71755     2 2px  -0.71083     2 2py  -0.41802     2 2px   1.17112     2 2py   0.81792
                                    3 1s   -0.28112     4 1s    1.00550     5 1s   -1.04820
   21.1     0.00000     1.01973     1 1s    0.71780     1 1s   -1.08776     1 2px  -0.48820     1 2py   0.31526     1 2px   0.71046
                                    1 2py  -0.33674     2 2px  -0.25446     2 2px   0.57798     2 2py  -0.38764     3 1s   -0.97111
                                    3 1s    1.54270     6 1s   -0.63305
   22.1     0.00000     1.11093     1 1s   -0.29973     1 1s    0.32645     1 2px   0.29815     1 2px  -0.44439     2 1s   -0.81421
                                    2 1s    1.74692     2 2py  -0.55101     2 2py   0.62746     2 2pz   0.33715     4 1s    0.40527
                                    4 1s   -0.68111     5 1s    0.83532     5 1s   -1.49419
   23.1     0.00000     1.17108     1 1s   -0.52127     1 1s    0.55407     1 2py   0.54826     1 2pz   0.25265     1 2px  -0.47250
                                    1 2py  -0.54134     2 1s    0.69401     2 2py   0.28286     2 2py  -0.36045     4 1s    0.96433
                                    4 1s   -1.47944     5 1s   -0.54905     5 1s    0.66938     6 1s   -0.38914
   24.1     0.00000     1.24941     1 1s   -0.30982     1 1s   -0.81010     1 2py  -0.26088     1 2px  -0.95941     1 2py   0.77458
                                    2 1s   -1.65046     2 1s    4.92182     2 2pz   1.50909     3 1s   -0.31011     3 1s   -0.32450
                                    4 1s   -0.27631     5 1s   -0.55495     5 1s   -0.49833     6 1s   -0.40324     6 1s   -1.83727
   25.1     0.00000     1.29303     1 1s   -1.91814     1 1s    5.17054     1 2px   0.98398     1 2py  -0.58806     1 2pz  -1.48554
                                    2 1s    0.57126     2 1s   -2.69534     2 2py   0.25637     2 2px   1.66957     2 2py  -1.19221
                                    2 2pz  -0.44226     3 1s   -0.44963     4 1s   -0.34729     4 1s   -0.87717     5 1s    0.25734
                                    6 1s   -0.79712
   26.1     0.00000     1.51035     1 1s    0.27017     1 1s   -0.79206     2 1s   -1.24371     2 1s    2.87166     2 2px  -0.50675
                                    2 2py   0.50484     2 2pz  -0.30396     2 2px   0.53488     2 2py  -0.66221     2 2pz   0.60784
                                    2 3d2- -0.25043     6 1s    0.87751     6 1s   -2.24369
   27.1     0.00000     1.69162     1 1s    0.60384     1 3d0   0.35167     1 3d2- -0.29884     1 3d2+ -0.30729     2 1s   -0.74219
                                    2 3d0  -0.33017     2 3d2-  0.30782     2 3d2+  0.35412
   28.1     0.00000     1.87437     1 1s    0.38066     1 1s   -1.03637     1 2pz   0.38632     1 3d0   0.32863     1 3d2+  0.25392
                                    2 2px  -0.38539     2 2py   0.33461     2 3d1+  0.44389     2 3d2+  0.37020     2 3d1-  0.48829
                                    3 1s    0.30949     6 1s    0.45633
   29.1     0.00000     1.97424     1 1s    0.53467     1 2px   0.28087     1 3d2- -0.28243     1 3d1+  0.53768     1 3d2+  0.33117
                                    1 3d1-  0.44903     2 1s    0.26153     2 1s   -1.39778     2 2pz  -0.46118     2 3d0   0.25792
                                    2 3d1- -0.26295     5 1s    0.32424     6 1s    0.49672
   30.1     0.00000     2.14763     1 1s    1.03193     1 3d0  -0.35690     1 3d2- -0.27670     1 3d2+ -0.35497     2 1s    0.36313
                                    2 1s   -1.53190     2 2px   0.35063     2 2py  -0.31334     2 2pz  -0.43564     2 3d0   0.64748
                                    2 3d1+  0.26978     2 3d2+  0.30057     3 1s   -0.28964     5 1s    0.44134     6 1s    0.33188
   31.1     0.00000     2.24399     1 1s   -0.51492     1 1s    0.52449     1 2px  -0.25973     1 2px   0.32326     1 3d2- -0.33281
                                    1 3d1+ -0.36995     1 3d2+  0.32915     2 1s   -0.48164     2 3d2- -0.35288     2 3d1+ -0.38115
                                    2 3d2+  0.43118
   32.1     0.00000     2.36332     1 1s   -0.95172     1 2px  -0.39599     1 2py   0.50704     1 3d0   0.70663     1 3d2- -0.37440
                                    1 3d1- -0.50132     2 1s    0.86626     2 2pz   0.35800     2 3d2- -0.28704     4 1s    0.62897
                                    6 1s   -0.39042
   33.1     0.00000     2.51006     1 1s    0.56864     1 2pz  -0.28564     1 3d2-  0.60702     1 3d1+ -0.45686     1 3d1-  0.31626
                                    2 1s   -0.36868     2 2px   0.29242     2 2py  -0.41836     2 3d0   0.47950     2 3d1- -0.53689
                                    3 1s    0.25916     4 1s   -0.30102     5 1s    0.34800     6 1s   -0.29530
   34.1     0.00000     2.64428     1 1s    0.37610     1 2py  -0.40394     1 3d2- -0.27391     1 3d2+ -0.55202     1 3d1-  0.62117
                                    2 3d2- -0.37549     2 3d2+ -0.52430     2 3d1-  0.44903     4 1s   -0.47574     5 1s   -0.30945
   35.1     0.00000     2.93767     1 1s    1.60823     1 2px   0.33639     1 2px   0.83255     1 2pz  -0.41043     1 3d2- -0.27804
                                    1 3d1+ -0.71930     1 3d2+  0.58194     2 1s   -1.71812     2 2pz  -0.31552     2 2px   0.69087
                                    2 2pz  -0.44265     2 3d0   0.29421     2 3d2-  0.73584     2 3d1+  0.33432     2 3d2+ -0.53821
                                    6 1s    0.68445
   36.1     0.00000     3.01074     1 1s    0.65632     1 2px   0.27515     1 2px   0.27764     1 3d0  -0.26294     1 3d2- -0.26520
                                    1 3d2+  0.31592     2 1s    0.36974     2 1s   -0.33829     2 2px   0.51696     2 2py  -0.44233
                                    2 2px   0.55057     2 2py  -0.36711     2 3d2- -0.62376     2 3d1+  0.82386     2 3d2+ -0.32110
                                    2 3d1- -0.63666     6 1s   -1.40860


 HOMO      8.1    -0.387064 =     -10.5325eV
 LUMO      9.1     0.056649 =       1.5415eV
 LUMO-HOMO         0.443713 =      12.0740eV


 **********************************************************************************************************************************
 DATASETS  * FILE   NREC   LENGTH (MB)   RECORD NAMES
              1      19       31.13       500      610      700      900      950      970     1000      129      960     1100   
                                          VAR    BASINP    GEOM    SYMINP    ZMAT    AOBASIS   BASIS     P2S    ABASIS      S 
                                         1400     1410     1200     1210     1080     1600     1650     1300     1700   
                                           T        V       H0       H01     AOSYM     SMH    MOLCAS    ERIS     OPER   

              2       4        2.86       700     1000      520     2100   
                                         GEOM     BASIS   MCVARS     RHF  

 PROGRAMS   *        TOTAL    HF-SCF       INT
 CPU TIMES  *         0.41      0.11      0.19
 REAL TIME  *         0.64 SEC
 DISK USED  *        36.24 MB
 **********************************************************************************************************************************


 PROGRAM * MULTI (Direct Multiconfiguration SCF)       Authors: P.J. Knowles, H.-J. Werner (1984)


 Number of closed-shell orbitals:   7 (   7 )
 Number of active  orbitals:        2 (   2 )
 Number of external orbitals:      27 (  27 )

 State symmetry 1

 Number of electrons:     2    Spin symmetry=Singlet   Space symmetry=1
 Number of states:        3
 Number of CSFs:          3   (4 determinants, 4 intermediate states)

 Molecular orbitals read from record     2100.2  Type=RHF/CANONICAL (state 1.1)

 Wavefunction dump at record             2140.2

 Convergence thresholds  0.10E-01 (gradient)  0.10E-05 (energy)  0.10E-02 (step length)

 Weight factors for state symmetry  1:    0.33333   0.33333   0.33333

 Number of orbital rotations:      257   (    14 Core/Active    189 Core/Virtual   0 Active/Active     54 Active/Virtual)
 Total number of variables:        269

 Micro-Iterations solved by the two-step solver

 ITER. MIC  NCI  NEG     ENERGY(VAR)     ENERGY(PROJ)   ENERGY CHANGE     GRAD(0)  GRAD(ORB)   GRAD(CI)     STEP       TIME

   1   10    6    0     -77.56871991     -77.59976215   -0.03104223    0.15393915 0.00032109 0.00000000  0.24D+00      0.16
   2    6    5    0     -77.59894664     -77.59938138   -0.00043475    0.03247635 0.00007115 0.00000000  0.18D-01      0.26
   3    7    5    0     -77.59938366     -77.59938370   -0.00000004    0.00025973 0.00000002 0.00000000  0.26D-03      0.36
   4    3    3    0     -77.59938370     -77.59938370    0.00000000    0.00000003 0.00000000 0.00000000  0.45D-07      0.42

 ** WVFN ****  CONVERGENCE REACHED, FINAL GRADIENT:  0.18D-12



 Results for state 1.1
 =====================

 !MCSCF STATE  1.1 Energy             -77.727869567787
 Nuclear energy                        32.79876268
 Kinetic energy                        78.09441592
 One electron energy                 -168.45338332
 Two electron energy                   57.92675107
 Virial ratio                           1.99530637

 !MCSCF STATE  1.1 Dipole moment       -0.01622895    -0.07552108    -0.03906597
 Dipole moment /Debye                  -0.04124717    -0.19194285    -0.09928930

 Results for state 2.1
 =====================

 !MCSCF STATE  2.1 Energy             -77.626595863926
 Nuclear energy                        32.79876268
 Kinetic energy                        78.17139352
 One electron energy                 -168.14087990
 Two electron energy                   57.71552135
 Virial ratio                           1.99303073

 !MCSCF STATE  2.1 Dipole moment        0.08609099    -0.06678492    -0.00419053
 Dipole moment /Debye                   0.21880713    -0.16973921    -0.01065056

 Results for state 3.1
 =====================

 !MCSCF STATE  3.1 Energy             -77.443685680228
 Nuclear energy                        32.79876268
 Kinetic energy                        78.23065940
 One electron energy                 -167.86768940
 Two electron energy                   57.62524103
 Virial ratio                           1.98994034

 !MCSCF STATE  3.1 Dipole moment        0.22527095    -0.07865675     0.03806293
 Dipole moment /Debye                   0.57254415    -0.19991242     0.09673998

 State-averaged charge density matrix saved on record  2140.2 (density set 1)

 !MCSCF expec         <1.1|DMX|1.1>    -0.016228948587 au =    -0.041247171150 Debye
 !MCSCF trans         <2.1|DMX|1.1>    -0.079132058606 au =    -0.201120457511 Debye
 !MCSCF expec         <2.1|DMX|2.1>     0.086090987578 au =     0.218807132208 Debye
 !MCSCF trans         <3.1|DMX|1.1>    -0.005590728240 au =    -0.014209283081 Debye
 !MCSCF trans         <3.1|DMX|2.1>    -0.077247243281 au =    -0.196330048579 Debye
 !MCSCF expec         <3.1|DMX|3.1>     0.225270954266 au =     0.572544151943 Debye

 !MCSCF expec         <1.1|DMY|1.1>    -0.075521075433 au =    -0.191942854900 Debye
 !MCSCF trans         <2.1|DMY|1.1>     0.041519302137 au =     0.105524627926 Debye
 !MCSCF expec         <2.1|DMY|2.1>    -0.066784917676 au =    -0.169739211067 Debye
 !MCSCF trans         <3.1|DMY|1.1>    -0.003298189407 au =    -0.008382612232 Debye
 !MCSCF trans         <3.1|DMY|2.1>     0.045658109360 au =     0.116043737587 Debye
 !MCSCF expec         <3.1|DMY|3.1>    -0.078656748217 au =    -0.199912418133 Debye

 !MCSCF expec         <1.1|DMZ|1.1>    -0.039065973537 au =    -0.099289297021 Debye
 !MCSCF trans         <2.1|DMZ|1.1>    -0.016433603682 au =    -0.041767318447 Debye
 !MCSCF expec         <2.1|DMZ|2.1>    -0.004190527738 au =    -0.010650561487 Debye
 !MCSCF trans         <3.1|DMZ|1.1>    -0.002521359509 au =    -0.006408236901 Debye
 !MCSCF trans         <3.1|DMZ|2.1>    -0.014922819641 au =    -0.037927539943 Debye
 !MCSCF expec         <3.1|DMZ|3.1>     0.038062930347 au =     0.096739982511 Debye


 NATURAL ORBITALS (state averaged)
 =================================

  Orbital  Occupation    Energy     Coefficients
    1.1     2.00000   -11.27763     1 1s    0.99630
    2.1     2.00000   -11.23586     2 1s    0.99608
    3.1     2.00000    -1.06747     2 1s    0.31516     2 1s    0.25239
    4.1     2.00000    -0.81994     1 1s   -0.25370     1 1s   -0.32909
    5.1     2.00000    -0.64024     2 2py   0.36933
    6.1     2.00000    -0.53195     1 2py  -0.29853     3 1s   -0.25425     3 1s   -0.26389
    7.1     2.00000    -0.42101     1 2pz   0.31582     1 2pz   0.26798     2 2pz   0.33470     2 2pz   0.28495
    8.1     1.00000    -0.23315     1 2px   0.30811     2 2px  -0.31275     4 1s   -0.28887     5 1s   -0.29710
    9.1     1.00000    -0.09202     1 1s    0.31428     1 2pz   0.39070     1 2pz   0.40344     2 2pz  -0.41527     2 2pz  -0.43890
   10.1    -0.00000     0.20746     1 1s   -1.26368     1 2px   0.45621     1 2pz   0.50150     2 1s   -0.81883     2 2px  -0.48164
                                    2 2py  -0.30756     2 2pz  -0.31960     3 1s    0.92002     4 1s    0.86885     5 1s    0.94862
                                    6 1s    0.45036
   11.1    -0.00000     0.24870     1 1s   -0.55938     1 2py  -0.28250     1 2py  -0.80024     1 2pz   0.32387     2 1s    1.23874
                                    2 2py   0.42755     3 1s    1.16762     4 1s   -0.52026     5 1s   -0.77489     6 1s   -0.57872
   12.1    -0.00000     0.31774     1 1s   -1.36405     1 2py   0.94579     1 2pz   0.39553     2 1s    1.24425     2 2py   0.62795
                                    2 2pz   0.39185     4 1s    1.92060     5 1s   -1.48249
   13.1    -0.00000     0.33732     1 1s    0.53469     1 2px   0.55784     1 2py  -0.47383     2 1s   -2.94727     2 2px  -0.28264
                                    2 2py   1.19387     2 2pz  -0.82018     3 1s    0.27619     5 1s   -0.38760     6 1s    3.27625
   14.1    -0.00000     0.43216     1 1s   -2.04229     1 2px  -1.64978     1 2py   0.28785     1 2pz   0.80184     2 1s    1.12624
                                    2 2px  -1.93814     2 2py   0.86632     2 2pz   0.54048     3 1s   -0.27921     6 1s    1.50794
   15.1    -0.00000     0.68873     1 2px   0.40112     1 2px  -0.67791     2 1s    0.85797     2 2px  -0.55951     2 2px   1.35320
                                    2 2py  -0.91922     3 1s   -0.29321     4 1s    0.35232     5 1s    0.34897     6 1s   -0.33352
                                    6 1s   -1.10005
   16.1    -0.00000     0.72276     1 1s   -0.36834     1 2px   0.35868     1 2px  -0.52364     1 2py  -0.40003     2 1s   -0.77192
                                    2 2py  -0.52618     2 2px  -0.31882     2 2py   1.34752     2 2pz  -0.50278     3 1s   -0.28644
                                    4 1s    0.29149     5 1s   -0.42033     5 1s    0.40580     6 1s    0.34967     6 1s    0.78102
   17.1    -0.00000     0.79168     1 1s   -0.65225     1 2py  -0.32211     1 2pz  -0.78893     1 2py   0.73585     1 2pz   1.01948
                                    2 1s    0.52859     2 2pz  -0.45397     2 2px  -0.27568     2 2pz   0.48010     4 1s    0.29795
   18.1    -0.00000     0.81164     1 2py   0.50110     1 2py  -0.91460     1 2pz  -0.44516     2 2py  -0.28647     2 2pz  -0.79491
                                    2 2px   0.34322     2 2py   0.41633     2 2pz   0.97374     6 1s   -0.33355
   19.1    -0.00000     0.88142     1 1s    0.36446     1 1s   -0.89316     1 2px   0.37529     1 2py  -0.54668     1 2pz   0.65726
                                    1 2px  -0.88177     1 2py   1.20015     1 2pz  -0.64268     2 1s    0.29835     2 2pz  -0.37130
                                    2 2pz   0.74578     3 1s   -0.38488     4 1s    0.28990     6 1s    0.26631
   20.1    -0.00000     0.97586     1 1s   -0.36754     1 1s    0.49551     1 2px  -0.65483     1 2py  -0.32486     1 2px   1.04826
                                    1 2py   0.71145     2 2px  -0.70595     2 2py  -0.43132     2 2px   1.10138     2 2py   0.83835
                                    3 1s    0.27793     3 1s   -0.32624     4 1s    0.94111     5 1s   -1.03507
   21.1    -0.00000     1.02759     1 1s    0.73398     1 1s   -1.11957     1 2px  -0.52029     1 2py   0.29190     1 2px   0.73690
                                    1 2py  -0.30096     2 2px  -0.27419     2 2px   0.59346     2 2py  -0.38816     3 1s   -0.94966
                                    3 1s    1.51463     4 1s    0.27456     6 1s   -0.63549
   22.1    -0.00000     1.08318     1 2px   0.29630     1 2px  -0.35470     2 1s   -0.73189     2 1s    1.46749     2 2py  -0.57821
                                    2 2py   0.66698     3 1s   -0.27770     4 1s    0.32234     4 1s   -0.52357     5 1s    0.89704
                                    5 1s   -1.50133
   23.1    -0.00000     1.13543     1 1s   -0.54943     1 1s    0.62231     1 2py   0.60022     1 2px  -0.51253     1 2py  -0.60701
                                    2 1s    0.73492     2 2py  -0.31656     4 1s    0.99635     4 1s   -1.56892     5 1s   -0.46454
                                    5 1s    0.57469     6 1s   -0.34275
   24.1    -0.00000     1.23830     1 1s   -0.27127     1 1s   -0.94604     1 2px  -1.03404     1 2py   0.78857     2 1s   -1.70532
                                    2 1s    5.09440     2 2pz   1.52166     3 1s   -0.30981     3 1s   -0.31521     5 1s   -0.51930
                                    5 1s   -0.55491     6 1s   -0.41946     6 1s   -1.80561
   25.1    -0.00000     1.28813     1 1s   -1.93116     1 1s    5.14592     1 2px   0.97156     1 2py  -0.53866     1 2pz  -1.47141
                                    2 1s    0.52915     2 1s   -2.55985     2 2px   1.67997     2 2py  -1.18267     2 2pz  -0.39742
                                    3 1s   -0.46527     4 1s   -0.34963     4 1s   -0.85701     6 1s   -0.83800
   26.1    -0.00000     1.50897     1 1s   -0.76831     2 1s   -1.25294     2 1s    2.89608     2 2px  -0.50969     2 2py   0.51257
                                    2 2pz  -0.28193     2 2px   0.54261     2 2py  -0.67805     2 2pz   0.60402     2 3d2- -0.26169
                                    6 1s    0.87037     6 1s   -2.26500
   27.1    -0.00000     1.68551     1 1s    0.61809     1 3d0   0.34655     1 3d2- -0.30092     1 3d2+ -0.31084     2 1s   -0.72723
                                    2 3d0  -0.32739     2 3d2-  0.30633     2 3d2+  0.35536
   28.1    -0.00000     1.87074     1 1s    0.37278     1 1s   -1.01537     1 2pz   0.37926     1 3d0   0.32534     1 3d2+  0.25480
                                    2 2px  -0.38400     2 2py   0.33974     2 3d1+  0.44524     2 3d2+  0.37751     2 3d1-  0.48679
                                    3 1s    0.31059     6 1s    0.46317
   29.1    -0.00000     1.97133     1 1s    0.52129     1 2px   0.27590     1 3d2- -0.28915     1 3d1+  0.53308     1 3d2+  0.33676
                                    1 3d1-  0.44946     2 1s   -1.35281     2 2pz  -0.44773     2 3d0   0.25818     2 3d1- -0.26226
                                    5 1s    0.31681     6 1s    0.49825
   30.1    -0.00000     2.14627     1 1s    1.03400     1 3d0  -0.36055     1 3d2- -0.28554     1 3d2+ -0.34605     2 1s    0.34847
                                    2 1s   -1.49247     2 2px   0.34171     2 2py  -0.31780     2 2pz  -0.41788     2 3d0   0.64987
                                    2 3d2+  0.31446     3 1s   -0.29256     5 1s    0.43960     6 1s    0.32556
   31.1    -0.00000     2.23751     1 1s   -0.50332     1 1s    0.44342     1 2px  -0.27378     1 2px   0.29769     1 3d2- -0.32891
                                    1 3d1+ -0.37360     1 3d2+  0.34141     2 1s   -0.48947     2 1s    0.25759     2 3d2- -0.35745
                                    2 3d1+ -0.39806     2 3d2+  0.42110
   32.1    -0.00000     2.35804     1 1s   -0.98804     1 2px  -0.40761     1 2py   0.52393     1 3d0   0.70968     1 3d2- -0.37784
                                    1 3d1- -0.51547     2 1s    0.87985     2 2pz   0.36177     2 3d2- -0.27690     4 1s    0.62281
                                    6 1s   -0.40150
   33.1    -0.00000     2.50828     1 1s    0.52670     1 2pz  -0.27647     1 3d2-  0.60429     1 3d1+ -0.45114     1 3d1-  0.29542
                                    2 1s   -0.33781     2 2px   0.28045     2 2py  -0.42844     2 3d0   0.47501     2 3d1- -0.55397
                                    3 1s    0.25734     4 1s   -0.27159     5 1s    0.34988     6 1s   -0.32076
   34.1    -0.00000     2.63657     1 1s    0.38302     1 2py  -0.41005     1 3d2- -0.26676     1 3d2+ -0.55104     1 3d1-  0.63000
                                    2 3d2- -0.38692     2 3d2+ -0.51716     2 3d1-  0.43719     4 1s   -0.47006     5 1s   -0.29319
   35.1    -0.00000     2.93338     1 1s    1.65328     1 2px   0.33642     1 2px   0.85052     1 2pz  -0.42380     1 3d2- -0.28199
                                    1 3d1+ -0.72915     1 3d2+  0.58547     2 1s   -1.75206     2 2pz  -0.31508     2 2px   0.71605
                                    2 2pz  -0.44956     2 3d0   0.29999     2 3d2-  0.71761     2 3d1+  0.35366     2 3d2+ -0.54412
                                    6 1s    0.65257
   36.1    -0.00000     3.00974     1 1s    0.62939     1 2px   0.26412     1 2px   0.26282     1 3d0  -0.26819     1 3d2- -0.25893
                                    1 3d2+  0.30371     2 1s    0.37905     2 1s   -0.31216     2 2px   0.50752     2 2py  -0.44146
                                    2 2px   0.53622     2 2py  -0.36587     2 3d2- -0.63593     2 3d1+  0.81846     2 3d2+ -0.30566
                                    2 3d1- -0.63997     6 1s   -1.42235


 Natural orbital dump (state averaged) at molpro section  2140.2    (Orbital set 2)



 **********************************************************************************************************************************
 DATASETS  * FILE   NREC   LENGTH (MB)   RECORD NAMES
              1      20       31.86       500      610      700      900      950      970     1000      129      960     1100   
                                          VAR    BASINP    GEOM    SYMINP    ZMAT    AOBASIS   BASIS     P2S    ABASIS      S 
                                         1400     1410     1200     1210     1080     1600     1650     1300     1700     1380   
                                           T        V       H0       H01     AOSYM     SMH    MOLCAS    ERIS     OPER     JKOP   

              2       5        5.42       700     1000      520     2100     2140   
                                         GEOM     BASIS   MCVARS     RHF     MCSCF   

 PROGRAMS   *        TOTAL     MULTI    HF-SCF       INT
 CPU TIMES  *         0.88      0.48      0.11      0.19
 REAL TIME  *         1.20 SEC
 DISK USED  *        39.04 MB
 **********************************************************************************************************************************
 Molecular orbitals read from record     2140.2  Type=MCSCF/NATURAL (state averaged)
 Occupation numbers read from record     2140.2  Type=MCSCF/NATURAL (state averaged)
 Orbital energies read from record       2140.2  Type=MCSCF/NATURAL (state averaged)
 Redundancy group numbers read from rec  2140.2  Type=MCSCF/NATURAL (state averaged)

 MULTI/6-31G* energy=    -77.443685680228

           MULTI          HF-SCF
    -77.44368568    -77.73421432
 **********************************************************************************************************************************
 Molpro calculation terminated
