
 Primary working directories    : /scratch.local/johan406.molpro_temp/molpro.iWYLLEkjEI
 Secondary working directories  : /scratch.local/johan406.molpro_temp/molpro.iWYLLEkjEI
 Wavefunction directory         : /home/goodpast/johan406/wfu/
 Main file repository           : /scratch.local/johan406.molpro_temp/molpro.iWYLLEkjEI/

 id        : roweumn

 Nodes     nprocs
 acn09        1

 Using customized tuning parameters: mindgm=1; mindgv=20; mindgc=4; mindgr=1; noblas=0; minvec=7
 default implementation of scratch files=df  


 Variables initialized (934), CPU time= 0.00 sec
                                                                                 !leave this line blank
 
 gprint, orbitals=30
 memory, 125., m
 symmetry, nosym
 nelect=16
 basis=6-31g*
 
 geometry={
 C -0.6277 0.1393 0.2995
 C 0.6342 -0.186 -0.3582
 H -1.2751 0.8864 -0.1638
 H -0.9398 -0.873 -0.139
 H 0.9935 0.8095 0.0754
 H 1.268 -0.9563 0.0857
 }
 
 hf
 {multi,
 closed 7
 occ 9
 wf,spin=0;STATE,3
 }
 
 Commands  initialized (763), CPU time= 0.01 sec, 617 directives.
 Default parameters read. Elapsed time= 0.08 sec

 Checking input...
 Passed
1


                                         ***  PROGRAM SYSTEM MOLPRO  ***
                                       Copyright, TTI GmbH Stuttgart, 2015
                                    Version 2019.2 linked Oct 25 2019 22:50:27


 **********************************************************************************************************************************
 LABEL *                                                                                 
  64 bit serial version                                                                  DATE: 07-Feb-23          TIME: 14:48:15  
 **********************************************************************************************************************************

 SHA1:             8dbd9ae1082e4ce945b0f27595c9eb2d4aa09004
 **********************************************************************************************************************************


 Variable memory set to  125000000 words,  buffer space 

 SETTING NELECT         =        16.00000000                                  
 SETTING BASIS          =    6-31G*
 ZSYMEL=NOSYM


Geometry recognized as XYZ



 Recomputing integrals since basis changed


 Using spherical harmonics

 Library entry C      S 6-31G                selected for orbital group  1
 Library entry C      P 6-31G                selected for orbital group  1
 Library entry C      D 6-31G*               selected for orbital group  1
 Library entry H      S 6-31G                selected for orbital group  2


 PROGRAM * SEWARD (Integral evaluation for generally contracted gaussian basis sets)     Author: Roland Lindh, 1990

 Geometry written to block  1 of record 700


 Point group  C1  



 ATOMIC COORDINATES

 NR  ATOM    CHARGE       X              Y              Z

   1  C       6.00   -1.186181088    0.263238849    0.565972974
   2  C       6.00    1.198464308   -0.351489059   -0.676899898
   3  H       1.00   -2.409589781    1.675053237   -0.309537139
   4  H       1.00   -1.775964612   -1.649730907   -0.262671931
   5  H       1.00    1.877442905    1.529733298    0.142485350
   6  H       1.00    2.396172726   -1.807145093    0.161949529

 Bond lengths in Bohr (Angstrom)

 1-2  2.758470055  1-3  2.063120611  1-4  2.166552624  2-5  2.161342563  2-6  2.063276109
     ( 1.459719490)     ( 1.091756411)     ( 1.146490275)     ( 1.143733229)     ( 1.091838697)

 Bond angles

  1-2-5   84.65178856   1-2-6  118.41546042   2-1-3  118.28933338   2-1-4   82.31276487

  3-1-4  106.28910552   5-2-6  106.11582847

 NUCLEAR CHARGE:                   16
 NUMBER OF PRIMITIVE AOS:          72
 NUMBER OF SYMMETRY AOS:           70
 NUMBER OF CONTRACTIONS:           36   (   36A   )
 NUMBER OF CORE ORBITALS:           2   (    2A   )
 NUMBER OF VALENCE ORBITALS:       12   (   12A   )


 NUCLEAR REPULSION ENERGY   32.36443178

 Eigenvalues of metric

         1 0.926E-02 0.274E-01 0.596E-01 0.644E-01 0.801E-01 0.218E+00 0.237E+00 0.272E+00


 Contracted 2-electron integrals neglected if value below      1.0D-11
 AO integral compression algorithm  1   Integral accuracy      1.0D-11

     1.573 MB (compressed) written to integral file ( 59.2%)


 NUMBER OF SORTED TWO-ELECTRON INTEGRALS:     222111.     BUFFER LENGTH:  32768
 NUMBER OF SEGMENTS:   1  SEGMENT LENGTH:     222111      RECORD LENGTH: 524288

 Memory used in sort:       0.78 MW

 SORT1 READ      284735. AND WROTE      212531. INTEGRALS IN      1 RECORDS. CPU TIME:     0.00 SEC, REAL TIME:     0.01 SEC
 SORT2 READ      212531. AND WROTE      222111. INTEGRALS IN      6 RECORDS. CPU TIME:     0.02 SEC, REAL TIME:     0.02 SEC

 FILE SIZES:   FILE 1:    31.7 MBYTE,  FILE 4:     4.2 MBYTE,   TOTAL:     35.9 MBYTE

 OPERATOR DM      FOR CENTER  0  COORDINATES:    0.000000    0.000000    0.000000


 **********************************************************************************************************************************
 DATASETS  * FILE   NREC   LENGTH (MB)   RECORD NAMES
              1      19       31.13       500      610      700      900      950      970     1000      129      960     1100   
                                          VAR    BASINP    GEOM    SYMINP    ZMAT    AOBASIS   BASIS     P2S    ABASIS      S 
                                         1400     1410     1200     1210     1080     1600     1650     1300     1700   
                                           T        V       H0       H01     AOSYM     SMH    MOLCAS    ERIS     OPER   

 PROGRAMS   *        TOTAL       INT
 CPU TIMES  *         0.29      0.19
 REAL TIME  *         0.57 SEC
 DISK USED  *        36.24 MB
 **********************************************************************************************************************************


 PROGRAM * RHF-SCF (CLOSED SHELL)       Authors: W. Meyer, H.-J. Werner


 NUMBER OF ELECTRONS:       8+    8-    SPACE SYMMETRY=1    SPIN SYMMETRY: Singlet 
 CONVERGENCE THRESHOLDS:    1.00E-05 (Density)    1.00E-07 (Energy)
 MAX. NUMBER OF ITERATIONS:       60
 INTERPOLATION TYPE:            DIIS
 INTERPOLATION STEPS:              2 (START)      1 (STEP)
 LEVEL SHIFTS:                  0.00 (CLOSED)  0.00 (OPEN) 



 Orbital guess generated from atomic densities. Full valence occupancy:    8

 Molecular orbital dump at record        2100.2

 Initial occupancy:   8

 ITERATION    DDIFF          GRAD             ENERGY        2-EL.EN.            DIPOLE MOMENTS         DIIS   ORB.
    1      0.000D+00      0.000D+00       -77.82769584    115.935718    0.01183   -0.01472   -0.01991    0    start
    2      0.000D+00      0.704D-02       -77.84569339    114.914320    0.00344    0.00130   -0.00370    1    diag
    3      0.754D-02      0.228D-02       -77.84777352    115.331324    0.01331   -0.00515   -0.01788    2    diag
    4      0.295D-02      0.836D-03       -77.84821965    115.203853    0.00628    0.00025   -0.00684    3    diag
    5      0.160D-02      0.306D-03       -77.84834149    115.207953    0.01431   -0.00484   -0.01856    4    diag
    6      0.838D-03      0.198D-03       -77.84838285    115.211552    0.00899   -0.00140   -0.01049    5    diag
    7      0.391D-03      0.101D-03       -77.84841069    115.212763    0.01003   -0.00231   -0.01202    6    diag
    8      0.505D-03      0.290D-04       -77.84841277    115.213776    0.00991   -0.00229   -0.01189    7    diag
    9      0.143D-03      0.833D-05       -77.84841291    115.213972    0.00987   -0.00235   -0.01189    8    diag
   10      0.361D-04      0.238D-05       -77.84841292    115.213943    0.00986   -0.00234   -0.01189    9    orth
   11      0.675D-05      0.529D-06       -77.84841292    115.213948    0.00986   -0.00235   -0.01189    0    orth

 Final occupancy:   8

 !RHF STATE  1.1 Energy               -77.848412917682
 Nuclear energy                        32.36443178
 One-electron energy                 -167.81981852
 Two-electron energy                   57.60697382
 Virial quotient                       -1.00123296
 !RHF STATE  1.1 Dipole moment          0.00985637    -0.00234584    -0.01188758
 Dipole moment /Debye                   0.02505075    -0.00596214    -0.03021324

 ELECTRON ORBITALS
 =================

  Orbital  Occupation    Energy     Coefficients
    1.1     2.00000   -11.26051     2 1s    0.97183
    2.1     2.00000   -11.25853     1 1s    0.97187
    3.1     2.00000    -1.03716     1 1s    0.28234     2 1s    0.28365
    4.1     2.00000    -0.78426     1 1s   -0.29290     2 1s    0.29270
    5.1     2.00000    -0.62187     1 2py   0.30663     2 2py   0.30971
    6.1     2.00000    -0.56160     1 2px   0.30166     2 2px  -0.29643
    7.1     2.00000    -0.39189     1 2pz   0.31165     1 2pz   0.28687     2 2pz   0.30595     2 2pz   0.28464
    8.1     2.00000    -0.38711     1 2px   0.27790     2 2px  -0.26899     4 1s   -0.28963     5 1s   -0.28223
    9.1     0.00000     0.06328     1 1s   -0.39925     1 2pz  -0.32953     1 2pz  -0.46685     2 1s   -0.39701     2 2pz   0.33163
                                    2 2pz   0.47044
   10.1     0.00000     0.23147     1 1s   -1.07139     1 2px   0.47945     1 2py   0.38905     1 2pz   0.43126     2 1s   -1.12242
                                    2 2px  -0.48588     2 2py  -0.34378     2 2pz  -0.43413     3 1s    0.55100     4 1s    1.09678
                                    5 1s    1.07698     6 1s    0.59606
   11.1     0.00000     0.28221     1 1s   -1.58542     1 2py  -0.34033     1 2pz   0.47926     2 1s    1.55018     2 2py  -0.37640
                                    2 2pz   0.44365     3 1s    1.45583     6 1s   -1.43678
   12.1     0.00000     0.31312     1 1s   -0.79410     1 2px   0.41000     1 2py  -0.98485     1 2pz   0.47026     2 1s   -0.70800
                                    2 2px  -0.38408     2 2py   1.04498     2 2pz  -0.43586     3 1s    1.55929     4 1s   -0.36902
                                    5 1s   -0.48404     6 1s    1.55998
   13.1     0.00000     0.33530     1 1s   -1.02061     1 2py   0.77988     1 2pz   0.29330     2 1s    1.08506     2 2px   0.32223
                                    2 2py   0.73785     2 2pz   0.34412     4 1s    1.70000     5 1s   -1.69231
   14.1     0.00000     0.42355     1 1s    2.03291     1 2px   1.78516     1 2py  -0.62701     1 2pz  -0.78461     2 1s   -2.02869
                                    2 2px   1.77782     2 2py  -0.63881     2 2pz  -0.79433     3 1s    0.62848     6 1s   -0.62555
   15.1     0.00000     0.70272     1 2px  -0.55087     1 2px   0.92676     2 2px   0.54922     2 2px  -0.93314     4 1s   -0.44543
                                    5 1s   -0.40888
   16.1     0.00000     0.75851     1 1s   -0.30054     1 2py  -0.38904     1 2px  -0.63581     1 2py   0.80718     2 1s    0.32209
                                    2 2py  -0.36388     2 2px  -0.60197     2 2py   0.77405     3 1s   -0.49019     6 1s    0.48126
   17.1     0.00000     0.78918     1 2py   0.58634     1 2pz   0.30839     1 2py  -1.23064     1 2pz  -0.29193     2 1s   -0.26463
                                    2 2py  -0.58542     2 2py   1.23538     4 1s   -0.29580     5 1s   -0.27057
   18.1     0.00000     0.79990     1 2pz  -0.70439     1 2pz   0.67786     2 2pz  -0.75999     2 2pz   0.73687
   19.1     0.00000     0.86468     1 1s   -0.35986     1 2pz  -0.69738     1 2px   0.46485     1 2py  -0.53431     1 2pz   0.96934
                                    2 1s   -0.34964     2 2pz   0.67746     2 2px  -0.44496     2 2py   0.53979     2 2pz  -0.95200
   20.1     0.00000     0.97394     1 2px   0.71478     1 2py   0.36810     1 2px  -1.12925     1 2py  -0.75605     2 2px   0.71856
                                    2 2py   0.37367     2 2px  -1.17544     2 2py  -0.78944     4 1s   -1.05154     5 1s    1.04332
   21.1     0.00000     1.11886     1 1s   -0.64036     1 1s    1.10837     1 2py   0.42319     1 2px  -0.39193     1 2py  -0.39596
                                    2 1s   -0.69793     2 1s    1.34237     2 2px  -0.25879     2 2py  -0.38350     2 2px   0.31751
                                    2 2py   0.38975     4 1s    0.69136     4 1s   -1.22158     5 1s    0.61016     5 1s   -1.15491
   22.1     0.00000     1.13678     1 2px   0.40522     1 2py  -0.58195     1 2px  -0.73321     1 2py   0.92998     2 2px   0.38322
                                    2 2py  -0.62368     2 2px  -0.71609     2 2py   0.99950     3 1s    0.50636     3 1s   -1.19774
                                    4 1s   -0.29066     4 1s    0.65783     5 1s    0.33107     5 1s   -0.69001     6 1s   -0.51387
                                    6 1s    1.25356
   23.1     0.00000     1.18199     1 1s    0.33880     1 2pz  -0.26163     1 2px   0.74290     2 1s   -0.36405     2 2pz  -0.26297
                                    2 2px   0.76734     3 1s   -0.37636     3 1s    0.62659     4 1s   -0.70347     4 1s    0.87158
                                    5 1s    0.77367     5 1s   -0.94467     6 1s    0.38761     6 1s   -0.63147
   24.1     0.00000     1.19030     1 1s   -0.62849     1 1s    1.00222     1 2px   0.29790     1 2py  -0.31712     1 2px  -0.29566
                                    1 2py   0.31442     2 1s   -0.59441     2 1s    0.93137     2 2px  -0.28775     2 2py   0.31065
                                    2 2px   0.29267     2 2py  -0.29992     3 1s    0.77622     3 1s   -1.10383     6 1s    0.75900
                                    6 1s   -1.05766
   25.1     0.00000     1.25860     1 1s   -1.30025     1 1s    2.51488     1 2px  -0.44662     1 2py   0.48227     1 2pz  -1.08642
                                    2 1s   -1.06921     2 1s    1.74913     2 2px   0.61108     2 2py  -0.61078     2 2pz   0.88524
                                    3 1s   -0.40451     3 1s   -0.97345     4 1s   -0.46380     4 1s   -0.39045     5 1s   -0.38578
                                    5 1s   -0.31101     6 1s   -0.40768     6 1s   -0.87124
   26.1     0.00000     1.28650     1 1s    1.51524     1 1s   -4.94983     1 2px  -1.29405     1 2py   0.79769     1 2pz   1.14572
                                    2 1s   -1.67934     2 1s    5.24576     2 2px  -1.19441     2 2py   0.72290     2 2pz   1.29484
                                    3 1s    0.38135     4 1s    0.66363     5 1s   -0.29726     5 1s   -0.66828     6 1s   -0.53828
   27.1     0.00000     1.69585     1 1s    0.59128     1 3d0   0.36281     1 3d2- -0.30365     1 3d2+ -0.31364     2 1s   -0.57624
                                    2 3d0  -0.33549     2 3d2-  0.28961     2 3d2+  0.33915
   28.1     0.00000     1.91962     1 1s    0.33096     1 1s   -0.73599     1 2pz   0.37260     1 3d0   0.35406     1 3d1+  0.33521
                                    1 3d2+  0.34722     1 3d1-  0.31461     2 1s    0.30422     2 1s   -0.59689     2 2pz  -0.32847
                                    2 3d0   0.35538     2 3d1+  0.34824     2 3d2+  0.34182     2 3d1-  0.32129     3 1s    0.27568
                                    6 1s    0.28432
   29.1     0.00000     1.94041     1 1s   -0.31151     1 1s    1.38242     1 2px   0.32505     1 2pz  -0.36078     1 3d2- -0.30000
                                    1 3d1+  0.40357     1 3d1-  0.39593     2 1s    0.30905     2 1s   -1.38113     2 2px   0.31738
                                    2 2pz  -0.35744     2 3d2-  0.31223     2 3d1+ -0.38537     2 3d1- -0.37368     3 1s   -0.32771
                                    6 1s    0.33017
   30.1     0.00000     2.18139     1 1s   -0.31087     1 1s    1.61052     1 2px   0.37389     1 2py  -0.25831     1 2pz  -0.42850
                                    1 3d0  -0.54542     1 3d2+ -0.37292     2 1s    0.38066     2 1s   -1.68202     2 2px   0.38767
                                    2 2py  -0.29410     2 2pz  -0.45514     2 3d0   0.58711     2 3d2+  0.33671     3 1s   -0.35320
                                    4 1s   -0.32804     5 1s    0.33484     6 1s    0.35079
   31.1     0.00000     2.25077     1 1s   -0.52009     1 1s    0.44311     1 2px  -0.26105     1 2px   0.32475     1 3d2- -0.31926
                                    1 3d1+ -0.38981     1 3d2+  0.37259     2 1s   -0.46749     2 2px   0.26052     2 2px  -0.26833
                                    2 3d2- -0.28362     2 3d1+ -0.38037     2 3d2+  0.40613
   32.1     0.00000     2.34954     1 2py   0.36684     1 3d0   0.52163     1 3d2- -0.36246     1 3d1- -0.36795     2 2py  -0.35922
                                    2 3d0   0.50599     2 3d2- -0.37268     2 3d1- -0.35882     3 1s   -0.27898     4 1s    0.40315
                                    5 1s    0.39563     6 1s   -0.27291
   33.1     0.00000     2.58253     1 1s   -0.28478     1 2py   0.27137     1 3d2- -0.49038     1 3d1- -0.57183     2 1s    0.28428
                                    2 2py   0.32009     2 3d2-  0.47305     2 3d1-  0.62189     3 1s   -0.49138     4 1s    0.38263
                                    5 1s   -0.43811     6 1s    0.48628
   34.1     0.00000     2.64400     1 2py  -0.33089     1 3d2- -0.43152     1 3d2+ -0.52621     1 3d1-  0.53129     2 2py   0.30765
                                    2 3d2- -0.45921     2 3d2+ -0.50927     2 3d1-  0.47577     4 1s   -0.38238     5 1s   -0.33483
   35.1     0.00000     2.72131     1 3d0  -0.40323     1 3d2- -0.48169     1 3d1+  0.50222     1 3d1- -0.27346     2 3d0  -0.41046
                                    2 3d2- -0.48710     2 3d1+  0.49159     2 3d1- -0.27576     3 1s   -0.47640     6 1s   -0.47336
   36.1     0.00000     2.95989     1 1s   -1.71876     1 2px  -0.43566     1 2px  -0.87400     1 2pz   0.43965     1 3d2-  0.34400
                                    1 3d1+  0.69695     1 3d2+ -0.64398     2 1s    1.72074     2 2px  -0.43614     2 2px  -0.87444
                                    2 2pz   0.44010     2 3d2- -0.34992     2 3d1+ -0.69604     2 3d2+  0.64505


 HOMO      8.1    -0.387113 =     -10.5339eV
 LUMO      9.1     0.063281 =       1.7220eV
 LUMO-HOMO         0.450394 =      12.2558eV


 **********************************************************************************************************************************
 DATASETS  * FILE   NREC   LENGTH (MB)   RECORD NAMES
              1      19       31.13       500      610      700      900      950      970     1000      129      960     1100   
                                          VAR    BASINP    GEOM    SYMINP    ZMAT    AOBASIS   BASIS     P2S    ABASIS      S 
                                         1400     1410     1200     1210     1080     1600     1650     1300     1700   
                                           T        V       H0       H01     AOSYM     SMH    MOLCAS    ERIS     OPER   

              2       4        2.86       700     1000      520     2100   
                                         GEOM     BASIS   MCVARS     RHF  

 PROGRAMS   *        TOTAL    HF-SCF       INT
 CPU TIMES  *         0.39      0.10      0.19
 REAL TIME  *         0.74 SEC
 DISK USED  *        36.24 MB
 **********************************************************************************************************************************


 PROGRAM * MULTI (Direct Multiconfiguration SCF)       Authors: P.J. Knowles, H.-J. Werner (1984)


 Number of closed-shell orbitals:   7 (   7 )
 Number of active  orbitals:        2 (   2 )
 Number of external orbitals:      27 (  27 )

 State symmetry 1

 Number of electrons:     2    Spin symmetry=Singlet   Space symmetry=1
 Number of states:        3
 Number of CSFs:          3   (4 determinants, 4 intermediate states)

 Molecular orbitals read from record     2100.2  Type=RHF/CANONICAL (state 1.1)

 Wavefunction dump at record             2140.2

 Convergence thresholds  0.10E-01 (gradient)  0.10E-05 (energy)  0.10E-02 (step length)

 Weight factors for state symmetry  1:    0.33333   0.33333   0.33333

 Number of orbital rotations:      257   (    14 Core/Active    189 Core/Virtual   0 Active/Active     54 Active/Virtual)
 Total number of variables:        269

 Micro-Iterations solved by the two-step solver

 ITER. MIC  NCI  NEG     ENERGY(VAR)     ENERGY(PROJ)   ENERGY CHANGE     GRAD(0)  GRAD(ORB)   GRAD(CI)     STEP       TIME

   1    8    5    0     -77.69181043     -77.71140986   -0.01959943    0.16717112 0.00180926 0.00000000  0.14D+00      0.13
   2    6    5    0     -77.71110857     -77.71112817   -0.00001961    0.00653490 0.00000421 0.00000000  0.46D-02      0.24
   3    5    4    0     -77.71112820     -77.71112820   -0.00000000    0.00001285 0.00000000 0.00000000  0.18D-04      0.34

 ** WVFN ****  CONVERGENCE REACHED, FINAL GRADIENT:  0.16D-09



 Results for state 1.1
 =====================

 !MCSCF STATE  1.1 Energy             -77.842028796292
 Nuclear energy                        32.36443178
 Kinetic energy                        77.80811696
 One electron energy                 -167.89593260
 Two electron energy                   57.68947202
 Virial ratio                           2.00043584

 !MCSCF STATE  1.1 Dipole moment        0.01098192     0.00266936    -0.01492377
 Dipole moment /Debye                   0.02791142     0.00678440    -0.03792996

 Results for state 2.1
 =====================

 !MCSCF STATE  2.1 Energy             -77.738833477817
 Nuclear energy                        32.36443178
 Kinetic energy                        77.88405606
 One electron energy                 -167.59185751
 Two electron energy                   57.48859225
 Virial ratio                           1.99813540

 !MCSCF STATE  2.1 Dipole moment        0.00141635    -0.01408420    -0.00561390
 Dipole moment /Debye                   0.00359977    -0.03579611    -0.01426818

 Results for state 3.1
 =====================

 !MCSCF STATE  3.1 Energy             -77.552522336603
 Nuclear energy                        32.36443178
 Kinetic energy                        77.94583463
 One electron energy                 -167.33461990
 Two electron energy                   57.41766578
 Virial ratio                           1.99495403

 !MCSCF STATE  3.1 Dipole moment       -0.00568457    -0.02606272     0.00363882
 Dipole moment /Debye                  -0.01444778    -0.06624049     0.00924836

 State-averaged charge density matrix saved on record  2140.2 (density set 1)

 !MCSCF expec         <1.1|DMX|1.1>     0.010981915779 au =     0.027911417505 Debye
 !MCSCF trans         <2.1|DMX|1.1>     0.005015905825 au =     0.012748325926 Debye
 !MCSCF expec         <2.1|DMX|2.1>     0.001416351085 au =     0.003599769591 Debye
 !MCSCF trans         <3.1|DMX|1.1>     0.001201674282 au =     0.003054151321 Debye
 !MCSCF trans         <3.1|DMX|2.1>     0.006158787119 au =     0.015653050166 Debye
 !MCSCF expec         <3.1|DMX|3.1>    -0.005684565468 au =    -0.014447777903 Debye

 !MCSCF expec         <1.1|DMY|1.1>     0.002669364857 au =     0.006784404334 Debye
 !MCSCF trans         <2.1|DMY|1.1>     0.009786144614 au =     0.024872269428 Debye
 !MCSCF expec         <2.1|DMY|2.1>    -0.014084196741 au =    -0.035796112754 Debye
 !MCSCF trans         <3.1|DMY|1.1>     0.002159698617 au =     0.005489046810 Debye
 !MCSCF trans         <3.1|DMY|2.1>     0.011869990810 au =     0.030168531244 Debye
 !MCSCF expec         <3.1|DMY|3.1>    -0.026062721219 au =    -0.066240490995 Debye

 !MCSCF expec         <1.1|DMZ|1.1>    -0.014923770754 au =    -0.037929957274 Debye
 !MCSCF trans         <2.1|DMZ|1.1>     0.000232490187 au =     0.000590892411 Debye
 !MCSCF expec         <2.1|DMZ|2.1>    -0.005613900483 au =    -0.014268177190 Debye
 !MCSCF trans         <3.1|DMZ|1.1>    -0.000888399504 au =    -0.002257938410 Debye
 !MCSCF trans         <3.1|DMZ|2.1>    -0.000460133223 au =    -0.001169465396 Debye
 !MCSCF expec         <3.1|DMZ|3.1>     0.003638821514 au =     0.009248355983 Debye


 NATURAL ORBITALS (state averaged)
 =================================

  Orbital  Occupation    Energy     Coefficients
    1.1     2.00000   -11.25488     1 1s    0.94622     2 1s    0.31170
    2.1     2.00000   -11.25363     1 1s   -0.31179     2 1s    0.94624
    3.1     2.00000    -1.04989     1 1s    0.27825     2 1s    0.27761
    4.1     2.00000    -0.78511     1 1s   -0.31764     2 1s    0.31839
    5.1     2.00000    -0.62483     1 2py   0.30212     2 2py   0.30126
    6.1     2.00000    -0.55995     1 2px   0.26181     2 2px  -0.25658
    7.1     2.00000    -0.41936     1 2pz   0.32550     1 2pz   0.28011     2 2pz   0.32452     2 2pz   0.28126
    8.1     1.00000    -0.08685     1 1s   -0.26748     1 2pz  -0.40431     1 2pz  -0.42802     2 1s   -0.26751     2 2pz   0.40457
                                    2 2pz   0.43130
    9.1     1.00000    -0.23068     1 2px   0.31111     2 2px  -0.30882     4 1s   -0.29760     5 1s   -0.29120
   10.1    -0.00000     0.21946     1 1s   -1.09187     1 2px   0.47468     1 2py   0.40573     1 2pz   0.37694     2 1s   -1.11795
                                    2 2px  -0.48235     2 2py  -0.35758     2 2pz  -0.37201     3 1s    0.52551     4 1s    1.11207
                                    5 1s    1.08130     6 1s    0.55725
   11.1    -0.00000     0.28122     1 1s   -1.67651     1 2py  -0.28490     1 2pz   0.49554     2 1s    1.64116     2 2py  -0.29857
                                    2 2pz   0.46240     3 1s    1.45433     6 1s   -1.41708
   12.1    -0.00000     0.31550     1 1s   -0.96029     1 2px   0.42033     1 2py  -0.84710     1 2pz   0.47847     2 1s   -0.62436
                                    2 2px  -0.35672     2 2py   1.14554     2 2pz  -0.36417     3 1s    1.51561     5 1s   -0.67020
                                    6 1s    1.59457
   13.1    -0.00000     0.31974     1 1s   -0.88752     1 2py   0.26107     1 2py   0.98332     2 1s    1.18475     2 2py   0.67560
                                    2 2pz   0.40860     3 1s   -0.42764     4 1s    1.73426     5 1s   -1.63371
   14.1    -0.00000     0.42975     1 1s    1.89530     1 2px   1.79400     1 2py  -0.51996     1 2pz  -0.72833     2 1s   -1.89008
                                    2 2px   1.79243     2 2py  -0.53352     2 2pz  -0.73532     3 1s    0.62697     6 1s   -0.62814
   15.1    -0.00000     0.69933     1 2px  -0.53715     1 2px   0.90148     2 2px   0.53298     2 2px  -0.91148     4 1s    0.25205
                                    4 1s   -0.50114     5 1s   -0.46782
   16.1    -0.00000     0.75556     1 1s   -0.40747     1 2py  -0.38365     1 2px  -0.68906     1 2py   0.83619     2 1s    0.43346
                                    2 2py  -0.34871     2 2px  -0.64720     2 2py   0.77901     3 1s   -0.48872     4 1s    0.26737
                                    5 1s   -0.25148     6 1s    0.47595
   17.1    -0.00000     0.78828     1 2py   0.55579     1 2pz   0.31639     1 2py  -1.20773     1 2pz  -0.36987     2 2py  -0.56395
                                    2 2py   1.21675     4 1s   -0.29848     5 1s   -0.27341
   18.1    -0.00000     0.80001     1 1s   -0.37280     1 2pz  -0.70289     1 2pz   0.74333     2 1s    0.35489     2 2pz  -0.75248
                                    2 2pz   0.79987
   19.1    -0.00000     0.86278     1 1s   -0.31526     1 2px  -0.25488     1 2pz  -0.66571     1 2px   0.50085     1 2py  -0.54010
                                    1 2pz   1.01733     2 1s   -0.30843     2 2px   0.25103     2 2pz   0.65943     2 2px  -0.48207
                                    2 2py   0.54643     2 2pz  -1.01416     3 1s    0.27796     6 1s    0.27615
   20.1    -0.00000     0.98064     1 2px   0.71208     1 2py   0.37553     1 2px  -1.04890     1 2py  -0.77462     2 2px   0.71553
                                    2 2py   0.37993     2 2px  -1.09615     2 2py  -0.80887     4 1s   -1.01770     5 1s    1.00570
   21.1    -0.00000     1.09294     1 1s   -0.62876     1 1s    1.07701     1 2px   0.26413     1 2py   0.45617     1 2px  -0.39209
                                    1 2py  -0.45650     2 1s   -0.65323     2 1s    1.24683     2 2px  -0.28949     2 2py  -0.38407
                                    2 2px   0.32141     2 2py   0.40991     4 1s    0.72187     4 1s   -1.22773     5 1s    0.59557
                                    5 1s   -1.08665
   22.1    -0.00000     1.12366     1 2px   0.28308     1 2py  -0.57402     1 2px  -0.28571     1 2py   0.79949     2 1s    0.30069
                                    2 2py  -0.64077     2 2py   0.88369     3 1s   -0.70393     4 1s   -0.58774     4 1s    1.00063
                                    5 1s    0.69074     5 1s   -1.12758     6 1s    0.73557
   23.1    -0.00000     1.15944     1 1s    0.29202     1 2px  -0.36171     1 2px   1.05617     1 2py  -0.48391     2 1s   -0.33980
                                    2 2px  -0.38277     2 2px   1.07632     2 2py  -0.49847     3 1s   -0.59485     3 1s    1.15648
                                    4 1s   -0.44833     4 1s    0.42922     5 1s    0.50189     5 1s   -0.50615     6 1s    0.58353
                                    6 1s   -1.16889
   24.1    -0.00000     1.19483     1 1s   -0.56645     1 1s    0.89638     1 2px   0.28011     1 2py  -0.32288     1 2py   0.29004
                                    2 1s   -0.52488     2 1s    0.77492     2 2px  -0.28094     2 2py   0.32355     2 2px   0.26814
                                    2 2py  -0.29755     3 1s    0.78884     3 1s   -1.04051     6 1s    0.78930     6 1s   -1.02486
   25.1    -0.00000     1.24963     1 1s   -1.35826     1 1s    2.61269     1 2px  -0.47188     1 2py   0.50204     1 2pz  -1.08769
                                    2 1s   -1.12320     2 1s    1.84523     2 2px   0.63111     2 2py  -0.62771     2 2pz   0.88773
                                    3 1s   -0.37638     3 1s   -1.02637     4 1s   -0.42533     4 1s   -0.44699     5 1s   -0.35553
                                    5 1s   -0.36091     6 1s   -0.38384     6 1s   -0.91610
   26.1    -0.00000     1.28045     1 1s    1.51189     1 1s   -4.93734     1 2px  -1.30669     1 2py   0.76166     1 2pz   1.12799
                                    2 1s   -1.69579     2 1s    5.26651     2 2px  -1.20031     2 2py   0.68513     2 2pz   1.28028
                                    3 1s    0.39270     4 1s    0.61919     5 1s   -0.29804     5 1s   -0.64133     6 1s   -0.56624
   27.1    -0.00000     1.69057     1 1s    0.61970     1 3d0   0.35665     1 3d2- -0.30826     1 3d2+ -0.31624     2 1s   -0.60320
                                    2 3d0  -0.32904     2 3d2-  0.29320     2 3d2+  0.34050
   28.1    -0.00000     1.91687     1 1s    0.31540     1 1s   -0.70085     1 2pz   0.36051     1 3d0   0.35219     1 3d1+  0.33898
                                    1 3d2+  0.35909     1 3d1-  0.32159     2 1s    0.29935     2 1s   -0.60831     2 2pz  -0.32839
                                    2 3d0   0.35293     2 3d1+  0.33595     2 3d2+  0.34443     2 3d1-  0.31299     3 1s    0.27157
                                    6 1s    0.28157
   29.1    -0.00000     1.93726     1 1s   -0.31026     1 1s    1.36265     1 2px   0.31123     1 2pz  -0.35827     1 3d2- -0.29718
                                    1 3d1+  0.40023     1 3d1-  0.38928     2 1s    0.29585     2 1s   -1.33664     2 2px   0.31005
                                    2 2pz  -0.34232     2 3d2-  0.31056     2 3d1+ -0.39500     2 3d1- -0.37776     3 1s   -0.33339
                                    6 1s    0.32777
   30.1    -0.00000     2.18158     1 1s   -0.31296     1 1s    1.59544     1 2px   0.36872     1 2py  -0.26170     1 2pz  -0.42097
                                    1 3d0  -0.54840     1 3d2+ -0.37558     2 1s    0.38544     2 1s   -1.67148     2 2px   0.38150
                                    2 2py  -0.29467     2 2pz  -0.45048     2 3d0   0.59059     2 3d2+  0.33919     3 1s   -0.35062
                                    4 1s   -0.32368     5 1s    0.32857     6 1s    0.35117
   31.1    -0.00000     2.24611     1 1s   -0.51566     1 1s    0.45237     1 2px  -0.26715     1 2px   0.31779     1 3d2- -0.33267
                                    1 3d1+ -0.39812     1 3d2+  0.37191     2 1s   -0.46126     2 2px   0.26693     2 2px  -0.25894
                                    2 3d2- -0.29769     2 3d1+ -0.38883     2 3d2+  0.40408
   32.1    -0.00000     2.34351     1 2py   0.38354     1 3d0   0.52175     1 3d2- -0.35767     1 3d1- -0.38184     2 2py  -0.37466
                                    2 3d0   0.50628     2 3d2- -0.36609     2 3d1- -0.37162     3 1s   -0.29335     4 1s    0.39225
                                    5 1s    0.38327     6 1s   -0.28542
   33.1    -0.00000     2.57714     1 1s   -0.26945     1 2py   0.26999     1 3d2- -0.49434     1 3d1- -0.57127     2 1s    0.26966
                                    2 2py   0.32159     2 3d2-  0.47432     2 3d1-  0.62442     3 1s   -0.49532     4 1s    0.37275
                                    5 1s   -0.42929     6 1s    0.48913
   34.1    -0.00000     2.63571     1 2py  -0.33697     1 3d2- -0.43491     1 3d2+ -0.52165     1 3d1-  0.53411     2 2py   0.31315
                                    2 3d2- -0.46631     2 3d2+ -0.50435     2 3d1-  0.47711     4 1s   -0.37371     5 1s   -0.32616
   35.1    -0.00000     2.72620     1 3d0  -0.41110     1 3d2- -0.47026     1 3d1+  0.50624     1 3d1- -0.27154     2 3d0  -0.41839
                                    2 3d2- -0.47766     2 3d1+  0.49716     2 3d1- -0.27616     3 1s   -0.47315     6 1s   -0.47248
   36.1    -0.00000     2.95551     1 1s   -1.74899     1 2px  -0.42947     1 2px  -0.88624     1 2py   0.25012     1 2pz   0.44758
                                    1 3d2-  0.34182     1 3d1+  0.69959     1 3d2+ -0.64062     2 1s    1.75115     2 2px  -0.42984
                                    2 2px  -0.88650     2 2pz   0.44814     2 3d2- -0.34770     2 3d1+ -0.69917     2 3d2+  0.64294


 Natural orbital dump (state averaged) at molpro section  2140.2    (Orbital set 2)



 **********************************************************************************************************************************
 DATASETS  * FILE   NREC   LENGTH (MB)   RECORD NAMES
              1      20       31.86       500      610      700      900      950      970     1000      129      960     1100   
                                          VAR    BASINP    GEOM    SYMINP    ZMAT    AOBASIS   BASIS     P2S    ABASIS      S 
                                         1400     1410     1200     1210     1080     1600     1650     1300     1700     1380   
                                           T        V       H0       H01     AOSYM     SMH    MOLCAS    ERIS     OPER     JKOP   

              2       5        5.42       700     1000      520     2100     2140   
                                         GEOM     BASIS   MCVARS     RHF     MCSCF   

 PROGRAMS   *        TOTAL     MULTI    HF-SCF       INT
 CPU TIMES  *         0.80      0.41      0.10      0.19
 REAL TIME  *         1.45 SEC
 DISK USED  *        39.04 MB
 **********************************************************************************************************************************
 Molecular orbitals read from record     2140.2  Type=MCSCF/NATURAL (state averaged)
 Occupation numbers read from record     2140.2  Type=MCSCF/NATURAL (state averaged)
 Orbital energies read from record       2140.2  Type=MCSCF/NATURAL (state averaged)
 Redundancy group numbers read from rec  2140.2  Type=MCSCF/NATURAL (state averaged)

 MULTI/6-31G* energy=    -77.552522336603

           MULTI          HF-SCF
    -77.55252234    -77.84841292
 **********************************************************************************************************************************
 Molpro calculation terminated
