
 Primary working directories    : /scratch.local/johan406.molpro_temp/molpro.sTQLmZyrZn
 Secondary working directories  : /scratch.local/johan406.molpro_temp/molpro.sTQLmZyrZn
 Wavefunction directory         : /home/goodpast/johan406/wfu/
 Main file repository           : /scratch.local/johan406.molpro_temp/molpro.sTQLmZyrZn/

 id        : roweumn

 Nodes     nprocs
 acn09        1

 Using customized tuning parameters: mindgm=1; mindgv=20; mindgc=4; mindgr=1; noblas=0; minvec=7
 default implementation of scratch files=df  


 Variables initialized (934), CPU time= 0.01 sec
                                                                                 !leave this line blank
 
 gprint, orbitals=30
 memory, 125., m
 symmetry, nosym
 nelect=16
 basis=6-31g*
 
 geometry={
 C -0.6285 0.1397 0.2907
 C 0.6334 -0.1856 -0.367
 H -1.2431 0.8944 -0.183
 H -0.9602 -0.8862 -0.0034
 H 0.9731 0.7963 0.211
 H 1.3 -0.9483 0.0665
 }
 
 hf
 {multi,
 closed 7
 occ 9
 wf,spin=0;STATE,3
 }
 
 Commands  initialized (763), CPU time= 0.01 sec, 617 directives.
 Default parameters read. Elapsed time= 0.08 sec

 Checking input...
 Passed
1


                                         ***  PROGRAM SYSTEM MOLPRO  ***
                                       Copyright, TTI GmbH Stuttgart, 2015
                                    Version 2019.2 linked Oct 25 2019 22:50:27


 **********************************************************************************************************************************
 LABEL *                                                                                 
  64 bit serial version                                                                  DATE: 07-Feb-23          TIME: 16:21:15  
 **********************************************************************************************************************************

 SHA1:             8dbd9ae1082e4ce945b0f27595c9eb2d4aa09004
 **********************************************************************************************************************************


 Variable memory set to  125000000 words,  buffer space 

 SETTING NELECT         =        16.00000000                                  
 SETTING BASIS          =    6-31G*
 ZSYMEL=NOSYM


Geometry recognized as XYZ



 Recomputing integrals since basis changed


 Using spherical harmonics

 Library entry C      S 6-31G                selected for orbital group  1
 Library entry C      P 6-31G                selected for orbital group  1
 Library entry C      D 6-31G*               selected for orbital group  1
 Library entry H      S 6-31G                selected for orbital group  2


 PROGRAM * SEWARD (Integral evaluation for generally contracted gaussian basis sets)     Author: Roland Lindh, 1990

 Geometry written to block  1 of record 700


 Point group  C1  



 ATOMIC COORDINATES

 NR  ATOM    CHARGE       X              Y              Z

   1  C       6.00   -1.187692869    0.263994740    0.549343384
   2  C       6.00    1.196952527   -0.350733169   -0.693529488
   3  H       1.00   -2.349118545    1.690171046   -0.345819881
   4  H       1.00   -1.814515025   -1.674675292   -0.006425069
   5  H       1.00    1.838892492    1.504788913    0.398732212
   6  H       1.00    2.456643962   -1.792027284    0.125666787

 Bond lengths in Bohr (Angstrom)

 1-2  2.758470055  1-3  2.045533116  1-4  2.111924733  2-5  2.246794324  2-6  2.082122421
     ( 1.459719490)     ( 1.082449509)     ( 1.117582440)     ( 1.188952354)     ( 1.101811735)

 Bond angles

  1-2-5   81.02013956   1-2-6  120.00032364   2-1-3  116.68208120   2-1-4   86.18358914

  3-1-4  110.87532746   5-2-6  101.97869227

 NUCLEAR CHARGE:                   16
 NUMBER OF PRIMITIVE AOS:          72
 NUMBER OF SYMMETRY AOS:           70
 NUMBER OF CONTRACTIONS:           36   (   36A   )
 NUMBER OF CORE ORBITALS:           2   (    2A   )
 NUMBER OF VALENCE ORBITALS:       12   (   12A   )


 NUCLEAR REPULSION ENERGY   32.31437801

 Eigenvalues of metric

         1 0.939E-02 0.276E-01 0.598E-01 0.634E-01 0.832E-01 0.218E+00 0.238E+00 0.272E+00


 Contracted 2-electron integrals neglected if value below      1.0D-11
 AO integral compression algorithm  1   Integral accuracy      1.0D-11

     1.573 MB (compressed) written to integral file ( 59.1%)


 NUMBER OF SORTED TWO-ELECTRON INTEGRALS:     222111.     BUFFER LENGTH:  32768
 NUMBER OF SEGMENTS:   1  SEGMENT LENGTH:     222111      RECORD LENGTH: 524288

 Memory used in sort:       0.78 MW

 SORT1 READ      284735. AND WROTE      212531. INTEGRALS IN      1 RECORDS. CPU TIME:     0.01 SEC, REAL TIME:     0.01 SEC
 SORT2 READ      212531. AND WROTE      222111. INTEGRALS IN      6 RECORDS. CPU TIME:     0.02 SEC, REAL TIME:     0.03 SEC

 FILE SIZES:   FILE 1:    31.7 MBYTE,  FILE 4:     4.2 MBYTE,   TOTAL:     35.9 MBYTE

 OPERATOR DM      FOR CENTER  0  COORDINATES:    0.000000    0.000000    0.000000


 **********************************************************************************************************************************
 DATASETS  * FILE   NREC   LENGTH (MB)   RECORD NAMES
              1      19       31.13       500      610      700      900      950      970     1000      129      960     1100   
                                          VAR    BASINP    GEOM    SYMINP    ZMAT    AOBASIS   BASIS     P2S    ABASIS      S 
                                         1400     1410     1200     1210     1080     1600     1650     1300     1700   
                                           T        V       H0       H01     AOSYM     SMH    MOLCAS    ERIS     OPER   

 PROGRAMS   *        TOTAL       INT
 CPU TIMES  *         0.31      0.22
 REAL TIME  *         0.62 SEC
 DISK USED  *        36.24 MB
 **********************************************************************************************************************************


 PROGRAM * RHF-SCF (CLOSED SHELL)       Authors: W. Meyer, H.-J. Werner


 NUMBER OF ELECTRONS:       8+    8-    SPACE SYMMETRY=1    SPIN SYMMETRY: Singlet 
 CONVERGENCE THRESHOLDS:    1.00E-05 (Density)    1.00E-07 (Energy)
 MAX. NUMBER OF ITERATIONS:       60
 INTERPOLATION TYPE:            DIIS
 INTERPOLATION STEPS:              2 (START)      1 (STEP)
 LEVEL SHIFTS:                  0.00 (CLOSED)  0.00 (OPEN) 



 Orbital guess generated from atomic densities. Full valence occupancy:    8

 Molecular orbital dump at record        2100.2

 Initial occupancy:   8

 ITERATION    DDIFF          GRAD             ENERGY        2-EL.EN.            DIPOLE MOMENTS         DIIS   ORB.
    1      0.000D+00      0.000D+00       -77.82461159    115.843914   -0.07471   -0.00804    0.16513    0    start
    2      0.000D+00      0.708D-02       -77.84273610    114.811683   -0.07294   -0.06263    0.05662    1    diag
    3      0.777D-02      0.238D-02       -77.84482388    115.226201   -0.12463   -0.03738    0.13169    2    diag
    4      0.299D-02      0.102D-02       -77.84530708    115.119132   -0.09934   -0.06105    0.08026    3    diag
    5      0.169D-02      0.447D-03       -77.84541509    115.101773   -0.11692   -0.05125    0.10286    4    diag
    6      0.596D-03      0.223D-03       -77.84548957    115.110444   -0.11534   -0.05335    0.09799    5    diag
    7      0.696D-03      0.962D-04       -77.84551475    115.111302   -0.11488   -0.05293    0.09799    6    diag
    8      0.460D-03      0.328D-04       -77.84551751    115.112457   -0.11394   -0.05290    0.09738    7    diag
    9      0.158D-03      0.124D-04       -77.84551780    115.112759   -0.11336   -0.05285    0.09715    8    diag
   10      0.533D-04      0.433D-05       -77.84551783    115.112780   -0.11314   -0.05282    0.09701    9    orth
   11      0.150D-04      0.115D-05       -77.84551783    115.112780   -0.11307   -0.05281    0.09698    9    diag
   12      0.330D-05      0.333D-06       -77.84551783    115.112783   -0.11307   -0.05281    0.09698    0    orth

 Final occupancy:   8

 !RHF STATE  1.1 Energy               -77.845517829584
 Nuclear energy                        32.31437801
 One-electron energy                 -167.71628710
 Two-electron energy                   57.55639126
 Virial quotient                       -1.00141804
 !RHF STATE  1.1 Dipole moment         -0.11306762    -0.05280615     0.09698165
 Dipole moment /Debye                  -0.28737041    -0.13421106     0.24648663

 ELECTRON ORBITALS
 =================

  Orbital  Occupation    Energy     Coefficients
    1.1     2.00000   -11.26275     1 1s    0.99194
    2.1     2.00000   -11.25814     2 1s    0.99199
    3.1     2.00000    -1.03663     1 1s    0.29283     1 1s    0.25520     2 1s    0.27295
    4.1     2.00000    -0.78313     1 1s   -0.28316     2 1s    0.30392
    5.1     2.00000    -0.62270     1 2py   0.35329     2 2py   0.25656
    6.1     2.00000    -0.56106     1 2px   0.30892     2 2px  -0.29253
    7.1     2.00000    -0.40849     1 2pz   0.28858
    8.1     2.00000    -0.36886     1 2px  -0.25278
    9.1     0.00000     0.06337     1 1s    0.41609     1 2pz   0.33561     1 2pz   0.47448     2 1s    0.38474     2 2pz  -0.32243
                                    2 2pz  -0.45867
   10.1     0.00000     0.23007     1 1s   -1.13713     1 2px   0.43532     1 2py   0.35851     1 2pz   0.36890     2 1s   -0.99724
                                    2 2px  -0.51169     2 2py  -0.38748     2 2pz  -0.47766     3 1s    0.57990     4 1s    1.04131
                                    5 1s    1.11142     6 1s    0.52018
   11.1     0.00000     0.28203     1 1s    1.46218     1 2py   0.33325     1 2pz  -0.43482     2 1s   -1.61682     2 2py   0.40901
                                    2 2pz  -0.47301     3 1s   -1.36179     6 1s    1.52125
   12.1     0.00000     0.30954     1 1s   -1.15283     1 2px   0.54403     1 2py  -0.69304     1 2pz   0.56697     2 1s   -0.36103
                                    2 2py   1.09346     2 2pz  -0.25831     3 1s    1.60385     5 1s   -0.87798     6 1s    1.29892
   13.1     0.00000     0.33226     1 1s   -0.82413     1 2py   0.27206     1 2py   1.20158     2 1s    1.14866     2 2px   0.35103
                                    2 2pz   0.48569     3 1s   -0.58517     4 1s    1.87717     5 1s   -1.27622     6 1s   -0.59320
   14.1     0.00000     0.42373     1 1s    2.06205     1 2px   1.78317     1 2py  -0.58066     1 2pz  -0.80511     2 1s   -2.00665
                                    2 2px   1.77674     2 2py  -0.67974     2 2pz  -0.77965     3 1s    0.53576     6 1s   -0.69975
   15.1     0.00000     0.70250     1 2px  -0.58109     1 2px   0.87648     2 2px   0.51521     2 2px  -0.98001     4 1s   -0.36955
                                    5 1s   -0.48350     6 1s    0.27541
   16.1     0.00000     0.75847     1 1s   -0.30655     1 2py  -0.48305     1 2px  -0.60277     1 2py   1.09594     2 1s    0.28552
                                    2 2py  -0.25697     2 2px  -0.60372     2 2py   0.46802     3 1s   -0.48832     4 1s    0.29662
                                    6 1s    0.46638
   17.1     0.00000     0.79291     1 1s   -0.36107     1 2py   0.42029     1 2py  -0.93478     2 2py  -0.60985     2 2pz  -0.54428
                                    2 2py   1.23622     2 2pz   0.52966     5 1s   -0.36776
   18.1     0.00000     0.80018     1 2py  -0.29147     1 2pz  -0.81384     1 2py   0.59385     1 2pz   0.79633     2 2pz  -0.49705
                                    2 2py  -0.45737     2 2pz   0.44978
   19.1     0.00000     0.86478     1 1s    0.34200     1 2px   0.27344     1 2pz   0.63426     1 2px  -0.46436     1 2py   0.48669
                                    1 2pz  -0.92597     2 1s    0.35784     2 2pz  -0.72410     2 2px   0.45785     2 2py  -0.62137
                                    2 2pz   0.98184     6 1s   -0.26500
   20.1     0.00000     0.96507     1 2px   0.66120     1 2py   0.35974     1 2px  -1.07673     1 2py  -0.85795     2 1s   -0.25233
                                    2 1s    0.31284     2 2px   0.75520     2 2py   0.38335     2 2px  -1.10803     2 2py  -0.66434
                                    4 1s   -1.07016     5 1s    0.94839
   21.1     0.00000     1.10257     1 1s   -0.53174     1 1s    1.01987     1 2px   0.35171     1 2px  -0.42693     2 1s   -0.64143
                                    2 1s    1.12401     2 2py  -0.58934     2 2py   0.67687     2 2pz   0.29620     3 1s   -0.34221
                                    4 1s    0.26407     4 1s   -0.56923     5 1s    0.89091     5 1s   -1.52084     6 1s    0.29430
   22.1     0.00000     1.14046     1 1s    0.80620     1 2px  -0.28117     1 2py   0.64732     1 2px   0.64780     1 2py  -1.01320
                                    2 1s   -0.38172     2 1s    0.29729     2 2px  -0.50156     2 2py   0.41040     2 2px   0.98459
                                    2 2py  -0.76699     3 1s   -0.53089     3 1s    1.11396     4 1s    0.38055     4 1s   -0.89798
                                    6 1s    0.54124     6 1s   -1.32265
   23.1     0.00000     1.18107     1 1s   -0.46739     1 2px   0.32391     1 2py   0.25360     1 2px  -0.87002     2 1s    0.50692
                                    2 2px  -0.63415     3 1s    0.54425     3 1s   -0.70114     4 1s    0.93896     4 1s   -1.17284
                                    5 1s   -0.43255     5 1s    0.57469     6 1s    0.32520
   24.1     0.00000     1.19088     1 1s   -0.31594     1 1s    0.40091     1 2py  -0.44015     1 2py   0.45235     2 1s   -0.70344
                                    2 1s    1.17126     2 2px  -0.26585     2 2py   0.26657     3 1s    0.70936     3 1s   -0.95946
                                    4 1s   -0.25212     4 1s    0.39628     6 1s    0.78850     6 1s   -1.10421
   25.1     0.00000     1.24852     1 1s   -1.96159     1 1s    4.66349     1 2px   0.29591     1 2pz  -1.42748     2 1s   -0.92874
                                    2 2px   1.20600     2 2py  -0.68388     3 1s   -0.26124     3 1s   -1.17919     4 1s   -0.35018
                                    4 1s   -0.61168     5 1s   -0.31576     6 1s   -0.30136     6 1s   -0.46518
   26.1     0.00000     1.29319     1 1s    0.69637     1 1s   -3.10182     1 2px  -1.28711     1 2py   1.02369     1 2pz   0.46820
                                    2 1s   -1.93845     2 1s    5.30783     2 2px  -0.70509     2 2py   0.29231     2 2pz   1.59564
                                    4 1s    0.38812     5 1s   -0.48061     5 1s   -0.70145     6 1s   -0.33970     6 1s   -0.83735
   27.1     0.00000     1.69917     1 1s   -0.41587     1 3d0  -0.33354     1 3d2-  0.29153     1 3d2+  0.34356     2 1s    0.69469
                                    2 3d0   0.35291     2 3d2- -0.29588     2 3d2+ -0.31956
   28.1     0.00000     1.90926     1 2px   0.31383     1 3d1+  0.47099     1 3d2+  0.29112     1 3d1-  0.52186     2 1s    0.41055
                                    2 1s   -1.16217     2 2pz  -0.47254     2 3d0   0.42527     6 1s    0.41056     6 1s    0.25685
   29.1     0.00000     1.95119     1 1s    0.39891     1 1s   -1.46491     1 2pz   0.40855     2 1s    0.97170     2 2px  -0.32190
                                    2 3d0   0.26377     2 3d2- -0.27246     2 3d1+  0.53481     2 3d2+  0.40700     2 3d1-  0.41632
                                    3 1s    0.31344
   30.1     0.00000     2.17785     1 1s    0.49789     1 1s   -1.71525     1 2px  -0.37695     1 2pz   0.51013     1 3d0   0.52957
                                    1 3d2-  0.29312     1 3d1+  0.36833     1 3d2+  0.25580     2 1s    1.29218     2 2px  -0.31639
                                    2 2py   0.26947     2 2pz   0.29237     2 3d0  -0.47264     2 3d2+ -0.38116     3 1s    0.38877
                                    5 1s   -0.35151
   31.1     0.00000     2.26113     1 1s   -0.34445     1 1s   -0.36171     1 3d1+ -0.28841     1 3d2+  0.49144     1 3d1-  0.26637
                                    2 1s   -0.60059     2 1s    0.92229     2 2px  -0.48236     2 2py   0.33552     2 2pz   0.26489
                                    2 3d0  -0.35580     2 3d2- -0.30738     2 3d1+ -0.35419     2 3d2+  0.30071     3 1s    0.27233
   32.1     0.00000     2.34636     1 1s   -0.35251     1 2py   0.40385     1 3d0   0.63444     1 3d2- -0.28708     2 1s    0.32164
                                    2 2py  -0.29831     2 3d0   0.34225     2 3d2- -0.43339     2 3d1- -0.46564     4 1s    0.45204
                                    5 1s    0.35311     6 1s   -0.37305
   33.1     0.00000     2.57368     1 2py   0.31722     1 3d2- -0.63234     1 3d1- -0.49393     2 1s    0.29970     2 3d2-  0.30391
                                    2 3d1-  0.64631     3 1s   -0.55328     4 1s    0.40319     5 1s   -0.38335     6 1s    0.39747
   34.1     0.00000     2.64067     1 1s    0.34281     1 2py  -0.43248     1 3d2- -0.29561     1 3d2+ -0.54859     1 3d1-  0.58630
                                    2 3d2- -0.52667     2 3d2+ -0.48540     2 3d1-  0.40187     4 1s   -0.45752     5 1s   -0.26142
   35.1     0.00000     2.71822     1 3d0  -0.39380     1 3d2- -0.49287     1 3d1+  0.48877     2 3d0  -0.43329     2 3d2- -0.49914
                                    2 3d1+  0.50991     2 3d1- -0.26932     3 1s   -0.45576     6 1s   -0.48744
   36.1     0.00000     2.95985     1 1s   -1.72236     1 2px  -0.44037     1 2px  -0.87510     1 2pz   0.43905     1 3d2-  0.33473
                                    1 3d1+  0.70333     1 3d2+ -0.66142     2 1s    1.71569     2 2px  -0.43208     2 2px  -0.87315
                                    2 2py   0.25404     2 2pz   0.44191     2 3d2- -0.35762     2 3d1+ -0.68656     2 3d2+  0.62893


 HOMO      8.1    -0.368856 =     -10.0371eV
 LUMO      9.1     0.063369 =       1.7244eV
 LUMO-HOMO         0.432225 =      11.7614eV


 **********************************************************************************************************************************
 DATASETS  * FILE   NREC   LENGTH (MB)   RECORD NAMES
              1      19       31.13       500      610      700      900      950      970     1000      129      960     1100   
                                          VAR    BASINP    GEOM    SYMINP    ZMAT    AOBASIS   BASIS     P2S    ABASIS      S 
                                         1400     1410     1200     1210     1080     1600     1650     1300     1700   
                                           T        V       H0       H01     AOSYM     SMH    MOLCAS    ERIS     OPER   

              2       4        2.86       700     1000      520     2100   
                                         GEOM     BASIS   MCVARS     RHF  

 PROGRAMS   *        TOTAL    HF-SCF       INT
 CPU TIMES  *         0.42      0.11      0.22
 REAL TIME  *         0.80 SEC
 DISK USED  *        36.24 MB
 **********************************************************************************************************************************


 PROGRAM * MULTI (Direct Multiconfiguration SCF)       Authors: P.J. Knowles, H.-J. Werner (1984)


 Number of closed-shell orbitals:   7 (   7 )
 Number of active  orbitals:        2 (   2 )
 Number of external orbitals:      27 (  27 )

 State symmetry 1

 Number of electrons:     2    Spin symmetry=Singlet   Space symmetry=1
 Number of states:        3
 Number of CSFs:          3   (4 determinants, 4 intermediate states)

 Molecular orbitals read from record     2100.2  Type=RHF/CANONICAL (state 1.1)

 Wavefunction dump at record             2140.2

 Convergence thresholds  0.10E-01 (gradient)  0.10E-05 (energy)  0.10E-02 (step length)

 Weight factors for state symmetry  1:    0.33333   0.33333   0.33333

 Number of orbital rotations:      257   (    14 Core/Active    189 Core/Virtual   0 Active/Active     54 Active/Virtual)
 Total number of variables:        269

 Micro-Iterations solved by the two-step solver

 ITER. MIC  NCI  NEG     ENERGY(VAR)     ENERGY(PROJ)   ENERGY CHANGE     GRAD(0)  GRAD(ORB)   GRAD(CI)     STEP       TIME

   1    9    6    0     -77.67695660     -77.71257439   -0.03561780    0.14907767 0.00035565 0.00000000  0.23D+00      0.15
   2    6    5    0     -77.71209941     -77.71262839   -0.00052897    0.03563715 0.00006991 0.00000000  0.20D-01      0.25
   3    7    5    0     -77.71263135     -77.71263140   -0.00000005    0.00029839 0.00000002 0.00000000  0.27D-03      0.35
   4    4    3    0     -77.71263140     -77.71263140   -0.00000000    0.00000004 0.00000000 0.00000000  0.47D-07      0.42

 ** WVFN ****  CONVERGENCE REACHED, FINAL GRADIENT:  0.10D-12



 Results for state 1.1
 =====================

 !MCSCF STATE  1.1 Energy             -77.839833651261
 Nuclear energy                        32.31437801
 Kinetic energy                        77.78642538
 One electron energy                 -167.77768670
 Two electron energy                   57.62347503
 Virial ratio                           2.00068660

 !MCSCF STATE  1.1 Dipole moment       -0.18823215    -0.03769703     0.12330409
 Dipole moment /Debye                  -0.47840708    -0.09581001     0.31338720

 Results for state 2.1
 =====================

 !MCSCF STATE  2.1 Energy             -77.734880368364
 Nuclear energy                        32.31437801
 Kinetic energy                        77.86483223
 One electron energy                 -167.51045533
 Two electron energy                   57.46119695
 Virial ratio                           1.99833106

 !MCSCF STATE  2.1 Dipole moment        0.12122743    -0.06513868     0.04011605
 Dipole moment /Debye                   0.30810921    -0.16555517     0.10195816

 Results for state 3.1
 =====================

 !MCSCF STATE  3.1 Energy             -77.563180195346
 Nuclear energy                        32.31437801
 Kinetic energy                        77.93517618
 One electron energy                 -167.27335368
 Two electron energy                   57.39579547
 Virial ratio                           1.99522685

 !MCSCF STATE  3.1 Dipole moment        0.34335164    -0.06214543     0.06351567
 Dipole moment /Debye                   0.87265566    -0.15794759     0.16143015

 State-averaged charge density matrix saved on record  2140.2 (density set 1)

 !MCSCF expec         <1.1|DMX|1.1>    -0.188232154042 au =    -0.478407078070 Debye
 !MCSCF trans         <2.1|DMX|1.1>    -0.258716025240 au =    -0.657547475431 Debye
 !MCSCF expec         <2.1|DMX|2.1>     0.121227428502 au =     0.308109207733 Debye
 !MCSCF trans         <3.1|DMX|1.1>    -0.050755651848 au =    -0.128999549624 Debye
 !MCSCF trans         <3.1|DMX|2.1>    -0.310958245513 au =    -0.790325257630 Debye
 !MCSCF expec         <3.1|DMX|3.1>     0.343351638841 au =     0.872655658245 Debye

 !MCSCF expec         <1.1|DMY|1.1>    -0.037697028684 au =    -0.095810014163 Debye
 !MCSCF trans         <2.1|DMY|1.1>     0.092354865693 au =     0.234727279549 Debye
 !MCSCF expec         <2.1|DMY|2.1>    -0.065138682632 au =    -0.165555173005 Debye
 !MCSCF trans         <3.1|DMY|1.1>     0.006777721139 au =     0.017226120492 Debye
 !MCSCF trans         <3.1|DMY|2.1>     0.106444960635 au =     0.270538383052 Debye
 !MCSCF expec         <3.1|DMY|3.1>    -0.062145431657 au =    -0.157947586190 Debye

 !MCSCF expec         <1.1|DMZ|1.1>     0.123304086259 au =     0.313387199555 Debye
 !MCSCF trans         <2.1|DMZ|1.1>     0.323793652301 au =     0.822947470815 Debye
 !MCSCF expec         <2.1|DMZ|2.1>     0.040116052398 au =     0.101958156453 Debye
 !MCSCF trans         <3.1|DMZ|1.1>     0.021983875076 au =     0.055873777215 Debye
 !MCSCF trans         <3.1|DMZ|2.1>     0.372478126101 au =     0.946682955736 Debye
 !MCSCF expec         <3.1|DMZ|3.1>     0.063515668665 au =     0.161430153165 Debye


 NATURAL ORBITALS (state averaged)
 =================================

  Orbital  Occupation    Energy     Coefficients
    1.1     2.00000   -11.26103     2 1s    0.99581
    2.1     2.00000   -11.24905     1 1s    0.99575
    3.1     2.00000    -1.04779     1 1s    0.27928     2 1s    0.27765     2 1s    0.25240
    4.1     2.00000    -0.78395     1 1s   -0.30994     2 1s    0.32547
    5.1     2.00000    -0.62298     1 2py   0.33058     2 2py   0.27055
    6.1     2.00000    -0.55986     1 2px   0.26923     2 2px  -0.25652
    7.1     2.00000    -0.42671     1 2pz   0.33003     1 2pz   0.27754     2 2pz   0.30517     2 2pz   0.26321
    8.1     1.00000    -0.08510     1 1s    0.29145     1 2pz   0.40993     1 2pz   0.43977     2 2pz  -0.39388     2 2pz  -0.42617
    9.1     1.00000    -0.22208     1 2px  -0.31458     2 2px   0.28415     4 1s    0.27312     5 1s    0.30275
   10.1    -0.00000     0.21810     1 1s   -1.03866     1 2px   0.41568     1 2py   0.35072     1 2pz   0.27571     2 1s   -1.11228
                                    2 2px  -0.51734     2 2py  -0.40550     2 2pz  -0.44826     3 1s    0.48239     4 1s    0.98026
                                    5 1s    1.17958     6 1s    0.56450
   11.1    -0.00000     0.28027     1 1s    1.45430     1 2pz  -0.38990     2 1s   -1.67891     2 2py   0.50947     2 2pz  -0.49761
                                    3 1s   -1.17322     6 1s    1.65138
   12.1    -0.00000     0.30751     1 1s   -1.64139     1 2px   0.47191     1 2pz   0.59879     2 1s    0.29426     2 2py   0.27251
                                    2 2py   1.08921     3 1s    1.24054     4 1s    1.07908     5 1s   -1.29853     6 1s    0.91782
   13.1    -0.00000     0.32410     1 2py   0.31678     1 2py   1.44968     2 1s    1.07298     2 2px   0.32085     2 2pz   0.48454
                                    3 1s   -1.41146     4 1s    1.59838     5 1s   -0.78343     6 1s   -0.85976
   14.1    -0.00000     0.42956     1 1s    1.93602     1 2px   1.79720     1 2py  -0.47578     1 2pz  -0.74728     2 1s   -1.89458
                                    2 2px   1.78688     2 2py  -0.59027     2 2pz  -0.73805     3 1s    0.53765     6 1s   -0.69525
   15.1    -0.00000     0.69976     1 2px  -0.55276     1 2px   0.84795     2 2px   0.51744     2 2px  -0.96508     4 1s   -0.44287
                                    5 1s    0.25009     5 1s   -0.52148     6 1s    0.28462
   16.1    -0.00000     0.75627     1 1s   -0.46551     1 2py  -0.41031     1 2px  -0.64386     1 2py   0.96121     2 1s    0.33931
                                    2 2py  -0.32674     2 2px  -0.67836     2 2py   0.64529     3 1s   -0.46565     4 1s    0.27638
                                    6 1s    0.49711
   17.1    -0.00000     0.78889     1 1s   -0.42273     1 2py   0.43404     1 2py  -0.96153     2 2py  -0.52609     2 2pz  -0.58798
                                    2 2py   1.13330     2 2pz   0.66218     5 1s   -0.35112
   18.1    -0.00000     0.80324     1 2py  -0.31970     1 2pz  -0.77205     1 2py   0.71608     1 2pz   0.82021     2 1s    0.32313
                                    2 2py   0.28642     2 2pz  -0.48982     2 2py  -0.52569     2 2pz   0.47974     4 1s    0.25645
   19.1    -0.00000     0.86270     1 1s    0.30707     1 2px   0.28682     1 2pz   0.64758     1 2px  -0.48628     1 2py   0.49252
                                    1 2pz  -1.02015     2 1s    0.31023     2 2pz  -0.66887     2 2px   0.50838     2 2py  -0.61948
                                    2 2pz   0.99863     6 1s   -0.31584
   20.1    -0.00000     0.97172     1 2px   0.65188     1 2py   0.35944     1 2px  -0.99571     1 2py  -0.87616     2 2px   0.75529
                                    2 2py   0.40529     2 2px  -1.04486     2 2py  -0.69069     4 1s   -1.00097     5 1s    0.97930
   21.1    -0.00000     1.07275     1 1s   -0.41224     1 1s    0.83347     1 2px   0.34952     1 2px  -0.35909     2 1s   -0.68885
                                    2 1s    1.15924     2 2py  -0.57601     2 2py   0.65229     2 2pz   0.25714     4 1s   -0.45234
                                    5 1s    0.94859     5 1s   -1.53215
   22.1    -0.00000     1.13397     1 1s   -0.41033     1 1s    0.87602     1 2py   0.70667     1 2px   0.29784     1 2py  -1.01397
                                    2 1s   -0.31444     2 1s    0.39011     2 2px  -0.47424     2 2py   0.41983     2 2px   0.69377
                                    2 2py  -0.69338     3 1s   -0.29045     3 1s    0.77423     4 1s    0.68995     4 1s   -1.27308
                                    5 1s    0.27012     6 1s    0.45814     6 1s   -1.10420
   23.1    -0.00000     1.16006     1 1s   -0.32560     1 2px   0.37300     1 2px  -1.00368     2 1s    0.30347     2 2px   0.25376
                                    2 2px  -0.95010     2 2py   0.47810     3 1s    0.39986     3 1s   -0.73936     4 1s    0.79309
                                    4 1s   -0.95506     5 1s   -0.33425     5 1s    0.37458     6 1s   -0.58983     6 1s    1.12585
   24.1    -0.00000     1.19578     1 1s   -0.25882     1 2px   0.35309     1 2py  -0.39874     1 2px  -0.61147     1 2py   0.49853
                                    2 1s   -0.62125     2 1s    1.37527     3 1s    0.92041     3 1s   -1.15845     6 1s    0.65378
                                    6 1s   -0.74751
   25.1    -0.00000     1.24666     1 1s   -1.89350     1 1s    4.25341     1 2py   0.35656     1 2pz  -1.33248     2 1s   -0.47236
                                    2 2px   1.10700     2 2py  -0.62769     2 2pz   0.43962     3 1s   -1.27667     4 1s   -0.34715
                                    4 1s   -0.53631     5 1s   -0.31961     5 1s   -0.25918     6 1s   -0.29161     6 1s   -0.63736
   26.1    -0.00000     1.28178     1 1s    0.96375     1 1s   -3.69405     1 2px  -1.31377     1 2py   0.97544     1 2pz   0.64222
                                    2 1s   -1.90155     2 1s    5.37881     2 2px  -0.86333     2 2py   0.34202     2 2pz   1.53879
                                    4 1s    0.43725     5 1s   -0.42670     5 1s   -0.67341     6 1s   -0.31068     6 1s   -0.77057
   27.1    -0.00000     1.69475     1 1s   -0.43653     1 3d0  -0.32360     1 3d2-  0.29225     1 3d2+  0.34237     2 1s    0.71303
                                    2 3d0   0.35090     2 3d2- -0.30382     2 3d2+ -0.32469
   28.1    -0.00000     1.91009     1 2px   0.29789     1 3d1+  0.45561     1 3d2+  0.29327     1 3d1-  0.50313     2 1s    0.39086
                                    2 1s   -1.08673     2 2pz  -0.45006     2 3d0   0.45153     2 3d2+  0.26762     3 1s    0.25058
                                    6 1s    0.40082     6 1s    0.25106
   29.1    -0.00000     1.94336     1 1s    0.37723     1 1s   -1.42484     1 2pz   0.38823     2 1s    1.00965     2 2px  -0.31253
                                    2 3d2- -0.28702     2 3d1+  0.53168     2 3d2+  0.39834     2 3d1-  0.41723     3 1s    0.31383
   30.1    -0.00000     2.17769     1 1s    0.50447     1 1s   -1.69293     1 2px  -0.35923     1 2pz   0.51151     1 3d0   0.51282
                                    1 3d2-  0.29015     1 3d1+  0.37816     1 3d2+  0.25501     2 1s    1.23944     2 2px  -0.30859
                                    2 2py   0.28347     2 2pz   0.26877     2 3d0  -0.46867     2 3d2+ -0.37841     3 1s    0.39279
                                    5 1s   -0.35449
   31.1    -0.00000     2.25767     1 1s   -0.33555     1 1s   -0.39271     1 2px  -0.25484     1 3d1+ -0.27725     1 3d2+  0.49645
                                    1 3d1-  0.25230     2 1s   -0.59836     2 1s    0.94986     2 2px  -0.49098     2 2py   0.33286
                                    2 2pz   0.27154     2 3d0  -0.36829     2 3d2- -0.30918     2 3d1+ -0.36216     2 3d2+  0.29736
                                    3 1s    0.26245
   32.1    -0.00000     2.34150     1 1s   -0.40879     1 2px  -0.26020     1 2py   0.41528     1 3d0   0.64671     1 3d2- -0.27139
                                    2 1s    0.35087     2 2py  -0.30553     2 3d0   0.32022     2 3d2- -0.44055     2 3d1- -0.48293
                                    4 1s    0.44213     5 1s    0.34300     6 1s   -0.39945
   33.1    -0.00000     2.56942     1 2py   0.30735     1 3d2- -0.64247     1 3d1- -0.47690     2 1s    0.28750     2 2py   0.25036
                                    2 3d2-  0.28853     2 3d1-  0.65283     3 1s   -0.55368     4 1s    0.38235     5 1s   -0.37915
                                    6 1s    0.39423
   34.1    -0.00000     2.63381     1 1s    0.36128     1 2py  -0.44938     1 3d2- -0.29137     1 3d2+ -0.54367     1 3d1-  0.60507
                                    2 3d2- -0.54771     2 3d2+ -0.47043     2 3d1-  0.37370     4 1s   -0.46041
   35.1    -0.00000     2.72263     1 3d0  -0.40464     1 3d2- -0.49484     1 3d1+  0.49101     2 3d0  -0.43501     2 3d2- -0.46633
                                    2 3d1+  0.51631     2 3d1- -0.26678     3 1s   -0.46937     6 1s   -0.47057
   36.1    -0.00000     2.95634     1 1s   -1.74851     1 2px  -0.43177     1 2px  -0.88790     1 2pz   0.44666     1 3d2-  0.33022
                                    1 3d1+  0.71527     1 3d2+ -0.66072     2 1s    1.73925     2 2px  -0.42853     2 2px  -0.88027
                                    2 2py   0.25706     2 2pz   0.44706     2 3d2- -0.35854     2 3d1+ -0.67951     2 3d2+  0.62421


 Natural orbital dump (state averaged) at molpro section  2140.2    (Orbital set 2)



 **********************************************************************************************************************************
 DATASETS  * FILE   NREC   LENGTH (MB)   RECORD NAMES
              1      20       31.86       500      610      700      900      950      970     1000      129      960     1100   
                                          VAR    BASINP    GEOM    SYMINP    ZMAT    AOBASIS   BASIS     P2S    ABASIS      S 
                                         1400     1410     1200     1210     1080     1600     1650     1300     1700     1380   
                                           T        V       H0       H01     AOSYM     SMH    MOLCAS    ERIS     OPER     JKOP   

              2       5        5.42       700     1000      520     2100     2140   
                                         GEOM     BASIS   MCVARS     RHF     MCSCF   

 PROGRAMS   *        TOTAL     MULTI    HF-SCF       INT
 CPU TIMES  *         0.90      0.47      0.11      0.22
 REAL TIME  *         1.44 SEC
 DISK USED  *        39.04 MB
 **********************************************************************************************************************************
 Molecular orbitals read from record     2140.2  Type=MCSCF/NATURAL (state averaged)
 Occupation numbers read from record     2140.2  Type=MCSCF/NATURAL (state averaged)
 Orbital energies read from record       2140.2  Type=MCSCF/NATURAL (state averaged)
 Redundancy group numbers read from rec  2140.2  Type=MCSCF/NATURAL (state averaged)

 MULTI/6-31G* energy=    -77.563180195346

           MULTI          HF-SCF
    -77.56318020    -77.84551783
 **********************************************************************************************************************************
 Molpro calculation terminated
