
 Primary working directories    : /scratch.local/johan406.molpro_temp/molpro.AjxJn1ibEY
 Secondary working directories  : /scratch.local/johan406.molpro_temp/molpro.AjxJn1ibEY
 Wavefunction directory         : /home/goodpast/johan406/wfu/
 Main file repository           : /scratch.local/johan406.molpro_temp/molpro.AjxJn1ibEY/

 id        : roweumn

 Nodes     nprocs
 acn09        1

 Using customized tuning parameters: mindgm=1; mindgv=20; mindgc=4; mindgr=1; noblas=0; minvec=7
 default implementation of scratch files=df  


 Variables initialized (934), CPU time= 0.01 sec
                                                                                 !leave this line blank
 
 gprint, orbitals=30
 memory, 125., m
 symmetry, nosym
 nelect=16
 basis=6-31g*
 
 geometry={
 C -0.6287 0.1399 0.2897
 C 0.6331 -0.1853 -0.368
 H -1.2402 0.8942 -0.1863
 H -0.9599 -0.8886 0.0126
 H 0.9733 0.7939 0.2271
 H 1.3029 -0.9486 0.0631
 }
 
 hf
 {multi,
 closed 7
 occ 9
 wf,spin=0;STATE,3
 }
 
 Commands  initialized (763), CPU time= 0.01 sec, 617 directives.
 Default parameters read. Elapsed time= 0.09 sec

 Checking input...
 Passed
1


                                         ***  PROGRAM SYSTEM MOLPRO  ***
                                       Copyright, TTI GmbH Stuttgart, 2015
                                    Version 2019.2 linked Oct 25 2019 22:50:27


 **********************************************************************************************************************************
 LABEL *                                                                                 
  64 bit serial version                                                                  DATE: 07-Feb-23          TIME: 16:21:50  
 **********************************************************************************************************************************

 SHA1:             8dbd9ae1082e4ce945b0f27595c9eb2d4aa09004
 **********************************************************************************************************************************


 Variable memory set to  125000000 words,  buffer space 

 SETTING NELECT         =        16.00000000                                  
 SETTING BASIS          =    6-31G*
 ZSYMEL=NOSYM


Geometry recognized as XYZ



 Recomputing integrals since basis changed


 Using spherical harmonics

 Library entry C      S 6-31G                selected for orbital group  1
 Library entry C      P 6-31G                selected for orbital group  1
 Library entry C      D 6-31G*               selected for orbital group  1
 Library entry H      S 6-31G                selected for orbital group  2


 PROGRAM * SEWARD (Integral evaluation for generally contracted gaussian basis sets)     Author: Roland Lindh, 1990

 Geometry written to block  1 of record 700


 Point group  C1  



 ATOMIC COORDINATES

 NR  ATOM    CHARGE       X              Y              Z

   1  C       6.00   -1.188070815    0.264372685    0.547453658
   2  C       6.00    1.196385609   -0.350166251   -0.695419214
   3  H       1.00   -2.343638340    1.689793101   -0.352055977
   4  H       1.00   -1.813948107   -1.679210634    0.023810549
   5  H       1.00    1.839270437    1.500253570    0.429156803
   6  H       1.00    2.462124168   -1.792594202    0.119241718

 Bond lengths in Bohr (Angstrom)

 1-2  2.758264584  1-3  2.043594199  1-4  2.107947013  2-5  2.258766396  2-6  2.084793737
     ( 1.459610760)     ( 1.081423479)     ( 1.115477521)     ( 1.195287702)     ( 1.103225335)

 Bond angles

  1-2-5   80.74572557   1-2-6  120.19347852   2-1-3  116.48051840   2-1-4   86.52073968

  3-1-4  111.46209627   5-2-6  101.50483050

 NUCLEAR CHARGE:                   16
 NUMBER OF PRIMITIVE AOS:          72
 NUMBER OF SYMMETRY AOS:           70
 NUMBER OF CONTRACTIONS:           36   (   36A   )
 NUMBER OF CORE ORBITALS:           2   (    2A   )
 NUMBER OF VALENCE ORBITALS:       12   (   12A   )


 NUCLEAR REPULSION ENERGY   32.30214968

 Eigenvalues of metric

         1 0.942E-02 0.276E-01 0.598E-01 0.631E-01 0.840E-01 0.219E+00 0.238E+00 0.272E+00


 Contracted 2-electron integrals neglected if value below      1.0D-11
 AO integral compression algorithm  1   Integral accuracy      1.0D-11

     1.573 MB (compressed) written to integral file ( 59.1%)


 NUMBER OF SORTED TWO-ELECTRON INTEGRALS:     222111.     BUFFER LENGTH:  32768
 NUMBER OF SEGMENTS:   1  SEGMENT LENGTH:     222111      RECORD LENGTH: 524288

 Memory used in sort:       0.78 MW

 SORT1 READ      284735. AND WROTE      212531. INTEGRALS IN      1 RECORDS. CPU TIME:     0.00 SEC, REAL TIME:     0.00 SEC
 SORT2 READ      212531. AND WROTE      222111. INTEGRALS IN      6 RECORDS. CPU TIME:     0.02 SEC, REAL TIME:     0.03 SEC

 FILE SIZES:   FILE 1:    31.7 MBYTE,  FILE 4:     4.2 MBYTE,   TOTAL:     35.9 MBYTE

 OPERATOR DM      FOR CENTER  0  COORDINATES:    0.000000    0.000000    0.000000


 **********************************************************************************************************************************
 DATASETS  * FILE   NREC   LENGTH (MB)   RECORD NAMES
              1      19       31.13       500      610      700      900      950      970     1000      129      960     1100   
                                          VAR    BASINP    GEOM    SYMINP    ZMAT    AOBASIS   BASIS     P2S    ABASIS      S 
                                         1400     1410     1200     1210     1080     1600     1650     1300     1700   
                                           T        V       H0       H01     AOSYM     SMH    MOLCAS    ERIS     OPER   

 PROGRAMS   *        TOTAL       INT
 CPU TIMES  *         0.30      0.20
 REAL TIME  *         0.60 SEC
 DISK USED  *        36.24 MB
 **********************************************************************************************************************************


 PROGRAM * RHF-SCF (CLOSED SHELL)       Authors: W. Meyer, H.-J. Werner


 NUMBER OF ELECTRONS:       8+    8-    SPACE SYMMETRY=1    SPIN SYMMETRY: Singlet 
 CONVERGENCE THRESHOLDS:    1.00E-05 (Density)    1.00E-07 (Energy)
 MAX. NUMBER OF ITERATIONS:       60
 INTERPOLATION TYPE:            DIIS
 INTERPOLATION STEPS:              2 (START)      1 (STEP)
 LEVEL SHIFTS:                  0.00 (CLOSED)  0.00 (OPEN) 



 Orbital guess generated from atomic densities. Full valence occupancy:    8

 Molecular orbital dump at record        2100.2

 Initial occupancy:   8

 ITERATION    DDIFF          GRAD             ENERGY        2-EL.EN.            DIPOLE MOMENTS         DIIS   ORB.
    1      0.000D+00      0.000D+00       -77.82382066    115.821858   -0.08484   -0.00845    0.18712    0    start
    2      0.000D+00      0.709D-02       -77.84198199    114.786378   -0.08166   -0.07032    0.06300    1    diag
    3      0.784D-02      0.241D-02       -77.84407609    115.200035   -0.14022   -0.04156    0.14824    2    diag
    4      0.301D-02      0.106D-02       -77.84457560    115.098146   -0.11241   -0.06770    0.09159    3    diag
    5      0.171D-02      0.463D-03       -77.84468746    115.076977   -0.13087   -0.05767    0.11475    4    diag
    6      0.608D-03      0.219D-03       -77.84476007    115.085708   -0.12987   -0.05959    0.11036    5    diag
    7      0.694D-03      0.946D-04       -77.84478411    115.086447   -0.12941   -0.05917    0.11034    6    diag
    8      0.444D-03      0.335D-04       -77.84478701    115.087627   -0.12841   -0.05914    0.10968    7    diag
    9      0.161D-03      0.131D-04       -77.84478735    115.087955   -0.12775   -0.05907    0.10942    8    diag
   10      0.573D-04      0.467D-05       -77.84478738    115.087988   -0.12749   -0.05905    0.10925    9    orth
   11      0.168D-04      0.122D-05       -77.84478738    115.087989   -0.12742   -0.05903    0.10922    9    diag
   12      0.356D-05      0.347D-06       -77.84478738    115.087992   -0.12741   -0.05903    0.10922    0    orth

 Final occupancy:   8

 !RHF STATE  1.1 Energy               -77.844787378422
 Nuclear energy                        32.30214968
 One-electron energy                 -167.69093314
 Two-electron energy                   57.54399609
 Virial quotient                       -1.00146669
 !RHF STATE  1.1 Dipole moment         -0.12741490    -0.05902852     0.10922171
 Dipole moment /Debye                  -0.32383516    -0.15002570     0.27759572

 ELECTRON ORBITALS
 =================

  Orbital  Occupation    Energy     Coefficients
    1.1     2.00000   -11.26336     1 1s    0.99304
    2.1     2.00000   -11.25802     2 1s    0.99309
    3.1     2.00000    -1.03654     1 1s    0.29402     1 1s    0.25611     2 1s    0.27171
    4.1     2.00000    -0.78280     1 1s   -0.28215     2 1s    0.30536
    5.1     2.00000    -0.62293     1 2py   0.35800     2 2py   0.25015
    6.1     2.00000    -0.56090     1 2px   0.31029     2 2px  -0.29207
    7.1     2.00000    -0.41056     1 2pz   0.28945
    8.1     2.00000    -0.36637     1 2px  -0.25105
    9.1     0.00000     0.06341     1 1s    0.41859     1 2pz   0.33607     1 2pz   0.47513     2 1s    0.38351     2 2pz  -0.32112
                                    2 2pz  -0.45689
   10.1     0.00000     0.22970     1 1s   -1.13615     1 2px   0.42833     1 2py   0.35735     1 2pz   0.35985     2 1s   -0.98249
                                    2 2px  -0.51382     2 2py  -0.39142     2 2pz  -0.48201     3 1s    0.57733     4 1s    1.03271
                                    5 1s    1.11403     6 1s    0.51060
   11.1     0.00000     0.28196     1 1s    1.44395     1 2py   0.33261     1 2pz  -0.43040     2 1s   -1.61884     2 2py   0.41653
                                    2 2pz  -0.47310     3 1s   -1.35030     6 1s    1.52961
   12.1     0.00000     0.30854     1 1s   -1.20349     1 2px   0.55810     1 2py  -0.63619     1 2pz   0.57288     2 1s   -0.30999
                                    2 2py   0.25181     2 2py   1.08566     3 1s    1.59212     4 1s    0.30359     5 1s   -0.91920
                                    6 1s    1.25008
   13.1     0.00000     0.33161     1 1s   -0.78144     1 2py   0.27732     1 2py   1.24611     2 1s    1.15455     2 2px   0.35469
                                    2 2pz   0.49961     3 1s   -0.66590     4 1s    1.87759     5 1s   -1.21158     6 1s   -0.65723
   14.1     0.00000     0.42381     1 1s    2.06723     1 2px   1.78359     1 2py  -0.57429     1 2pz  -0.80771     2 1s   -2.00502
                                    2 2px   1.77632     2 2py  -0.68420     2 2pz  -0.77900     3 1s    0.52351     6 1s   -0.70654
   15.1     0.00000     0.70242     1 1s   -0.25423     1 2px  -0.58486     1 2px   0.87012     2 2px   0.51035     2 2px  -0.98547
                                    4 1s   -0.36331     5 1s   -0.48965     6 1s    0.28044
   16.1     0.00000     0.75859     1 1s   -0.30426     1 2py  -0.49210     1 2px  -0.59787     1 2py   1.12486     2 1s    0.28098
                                    2 2px  -0.60154     2 2py   0.43606     3 1s   -0.48723     4 1s    0.30076     6 1s    0.46415
   17.1     0.00000     0.79363     1 1s   -0.37583     1 2py   0.37741     1 2py  -0.85298     2 2py  -0.58671     2 2pz  -0.59243
                                    2 2py   1.18551     2 2pz   0.57345     5 1s   -0.37101
   18.1     0.00000     0.80044     1 2py   0.33531     1 2pz   0.80419     1 2py  -0.68513     1 2pz  -0.78407     2 2py  -0.30884
                                    2 2pz   0.42996     2 2py   0.58161     2 2pz  -0.38061
   19.1     0.00000     0.86482     1 1s    0.33963     1 2px   0.27826     1 2pz   0.62602     1 2px  -0.46637     1 2py   0.48271
                                    1 2pz  -0.92027     2 1s    0.35771     2 2pz  -0.72788     2 2px   0.45869     2 2py  -0.63403
                                    2 2pz   0.98360     6 1s   -0.27047
   20.1     0.00000     0.96302     1 2px   0.65307     1 2py   0.35860     1 2px  -1.05910     1 2py  -0.86654     2 1s   -0.25490
                                    2 1s    0.30972     2 2px   0.75913     2 2py   0.38460     2 2px  -1.09833     2 2py  -0.64935
                                    4 1s   -1.06676     5 1s    0.93361
   21.1     0.00000     1.09928     1 1s   -0.51937     1 1s    1.00402     1 2px   0.35188     1 2px  -0.41979     2 1s   -0.64202
                                    2 1s    1.11656     2 2py  -0.58547     2 2py   0.67353     2 2pz   0.30328     3 1s   -0.33994
                                    4 1s   -0.53867     5 1s    0.90166     5 1s   -1.52811     6 1s    0.28883
   22.1     0.00000     1.14059     1 1s    0.83075     1 2px  -0.28185     1 2py   0.63618     1 2px   0.66197     1 2py  -1.00527
                                    2 1s   -0.38994     2 1s    0.29467     2 2px  -0.50692     2 2py   0.40898     2 2px   1.00714
                                    2 2py  -0.76539     3 1s   -0.52838     3 1s    1.10726     4 1s    0.36156     4 1s   -0.87336
                                    6 1s    0.55574     6 1s   -1.34010
   23.1     0.00000     1.18039     1 1s   -0.46102     1 2px   0.33909     1 2py   0.25551     1 2px  -0.88279     2 1s    0.57569
                                    2 2px  -0.62838     3 1s    0.56625     3 1s   -0.70566     4 1s    0.94486     4 1s   -1.17853
                                    5 1s   -0.39899     5 1s    0.54761     6 1s    0.27826
   24.1     0.00000     1.19104     1 1s   -0.27143     1 1s    0.31720     1 2py  -0.46036     1 2py   0.47668     2 1s   -0.70503
                                    2 1s    1.17960     2 2px  -0.25632     2 2py   0.26207     3 1s    0.69822     3 1s   -0.94137
                                    4 1s   -0.29554     4 1s    0.46360     6 1s    0.78367     6 1s   -1.09741
   25.1     0.00000     1.24676     1 1s   -1.99611     1 1s    4.77299     1 2px   0.34328     1 2pz  -1.43254     2 1s   -1.09343
                                    2 2px   1.23697     2 2py  -0.67130     3 1s   -1.19461     4 1s   -0.33106     4 1s   -0.62216
                                    5 1s   -0.30630     6 1s   -0.28665     6 1s   -0.43210
   26.1     0.00000     1.29418     1 1s    0.62816     1 1s   -2.93120     1 2px  -1.27166     1 2py   1.02840     1 2pz   0.41579
                                    2 1s   -1.93653     2 1s    5.24982     2 2px  -0.65851     2 2py   0.25684     2 2pz   1.60153
                                    4 1s    0.35837     5 1s   -0.49446     5 1s   -0.69046     6 1s   -0.35432     6 1s   -0.84858
   27.1     0.00000     1.70000     1 1s   -0.39289     1 3d0  -0.33143     1 3d2-  0.29063     1 3d2+  0.34577     2 1s    0.70129
                                    2 3d0   0.35201     2 3d2- -0.29514     2 3d2+ -0.31981
   28.1     0.00000     1.90740     1 2px   0.31564     1 3d1+  0.46938     1 3d2+  0.27834     1 3d1-  0.52866     2 1s    0.40992
                                    2 1s   -1.16840     2 2pz  -0.47296     2 3d0   0.42525     6 1s    0.41811     6 1s    0.25400
   29.1     0.00000     1.95318     1 1s    0.39642     1 1s   -1.44853     1 2pz   0.39903     2 1s    0.95465     2 2px  -0.31421
                                    2 3d0   0.29197     2 3d2- -0.26735     2 3d1+  0.53638     2 3d2+  0.42012     2 3d1-  0.40496
                                    3 1s    0.30129
   30.1     0.00000     2.17697     1 1s    0.50733     1 1s   -1.70549     1 2px  -0.37120     1 2pz   0.51233     1 3d0   0.51724
                                    1 3d2-  0.30238     1 3d1+  0.38656     2 1s    1.24356     2 2px  -0.30855     2 2py   0.26819
                                    2 2pz   0.27363     2 3d0  -0.45768     2 3d2+ -0.37801     3 1s    0.38825     5 1s   -0.34971
   31.1     0.00000     2.26355     1 1s   -0.33205     1 1s   -0.41537     1 3d1+ -0.27408     1 3d2+  0.49767     1 3d1-  0.27995
                                    2 1s   -0.60672     2 1s    0.96142     2 2px  -0.49959     2 2py   0.35041     2 2pz   0.27314
                                    2 3d0  -0.37085     2 3d2- -0.29801     2 3d1+ -0.34207     2 3d2+  0.29802     2 3d1-  0.25807
                                    3 1s    0.29087
   32.1     0.00000     2.34578     1 1s   -0.40129     1 2px  -0.25166     1 2py   0.40818     1 3d0   0.64598     1 3d2- -0.27627
                                    2 1s    0.37343     2 2py  -0.28622     2 3d0   0.31630     2 3d2- -0.44071     2 3d1- -0.47174
                                    4 1s    0.46136     5 1s    0.34532     6 1s   -0.38265
   33.1     0.00000     2.57150     1 2py   0.32172     1 3d2- -0.64481     1 3d1- -0.48417     2 1s    0.29514     2 3d2-  0.28696
                                    2 3d1-  0.64440     3 1s   -0.55914     4 1s    0.40415     5 1s   -0.37550     6 1s    0.38656
   34.1     0.00000     2.63966     1 1s    0.35117     1 2py  -0.44394     1 3d2- -0.27966     1 3d2+ -0.55208     1 3d1-  0.58926
                                    2 3d2- -0.52914     2 3d2+ -0.48220     2 3d1-  0.39532     4 1s   -0.46396     5 1s   -0.25395
   35.1     0.00000     2.71747     1 3d0  -0.39435     1 3d2- -0.49420     1 3d1+  0.48691     2 3d0  -0.43616     2 3d2- -0.50317
                                    2 3d1+  0.51247     2 3d1- -0.26524     3 1s   -0.45191     6 1s   -0.48882
   36.1     0.00000     2.95991     1 1s   -1.72295     1 2px  -0.44110     1 2px  -0.87524     1 2pz   0.43918     1 3d2-  0.33306
                                    1 3d1+  0.70401     1 3d2+ -0.66311     2 1s    1.71538     2 2px  -0.43187     2 2px  -0.87320
                                    2 2py   0.25529     2 2pz   0.44225     2 3d2- -0.35870     2 3d1+ -0.68541     2 3d2+  0.62755


 HOMO      8.1    -0.366374 =      -9.9696eV
 LUMO      9.1     0.063406 =       1.7254eV
 LUMO-HOMO         0.429780 =      11.6949eV


 **********************************************************************************************************************************
 DATASETS  * FILE   NREC   LENGTH (MB)   RECORD NAMES
              1      19       31.13       500      610      700      900      950      970     1000      129      960     1100   
                                          VAR    BASINP    GEOM    SYMINP    ZMAT    AOBASIS   BASIS     P2S    ABASIS      S 
                                         1400     1410     1200     1210     1080     1600     1650     1300     1700   
                                           T        V       H0       H01     AOSYM     SMH    MOLCAS    ERIS     OPER   

              2       4        2.86       700     1000      520     2100   
                                         GEOM     BASIS   MCVARS     RHF  

 PROGRAMS   *        TOTAL    HF-SCF       INT
 CPU TIMES  *         0.43      0.13      0.20
 REAL TIME  *         0.94 SEC
 DISK USED  *        36.24 MB
 **********************************************************************************************************************************


 PROGRAM * MULTI (Direct Multiconfiguration SCF)       Authors: P.J. Knowles, H.-J. Werner (1984)


 Number of closed-shell orbitals:   7 (   7 )
 Number of active  orbitals:        2 (   2 )
 Number of external orbitals:      27 (  27 )

 State symmetry 1

 Number of electrons:     2    Spin symmetry=Singlet   Space symmetry=1
 Number of states:        3
 Number of CSFs:          3   (4 determinants, 4 intermediate states)

 Molecular orbitals read from record     2100.2  Type=RHF/CANONICAL (state 1.1)

 Wavefunction dump at record             2140.2

 Convergence thresholds  0.10E-01 (gradient)  0.10E-05 (energy)  0.10E-02 (step length)

 Weight factors for state symmetry  1:    0.33333   0.33333   0.33333

 Number of orbital rotations:      257   (    14 Core/Active    189 Core/Virtual   0 Active/Active     54 Active/Virtual)
 Total number of variables:        269

 Micro-Iterations solved by the two-step solver

 ITER. MIC  NCI  NEG     ENERGY(VAR)     ENERGY(PROJ)   ENERGY CHANGE     GRAD(0)  GRAD(ORB)   GRAD(CI)     STEP       TIME

   1   10    6    0     -77.67808411     -77.71302729   -0.03494318    0.14991823 0.00039659 0.00000000  0.23D+00      0.18
   2    6    5    0     -77.71243129     -77.71290862   -0.00047732    0.03410133 0.00005871 0.00000000  0.18D-01      0.28
   3    7    5    0     -77.71291108     -77.71291112   -0.00000004    0.00026509 0.00000002 0.00000000  0.23D-03      0.40
   4    4    3    0     -77.71291112     -77.71291112    0.00000000    0.00000003 0.00000000 0.00000000  0.34D-07      0.47

 ** WVFN ****  CONVERGENCE REACHED, FINAL GRADIENT:  0.96D-13



 Results for state 1.1
 =====================

 !MCSCF STATE  1.1 Energy             -77.839260225589
 Nuclear energy                        32.30214968
 Kinetic energy                        77.78096066
 One electron energy                 -167.74918714
 Two electron energy                   57.60777724
 Virial ratio                           2.00074954

 !MCSCF STATE  1.1 Dipole moment       -0.20840411    -0.04180540     0.13810792
 Dipole moment /Debye                  -0.52967572    -0.10625178     0.35101233

 Results for state 2.1
 =====================

 !MCSCF STATE  2.1 Energy             -77.734096264055
 Nuclear energy                        32.30214968
 Kinetic energy                        77.85985092
 One electron energy                 -167.49041477
 Two electron energy                   57.45416883
 Virial ratio                           1.99838486

 !MCSCF STATE  2.1 Dipole moment        0.12939353    -0.07164487     0.04900562
 Dipole moment /Debye                   0.32886400    -0.18209118     0.12455171

 Results for state 3.1
 =====================

 !MCSCF STATE  3.1 Energy             -77.565376869041
 Nuclear energy                        32.30214968
 Kinetic energy                        77.93197873
 One electron energy                 -167.25784411
 Two electron energy                   57.39031757
 Virial ratio                           1.99529587

 !MCSCF STATE  3.1 Dipole moment        0.38301317    -0.07184561     0.06320000
 Dipole moment /Debye                   0.97345862    -0.18260138     0.16062786

 State-averaged charge density matrix saved on record  2140.2 (density set 1)

 !MCSCF expec         <1.1|DMX|1.1>    -0.208404110054 au =    -0.529675718030 Debye
 !MCSCF trans         <2.1|DMX|1.1>    -0.281343720982 au =    -0.715057574372 Debye
 !MCSCF expec         <2.1|DMX|2.1>     0.129393525580 au =     0.328863996743 Debye
 !MCSCF trans         <3.1|DMX|1.1>    -0.056901433615 au =    -0.144619545647 Debye
 !MCSCF trans         <3.1|DMX|2.1>    -0.339525444776 au =    -0.862931079934 Debye
 !MCSCF expec         <3.1|DMX|3.1>     0.383013172331 au =     0.973458618533 Debye

 !MCSCF expec         <1.1|DMY|1.1>    -0.041805403256 au =    -0.106251776808 Debye
 !MCSCF trans         <2.1|DMY|1.1>     0.101223649687 au =     0.257268003571 Debye
 !MCSCF expec         <2.1|DMY|2.1>    -0.071644874442 au =    -0.182091179985 Debye
 !MCSCF trans         <3.1|DMY|1.1>     0.007161296308 au =     0.018201007470 Debye
 !MCSCF trans         <3.1|DMY|2.1>     0.117672040075 au =     0.299072903614 Debye
 !MCSCF expec         <3.1|DMY|3.1>    -0.071845614122 au =    -0.182601375940 Debye

 !MCSCF expec         <1.1|DMZ|1.1>     0.138107921825 au =     0.351012331951 Debye
 !MCSCF trans         <2.1|DMZ|1.1>     0.353145569462 au =     0.897547716433 Debye
 !MCSCF expec         <2.1|DMZ|2.1>     0.049005621919 au =     0.124551708557 Debye
 !MCSCF trans         <3.1|DMZ|1.1>     0.022806504707 au =     0.057964556233 Debye
 !MCSCF trans         <3.1|DMZ|2.1>     0.409796501848 au =     1.041530593166 Debye
 !MCSCF expec         <3.1|DMZ|3.1>     0.063200000249 au =     0.160627856633 Debye


 NATURAL ORBITALS (state averaged)
 =================================

  Orbital  Occupation    Energy     Coefficients
    1.1     2.00000   -11.26196     2 1s    0.99591
    2.1     2.00000   -11.24849     1 1s    0.99585
    3.1     2.00000    -1.04731     1 1s    0.27956     2 1s    0.27759     2 1s    0.25326
    4.1     2.00000    -0.78360     1 1s   -0.30907     2 1s    0.32637
    5.1     2.00000    -0.62255     1 2py   0.33390     2 2py   0.26653
    6.1     2.00000    -0.55979     1 2px   0.27082     2 2px  -0.25660
    7.1     2.00000    -0.42830     1 2pz   0.32975     1 2pz   0.27613     2 2pz   0.30234     2 2pz   0.26020
    8.1     1.00000    -0.22016     1 2px  -0.31356     2 2px   0.28045     4 1s    0.27025     5 1s    0.30289
    9.1     1.00000    -0.08469     1 1s    0.29432     1 2pz   0.40997     1 2pz   0.44117     2 2pz  -0.39236     2 2pz  -0.42599
   10.1    -0.00000     0.21772     1 1s   -1.02754     1 2px   0.40624     1 2py   0.34541     1 2pz   0.26285     2 1s   -1.10755
                                    2 2px  -0.52032     2 2py  -0.40897     2 2pz  -0.45474     3 1s    0.47439     4 1s    0.96288
                                    5 1s    1.18808     6 1s    0.56250
   11.1    -0.00000     0.27998     1 1s    1.40855     1 2pz  -0.37263     2 1s   -1.67238     2 2py   0.53929     2 2pz  -0.49603
                                    3 1s   -1.13365     6 1s    1.67621
   12.1    -0.00000     0.30607     1 1s   -1.69056     1 2px   0.47603     1 2pz   0.60097     2 1s    0.34564     2 2py   0.26565
                                    2 2py   1.04905     3 1s    1.23669     4 1s    1.13714     5 1s   -1.29016     6 1s    0.84386
   13.1    -0.00000     0.32463     1 2py   0.31624     1 2py   1.46397     2 1s    1.04198     2 2px   0.31796     2 2pz   0.47853
                                    3 1s   -1.46033     4 1s    1.58016     5 1s   -0.73012     6 1s   -0.87177
   14.1    -0.00000     0.42958     1 1s    1.94489     1 2px   1.79782     1 2py  -0.47086     1 2pz  -0.75102     2 1s   -1.89827
                                    2 2px   1.78652     2 2py  -0.59735     2 2pz  -0.74001     3 1s    0.52553     6 1s   -0.70090
   15.1    -0.00000     0.69985     1 2px  -0.55476     1 2px   0.84055     2 2px   0.51531     2 2px  -0.97239     4 1s   -0.43829
                                    5 1s   -0.52519     6 1s    0.29033
   16.1    -0.00000     0.75657     1 1s   -0.46780     1 2py  -0.41452     1 2px  -0.63985     1 2py   0.97613     2 1s    0.32867
                                    2 2py  -0.32388     2 2px  -0.67836     2 2py   0.62838     3 1s   -0.46337     4 1s    0.27765
                                    6 1s    0.49890
   17.1    -0.00000     0.78906     1 1s   -0.44275     1 2py   0.41263     1 2py  -0.92074     2 2py  -0.51389     2 2pz  -0.61346
                                    2 2py   1.10491     2 2pz   0.68742     5 1s   -0.35238
   18.1    -0.00000     0.80403     1 2py   0.34494     1 2pz   0.76471     1 2py  -0.76615     1 2pz  -0.80947     2 1s   -0.31075
                                    2 2py  -0.31611     2 2pz   0.45671     2 2py   0.58620     2 2pz  -0.43952     4 1s   -0.26169
                                    6 1s    0.25247
   19.1    -0.00000     0.86269     1 1s    0.30570     1 2px   0.29157     1 2pz   0.64576     1 2px  -0.48695     1 2py   0.48747
                                    1 2pz  -1.02085     2 1s    0.30959     2 2pz  -0.66838     2 2px   0.51070     2 2py  -0.63051
                                    2 2pz   0.99478     6 1s   -0.32056
   20.1    -0.00000     0.96964     1 2px   0.64281     1 2py   0.35820     1 2px  -0.97861     1 2py  -0.88547     2 2px   0.75910
                                    2 2py   0.40862     2 2px  -1.03760     2 2py  -0.67691     4 1s   -0.99474     5 1s    0.97536
   21.1    -0.00000     1.06908     1 1s   -0.39906     1 1s    0.81178     1 2px   0.35276     1 2px  -0.36149     2 1s   -0.68958
                                    2 1s    1.15673     2 2py  -0.56945     2 2py   0.64739     2 2pz   0.26582     4 1s   -0.42609
                                    5 1s    0.95468     5 1s   -1.53175
   22.1    -0.00000     1.13469     1 1s   -0.40275     1 1s    0.89041     1 2py   0.68945     1 2px   0.33917     1 2py  -1.01085
                                    2 1s   -0.34756     2 1s    0.41308     2 2px  -0.49292     2 2py   0.42621     2 2px   0.74651
                                    2 2py  -0.70764     3 1s   -0.29357     3 1s    0.78957     4 1s    0.64636     4 1s   -1.21855
                                    6 1s    0.50606     6 1s   -1.17634
   23.1    -0.00000     1.16033     1 1s   -0.33710     1 2px   0.37261     1 2px  -0.98971     2 1s    0.28572     2 2px  -0.91640
                                    2 2py   0.45112     3 1s    0.38125     3 1s   -0.68152     4 1s    0.83792     4 1s   -1.03223
                                    5 1s   -0.31830     5 1s    0.37310     6 1s   -0.56081     6 1s    1.07218
   24.1    -0.00000     1.19590     1 2px   0.35698     1 2py  -0.40856     1 2px  -0.64432     1 2py   0.52024     2 1s   -0.62770
                                    2 1s    1.43281     2 2px  -0.25960     3 1s    0.92955     3 1s   -1.15483     6 1s    0.64193
                                    6 1s   -0.71850
   25.1    -0.00000     1.24611     1 1s   -1.93541     1 1s    4.37882     1 2py   0.34128     1 2pz  -1.34241     2 1s   -0.41293
                                    2 2px   1.13991     2 2py  -0.61814     2 2pz   0.39306     3 1s   -1.30472     4 1s   -0.33365
                                    4 1s   -0.54219     5 1s   -0.31055     5 1s   -0.25232     6 1s   -0.27426     6 1s   -0.60798
   26.1    -0.00000     1.28199     1 1s    0.89766     1 1s   -3.53057     1 2px  -1.30284     1 2py   0.98601     1 2pz   0.58874
                                    2 1s   -1.90710     2 1s    5.34060     2 2px  -0.81802     2 2py   0.30415     2 2pz   1.55228
                                    4 1s    0.41015     5 1s   -0.44106     5 1s   -0.66635     6 1s   -0.32941     6 1s   -0.78565
   27.1    -0.00000     1.69579     1 1s   -0.41176     1 3d0  -0.32106     1 3d2-  0.29095     1 3d2+  0.34414     2 1s    0.71773
                                    2 2pz   0.25312     2 3d0   0.35057     2 3d2- -0.30359     2 3d2+ -0.32539
   28.1    -0.00000     1.90871     1 2px   0.30053     1 3d1+  0.45477     1 3d2+  0.28020     1 3d1-  0.51026     2 1s    0.39128
                                    2 1s   -1.09860     2 2pz  -0.45131     2 3d0   0.45377     2 3d2+  0.25860     6 1s    0.40948
   29.1    -0.00000     1.94457     1 1s    0.37521     1 1s   -1.40909     1 2pz   0.37960     2 1s    0.98853     2 2px  -0.30559
                                    2 3d0   0.26469     2 3d2- -0.28278     2 3d1+  0.53432     2 3d2+  0.41348     2 3d1-  0.40742
                                    3 1s    0.30200
   30.1    -0.00000     2.17687     1 1s    0.51286     1 1s   -1.68020     1 2px  -0.35145     1 2pz   0.51374     1 3d0   0.49762
                                    1 3d2-  0.29847     1 3d1+  0.39676     2 1s    1.18690     2 2px  -0.30075     2 2py   0.28353
                                    2 3d0  -0.45192     2 3d2+ -0.37371     3 1s    0.39189     5 1s   -0.35317
   31.1    -0.00000     2.26023     1 1s   -0.32515     1 1s   -0.44259     1 2px  -0.25289     1 3d1+ -0.26098     1 3d2+  0.50187
                                    1 3d1-  0.26749     2 1s   -0.60367     2 1s    0.98433     2 2px  -0.50914     2 2py   0.35002
                                    2 2pz   0.27761     2 3d0  -0.38429     2 3d2- -0.29691     2 3d1+ -0.34943     2 3d2+  0.29639
                                    2 3d1-  0.25008     3 1s    0.28094
   32.1    -0.00000     2.34125     1 1s   -0.46468     1 2px  -0.26569     1 2py   0.41831     1 3d0   0.65895     1 3d2- -0.25938
                                    2 1s    0.40968     2 2py  -0.29090     2 3d0   0.29053     2 3d2- -0.44957     2 3d1- -0.48796
                                    4 1s    0.45212     5 1s    0.33497     6 1s   -0.41001
   33.1    -0.00000     2.56759     1 2py   0.31074     1 3d2- -0.65481     1 3d1- -0.46510     2 1s    0.28322     2 3d2-  0.26956
                                    2 3d1-  0.65051     3 1s   -0.55846     4 1s    0.38213     5 1s   -0.37141     6 1s    0.38238
   34.1    -0.00000     2.63313     1 1s    0.37169     1 2py  -0.46200     1 3d2- -0.27539     1 3d2+ -0.54677     1 3d1-  0.60892
                                    2 3d2- -0.55216     2 3d2+ -0.46591     2 3d1-  0.36374     4 1s   -0.46800
   35.1    -0.00000     2.72177     1 3d0  -0.40508     1 3d2- -0.49757     1 3d1+  0.48950     2 3d0  -0.43741     2 3d2- -0.46688
                                    2 3d1+  0.51860     2 3d1- -0.26316     3 1s   -0.46798     6 1s   -0.46995
   36.1    -0.00000     2.95660     1 1s   -1.74807     1 2px  -0.43224     1 2px  -0.88786     1 2pz   0.44657     1 3d2-  0.32850
                                    1 3d1+  0.71684     1 3d2+ -0.66279     2 1s    1.73748     2 2px  -0.42866     2 2px  -0.87948
                                    2 2py   0.25768     2 2pz   0.44688     2 3d2- -0.35986     2 3d1+ -0.67727     2 3d2+  0.62246


 Natural orbital dump (state averaged) at molpro section  2140.2    (Orbital set 2)



 **********************************************************************************************************************************
 DATASETS  * FILE   NREC   LENGTH (MB)   RECORD NAMES
              1      20       31.86       500      610      700      900      950      970     1000      129      960     1100   
                                          VAR    BASINP    GEOM    SYMINP    ZMAT    AOBASIS   BASIS     P2S    ABASIS      S 
                                         1400     1410     1200     1210     1080     1600     1650     1300     1700     1380   
                                           T        V       H0       H01     AOSYM     SMH    MOLCAS    ERIS     OPER     JKOP   

              2       5        5.42       700     1000      520     2100     2140   
                                         GEOM     BASIS   MCVARS     RHF     MCSCF   

 PROGRAMS   *        TOTAL     MULTI    HF-SCF       INT
 CPU TIMES  *         0.95      0.51      0.13      0.20
 REAL TIME  *         1.69 SEC
 DISK USED  *        39.04 MB
 **********************************************************************************************************************************
 Molecular orbitals read from record     2140.2  Type=MCSCF/NATURAL (state averaged)
 Occupation numbers read from record     2140.2  Type=MCSCF/NATURAL (state averaged)
 Orbital energies read from record       2140.2  Type=MCSCF/NATURAL (state averaged)
 Redundancy group numbers read from rec  2140.2  Type=MCSCF/NATURAL (state averaged)

 MULTI/6-31G* energy=    -77.565376869041

           MULTI          HF-SCF
    -77.56537687    -77.84478738
 **********************************************************************************************************************************
 Molpro calculation terminated
