
 Primary working directories    : /scratch.local/johan406.molpro_temp/molpro.YF4lVJ1Ijg
 Secondary working directories  : /scratch.local/johan406.molpro_temp/molpro.YF4lVJ1Ijg
 Wavefunction directory         : /home/goodpast/johan406/wfu/
 Main file repository           : /scratch.local/johan406.molpro_temp/molpro.YF4lVJ1Ijg/

 id        : roweumn

 Nodes     nprocs
 acn09        1

 Using customized tuning parameters: mindgm=1; mindgv=20; mindgc=4; mindgr=1; noblas=0; minvec=7
 default implementation of scratch files=df  


 Variables initialized (934), CPU time= 0.00 sec
                                                                                 !leave this line blank
 
 gprint, orbitals=30
 memory, 125., m
 symmetry, nosym
 nelect=16
 basis=6-31g*
 
 geometry={
 C -0.6289 0.1401 0.2891
 C 0.633 -0.1852 -0.3686
 H -1.2383 0.894 -0.1886
 H -0.9598 -0.8902 0.0234
 H 0.9735 0.7923 0.2378
 H 1.3048 -0.9487 0.0609
 }
 
 hf
 {multi,
 closed 7
 occ 9
 wf,spin=0;STATE,3
 }
 
 Commands  initialized (763), CPU time= 0.02 sec, 617 directives.
 Default parameters read. Elapsed time= 0.10 sec

 Checking input...
 Passed
1


                                         ***  PROGRAM SYSTEM MOLPRO  ***
                                       Copyright, TTI GmbH Stuttgart, 2015
                                    Version 2019.2 linked Oct 25 2019 22:50:27


 **********************************************************************************************************************************
 LABEL *                                                                                 
  64 bit serial version                                                                  DATE: 07-Feb-23          TIME: 16:22:11  
 **********************************************************************************************************************************

 SHA1:             8dbd9ae1082e4ce945b0f27595c9eb2d4aa09004
 **********************************************************************************************************************************


 Variable memory set to  125000000 words,  buffer space 

 SETTING NELECT         =        16.00000000                                  
 SETTING BASIS          =    6-31G*
 ZSYMEL=NOSYM


Geometry recognized as XYZ



 Recomputing integrals since basis changed


 Using spherical harmonics

 Library entry C      S 6-31G                selected for orbital group  1
 Library entry C      P 6-31G                selected for orbital group  1
 Library entry C      D 6-31G*               selected for orbital group  1
 Library entry H      S 6-31G                selected for orbital group  2


 PROGRAM * SEWARD (Integral evaluation for generally contracted gaussian basis sets)     Author: Roland Lindh, 1990

 Geometry written to block  1 of record 700


 Point group  C1  



 ATOMIC COORDINATES

 NR  ATOM    CHARGE       X              Y              Z

   1  C       6.00   -1.188448760    0.264750630    0.546319823
   2  C       6.00    1.196196637   -0.349977278   -0.696553050
   3  H       1.00   -2.340047860    1.689415155   -0.356402347
   4  H       1.00   -1.813759134   -1.682234196    0.044219591
   5  H       1.00    1.839648382    1.497230008    0.449376872
   6  H       1.00    2.465714647   -1.792783174    0.115084321

 Bond lengths in Bohr (Angstrom)

 1-2  2.758470055  1-3  2.042243084  1-4  2.105675098  2-5  2.267015724  2-6  2.086173544
     ( 1.459719490)     ( 1.080708499)     ( 1.114275276)     ( 1.199653058)     ( 1.103955497)

 Bond angles

  1-2-5   80.56273191   1-2-6  120.32471280   2-1-3  116.34471890   2-1-4   86.74533254

  3-1-4  111.84941640   5-2-6  101.19504499

 NUCLEAR CHARGE:                   16
 NUMBER OF PRIMITIVE AOS:          72
 NUMBER OF SYMMETRY AOS:           70
 NUMBER OF CONTRACTIONS:           36   (   36A   )
 NUMBER OF CORE ORBITALS:           2   (    2A   )
 NUMBER OF VALENCE ORBITALS:       12   (   12A   )


 NUCLEAR REPULSION ENERGY   32.29172023

 Eigenvalues of metric

         1 0.944E-02 0.277E-01 0.599E-01 0.630E-01 0.845E-01 0.219E+00 0.238E+00 0.272E+00


 Contracted 2-electron integrals neglected if value below      1.0D-11
 AO integral compression algorithm  1   Integral accuracy      1.0D-11

     1.573 MB (compressed) written to integral file ( 59.1%)


 NUMBER OF SORTED TWO-ELECTRON INTEGRALS:     222111.     BUFFER LENGTH:  32768
 NUMBER OF SEGMENTS:   1  SEGMENT LENGTH:     222111      RECORD LENGTH: 524288

 Memory used in sort:       0.78 MW

 SORT1 READ      284735. AND WROTE      212531. INTEGRALS IN      1 RECORDS. CPU TIME:     0.01 SEC, REAL TIME:     0.01 SEC
 SORT2 READ      212531. AND WROTE      222111. INTEGRALS IN      6 RECORDS. CPU TIME:     0.02 SEC, REAL TIME:     0.02 SEC

 FILE SIZES:   FILE 1:    31.7 MBYTE,  FILE 4:     4.2 MBYTE,   TOTAL:     35.9 MBYTE

 OPERATOR DM      FOR CENTER  0  COORDINATES:    0.000000    0.000000    0.000000


 **********************************************************************************************************************************
 DATASETS  * FILE   NREC   LENGTH (MB)   RECORD NAMES
              1      19       31.13       500      610      700      900      950      970     1000      129      960     1100   
                                          VAR    BASINP    GEOM    SYMINP    ZMAT    AOBASIS   BASIS     P2S    ABASIS      S 
                                         1400     1410     1200     1210     1080     1600     1650     1300     1700   
                                           T        V       H0       H01     AOSYM     SMH    MOLCAS    ERIS     OPER   

 PROGRAMS   *        TOTAL       INT
 CPU TIMES  *         0.32      0.20
 REAL TIME  *         0.50 SEC
 DISK USED  *        36.24 MB
 **********************************************************************************************************************************


 PROGRAM * RHF-SCF (CLOSED SHELL)       Authors: W. Meyer, H.-J. Werner


 NUMBER OF ELECTRONS:       8+    8-    SPACE SYMMETRY=1    SPIN SYMMETRY: Singlet 
 CONVERGENCE THRESHOLDS:    1.00E-05 (Density)    1.00E-07 (Energy)
 MAX. NUMBER OF ITERATIONS:       60
 INTERPOLATION TYPE:            DIIS
 INTERPOLATION STEPS:              2 (START)      1 (STEP)
 LEVEL SHIFTS:                  0.00 (CLOSED)  0.00 (OPEN) 



 Orbital guess generated from atomic densities. Full valence occupancy:    8

 Molecular orbital dump at record        2100.2

 Initial occupancy:   8

 ITERATION    DDIFF          GRAD             ENERGY        2-EL.EN.            DIPOLE MOMENTS         DIIS   ORB.
    1      0.000D+00      0.000D+00       -77.82321703    115.802248   -0.09192   -0.00852    0.20217    0    start
    2      0.000D+00      0.710D-02       -77.84140654    114.765103   -0.08732   -0.07555    0.06700    1    diag
    3      0.788D-02      0.243D-02       -77.84350735    115.177793   -0.15067   -0.04428    0.15936    2    diag
    4      0.302D-02      0.110D-02       -77.84402078    115.079732   -0.12118   -0.07207    0.09929    3    diag
    5      0.173D-02      0.473D-03       -77.84413530    115.055906   -0.14017   -0.06195    0.12269    4    diag
    6      0.618D-03      0.217D-03       -77.84420656    115.064659   -0.13955   -0.06377    0.11859    5    diag
    7      0.691D-03      0.936D-04       -77.84422984    115.065315   -0.13910   -0.06335    0.11855    6    diag
    8      0.433D-03      0.339D-04       -77.84423284    115.066510   -0.13805   -0.06331    0.11786    7    diag
    9      0.162D-03      0.137D-04       -77.84423320    115.066858   -0.13734   -0.06324    0.11758    8    diag
   10      0.601D-04      0.489D-05       -77.84423324    115.066899   -0.13706   -0.06321    0.11740    9    orth
   11      0.180D-04      0.127D-05       -77.84423324    115.066901   -0.13699   -0.06320    0.11736    9    diag
   12      0.374D-05      0.356D-06       -77.84423324    115.066904   -0.13698   -0.06319    0.11737    0    orth

 Final occupancy:   8

 !RHF STATE  1.1 Energy               -77.844233236686
 Nuclear energy                        32.29172023
 One-electron energy                 -167.66940532
 Two-electron energy                   57.53345185
 Virial quotient                       -1.00150260
 !RHF STATE  1.1 Dipole moment         -0.13698235    -0.06319116     0.11736956
 Dipole moment /Debye                  -0.34815161    -0.16060539     0.29830412

 ELECTRON ORBITALS
 =================

  Orbital  Occupation    Energy     Coefficients
    1.1     2.00000   -11.26381     1 1s    0.99360
    2.1     2.00000   -11.25795     2 1s    0.99365
    3.1     2.00000    -1.03642     1 1s    0.29479     1 1s    0.25676     2 1s    0.27090
    4.1     2.00000    -0.78262     1 1s   -0.28148     2 1s    0.30626
    5.1     2.00000    -0.62306     1 2py   0.36098
    6.1     2.00000    -0.56081     1 2px   0.31119     2 2px  -0.29176
    7.1     2.00000    -0.41189     1 2pz   0.29008
    8.1     2.00000    -0.36471     2 2pz  -0.25015
    9.1     0.00000     0.06340     1 1s    0.42024     1 2pz   0.33636     1 2pz   0.47550     2 1s    0.38260     2 2pz  -0.32022
                                    2 2pz  -0.45564
   10.1     0.00000     0.22942     1 1s   -1.13478     1 2px   0.42339     1 2py   0.35652     1 2pz   0.35364     2 1s   -0.97234
                                    2 2px  -0.51503     2 2py  -0.39432     2 2pz  -0.48466     3 1s    0.57526     4 1s    1.02647
                                    5 1s    1.11579     6 1s    0.50385
   11.1     0.00000     0.28194     1 1s    1.43161     1 2py   0.33280     1 2pz  -0.42782     2 1s   -1.62028     2 2py   0.42119
                                    2 2pz  -0.47309     3 1s   -1.34306     6 1s    1.53494
   12.1     0.00000     0.30780     1 1s   -1.23651     1 2px   0.56690     1 2py  -0.59628     1 2pz   0.57554     2 1s   -0.27688
                                    2 2py   0.25302     2 2py   1.07818     3 1s    1.58185     4 1s    0.36455     5 1s   -0.94423
                                    6 1s    1.21640
   13.1     0.00000     0.33116     1 1s   -0.75094     1 2py   0.28041     1 2py   1.27384     2 1s    1.15789     2 2px   0.35677
                                    2 2pz   0.50797     3 1s   -0.71950     4 1s    1.87463     5 1s   -1.16728     6 1s   -0.69935
   14.1     0.00000     0.42381     1 1s    2.06935     1 2px   1.78324     1 2py  -0.57024     1 2pz  -0.80901     2 1s   -2.00215
                                    2 2px   1.77562     2 2py  -0.68738     2 2pz  -0.77805     3 1s    0.51555     6 1s   -0.71167
   15.1     0.00000     0.70242     1 1s   -0.26537     1 2px  -0.58745     1 2px   0.86599     2 2px   0.50707     2 2px  -0.98892
                                    4 1s   -0.35914     5 1s   -0.49356     6 1s    0.28392
   16.1     0.00000     0.75863     1 1s   -0.30261     1 2py  -0.49722     1 2px  -0.59449     1 2py   1.14192     2 1s    0.27715
                                    2 2px  -0.60086     2 2py   0.41715     3 1s   -0.48633     4 1s    0.30302     6 1s    0.46290
   17.1     0.00000     0.79407     1 1s   -0.38373     1 2py   0.34338     1 2py  -0.78765     1 2pz   0.29169     2 2py  -0.56398
                                    2 2pz  -0.62386     2 2py   1.13777     2 2pz   0.60074     5 1s   -0.37007
   18.1     0.00000     0.80069     1 2py   0.36535     1 2pz   0.79051     1 2py  -0.74876     1 2pz  -0.76787     2 2py  -0.35479
                                    2 2pz   0.37661     2 2py   0.67156     2 2pz  -0.32664     4 1s   -0.25111
   19.1     0.00000     0.86483     1 1s    0.33792     1 2px   0.28157     1 2pz   0.62033     1 2px  -0.46794     1 2py   0.48041
                                    1 2pz  -0.91639     2 1s    0.35750     2 2py   0.25193     2 2pz  -0.73030     2 2px   0.45916
                                    2 2py  -0.64256     2 2pz   0.98479     6 1s   -0.27432
   20.1     0.00000     0.96150     1 2px   0.64755     1 2py   0.35772     1 2px  -1.04697     1 2py  -0.87163     2 1s   -0.25616
                                    2 1s    0.30706     2 2px   0.76176     2 2py   0.38517     2 2px  -1.09220     2 2py  -0.63864
                                    4 1s   -1.06324     5 1s    0.92313
   21.1     0.00000     1.09699     1 1s   -0.51158     1 1s    0.99363     1 2px   0.35152     1 2px  -0.41490     2 1s   -0.64318
                                    2 1s    1.11350     2 2py  -0.58187     2 2py   0.67005     2 2pz   0.30793     3 1s   -0.33695
                                    4 1s   -0.52086     5 1s    0.90819     5 1s   -1.53212     6 1s    0.28317
   22.1     0.00000     1.14070     1 1s    0.84550     1 2px  -0.28263     1 2py   0.62983     1 2px   0.67088     1 2py  -1.00113
                                    2 1s   -0.39200     2 1s    0.28819     2 2px  -0.50958     2 2py   0.40907     2 2px   1.01983
                                    2 2py  -0.76529     3 1s   -0.52679     3 1s    1.10350     4 1s    0.35080     4 1s   -0.85919
                                    6 1s    0.56401     6 1s   -1.34921
   23.1     0.00000     1.17982     1 1s   -0.45367     1 2px   0.34808     1 2py   0.25686     1 2px  -0.89097     2 1s    0.61279
                                    2 2px  -0.62841     3 1s    0.57799     3 1s   -0.70580     4 1s    0.94757     4 1s   -1.18073
                                    5 1s   -0.37852     5 1s    0.53244     6 1s    0.25548
   24.1     0.00000     1.19127     1 1s    0.26446     1 2py  -0.47119     1 2py   0.49043     2 1s   -0.70576     2 1s    1.18694
                                    2 2px  -0.25081     2 2py   0.26049     3 1s    0.69237     3 1s   -0.93088     4 1s   -0.31871
                                    4 1s    0.50047     6 1s    0.78019     6 1s   -1.09296
   25.1     0.00000     1.24564     1 1s   -2.01595     1 1s    4.83441     1 2px   0.37095     1 2pz  -1.43373     2 1s   -1.18793
                                    2 2px   1.25449     2 2py  -0.66172     3 1s   -1.20465     4 1s   -0.31891     4 1s   -0.62736
                                    5 1s   -0.30014     6 1s   -0.27711     6 1s   -0.41243
   26.1     0.00000     1.29470     1 1s    0.58652     1 1s   -2.82500     1 2px  -1.26085     1 2py   1.02973     1 2pz   0.38403
                                    2 1s   -1.93422     2 1s    5.20991     2 2px  -0.62935     2 2pz   1.60358     4 1s    0.33867
                                    5 1s   -0.50282     5 1s   -0.68224     6 1s   -0.36243     6 1s   -0.85543
   27.1     0.00000     1.70059     1 1s   -0.37711     1 3d0  -0.32996     1 3d2-  0.29007     1 3d2+  0.34732     2 1s    0.70459
                                    2 3d0   0.35120     2 3d2- -0.29463     2 3d2+ -0.32017
   28.1     0.00000     1.90619     1 2px   0.31596     1 3d1+  0.46779     1 3d2+  0.26977     1 3d1-  0.53240     2 1s    0.40892
                                    2 1s   -1.16972     2 2pz  -0.47250     2 3d0   0.42503     6 1s    0.42230     6 1s    0.25237
   29.1     0.00000     1.95454     1 1s    0.39409     1 1s   -1.43600     1 2pz   0.39174     2 1s    0.94535     2 2px  -0.30855
                                    2 3d0   0.30957     2 3d2- -0.26411     2 3d1+  0.53688     2 3d2+  0.42793     2 3d1-  0.39700
                                    3 1s    0.29278     4 1s    0.25294
   30.1     0.00000     2.17626     1 1s    0.51301     1 1s   -1.69730     1 2px  -0.36704     1 2pz   0.51318     1 3d0   0.50848
                                    1 3d2-  0.30800     1 3d1+  0.39782     2 1s    1.21078     2 2px  -0.30311     2 2py   0.26715
                                    2 2pz   0.26120     2 3d0  -0.44744     2 3d2+ -0.37560     3 1s    0.38730     5 1s   -0.34823
   31.1     0.00000     2.26501     1 1s   -0.32431     1 1s   -0.44799     1 3d1+ -0.26434     1 3d2+  0.50097     1 3d1-  0.28898
                                    2 1s   -0.61010     2 1s    0.98391     2 2px  -0.51047     2 2py   0.36030     2 2pz   0.27748
                                    2 3d0  -0.38021     2 3d2- -0.29059     2 3d1+ -0.33306     2 3d2+  0.29698     2 3d1-  0.27084
                                    3 1s    0.30261
   32.1     0.00000     2.34537     1 1s   -0.43522     1 2px  -0.25559     1 2py   0.41091     1 3d0   0.65342     1 3d2- -0.26888
                                    2 1s    0.41005     2 2py  -0.27731     2 3d0   0.29845     2 3d2- -0.44538     2 3d1- -0.47441
                                    4 1s    0.46795     5 1s    0.33935     6 1s   -0.38866
   33.1     0.00000     2.56994     1 2py   0.32459     1 3d2- -0.65288     1 3d1- -0.47771     2 1s    0.29098     2 3d2-  0.27595
                                    2 3d1-  0.64253     3 1s   -0.56316     4 1s    0.40465     5 1s   -0.36999     6 1s    0.37946
   34.1     0.00000     2.63874     1 1s    0.35558     1 2py  -0.45134     1 3d2- -0.26895     1 3d2+ -0.55443     1 3d1-  0.59068
                                    2 3d2- -0.53029     2 3d2+ -0.48009     2 3d1-  0.39118     4 1s   -0.46777
   35.1     0.00000     2.71694     1 3d0  -0.39467     1 3d2- -0.49475     1 3d1+  0.48538     2 3d0  -0.43774     2 3d2- -0.50631
                                    2 3d1+  0.51433     2 3d1- -0.26279     3 1s   -0.44905     6 1s   -0.49034
   36.1     0.00000     2.95981     1 1s   -1.72321     1 2px  -0.44129     1 2px  -0.87531     1 2pz   0.43923     1 3d2-  0.33202
                                    1 3d1+  0.70432     1 3d2+ -0.66405     2 1s    1.71499     2 2px  -0.43145     2 2px  -0.87324
                                    2 2py   0.25619     2 2pz   0.44242     2 3d2- -0.35947     2 3d1+ -0.68449     2 3d2+  0.62660


 HOMO      8.1    -0.364714 =      -9.9244eV
 LUMO      9.1     0.063404 =       1.7253eV
 LUMO-HOMO         0.428118 =      11.6497eV


 **********************************************************************************************************************************
 DATASETS  * FILE   NREC   LENGTH (MB)   RECORD NAMES
              1      19       31.13       500      610      700      900      950      970     1000      129      960     1100   
                                          VAR    BASINP    GEOM    SYMINP    ZMAT    AOBASIS   BASIS     P2S    ABASIS      S 
                                         1400     1410     1200     1210     1080     1600     1650     1300     1700   
                                           T        V       H0       H01     AOSYM     SMH    MOLCAS    ERIS     OPER   

              2       4        2.86       700     1000      520     2100   
                                         GEOM     BASIS   MCVARS     RHF  

 PROGRAMS   *        TOTAL    HF-SCF       INT
 CPU TIMES  *         0.45      0.13      0.20
 REAL TIME  *         1.28 SEC
 DISK USED  *        36.24 MB
 **********************************************************************************************************************************


 PROGRAM * MULTI (Direct Multiconfiguration SCF)       Authors: P.J. Knowles, H.-J. Werner (1984)


 Number of closed-shell orbitals:   7 (   7 )
 Number of active  orbitals:        2 (   2 )
 Number of external orbitals:      27 (  27 )

 State symmetry 1

 Number of electrons:     2    Spin symmetry=Singlet   Space symmetry=1
 Number of states:        3
 Number of CSFs:          3   (4 determinants, 4 intermediate states)

 Molecular orbitals read from record     2100.2  Type=RHF/CANONICAL (state 1.1)

 Wavefunction dump at record             2140.2

 Convergence thresholds  0.10E-01 (gradient)  0.10E-05 (energy)  0.10E-02 (step length)

 Weight factors for state symmetry  1:    0.33333   0.33333   0.33333

 Number of orbital rotations:      257   (    14 Core/Active    189 Core/Virtual   0 Active/Active     54 Active/Virtual)
 Total number of variables:        269

 Micro-Iterations solved by the two-step solver

 ITER. MIC  NCI  NEG     ENERGY(VAR)     ENERGY(PROJ)   ENERGY CHANGE     GRAD(0)  GRAD(ORB)   GRAD(CI)     STEP       TIME

   1    9    6    0     -77.67880897     -77.71332443   -0.03451546    0.15059328 0.00043340 0.00000000  0.23D+00      0.18
   2    6    5    0     -77.71266082     -77.71310617   -0.00044535    0.03308705 0.00005226 0.00000000  0.17D-01      0.27
   3    7    5    0     -77.71310835     -77.71310838   -0.00000003    0.00024530 0.00000001 0.00000000  0.20D-03      0.38
   4    4    3    0     -77.71310838     -77.71310838   -0.00000000    0.00000002 0.00000000 0.00000000  0.28D-07      0.45

 ** WVFN ****  CONVERGENCE REACHED, FINAL GRADIENT:  0.94D-13



 Results for state 1.1
 =====================

 !MCSCF STATE  1.1 Energy             -77.838814393588
 Nuclear energy                        32.29172023
 Kinetic energy                        77.77695136
 One electron energy                 -167.72548679
 Two electron energy                   57.59495216
 Virial ratio                           2.00079539

 !MCSCF STATE  1.1 Dipole moment       -0.22132101    -0.04451895     0.14779363
 Dipole moment /Debye                  -0.56250506    -0.11314847     0.37562932

 Results for state 2.1
 =====================

 !MCSCF STATE  2.1 Energy             -77.733582797628
 Nuclear energy                        32.29172023
 Kinetic energy                        77.85618824
 One electron energy                 -167.47269447
 Two electron energy                   57.44739144
 Virial ratio                           1.99842523

 !MCSCF STATE  2.1 Dipole moment        0.13386814    -0.07579775     0.05560994
 Dipole moment /Debye                   0.34023660    -0.19264606     0.14133711

 Results for state 3.1
 =====================

 !MCSCF STATE  3.1 Energy             -77.566927956555
 Nuclear energy                        32.29172023
 Kinetic energy                        77.92955174
 One electron energy                 -167.24330623
 Two electron energy                   57.38465804
 Virial ratio                           1.99534677

 !MCSCF STATE  3.1 Dipole moment        0.40918156    -0.07874281     0.06182050
 Dipole moment /Debye                   1.03996768    -0.20013114     0.15712175

 State-averaged charge density matrix saved on record  2140.2 (density set 1)

 !MCSCF expec         <1.1|DMX|1.1>    -0.221321014768 au =    -0.562505064713 Debye
 !MCSCF trans         <2.1|DMX|1.1>    -0.295278487071 au =    -0.750473897169 Debye
 !MCSCF expec         <2.1|DMX|2.1>     0.133868143101 au =     0.340236595143 Debye
 !MCSCF trans         <3.1|DMX|1.1>    -0.060936132172 au =    -0.154874054805 Debye
 !MCSCF trans         <3.1|DMX|2.1>    -0.357191532062 au =    -0.907830854058 Debye
 !MCSCF expec         <3.1|DMX|3.1>     0.409181562521 au =     1.039967675673 Debye

 !MCSCF expec         <1.1|DMY|1.1>    -0.044518948912 au =    -0.113148470176 Debye
 !MCSCF trans         <2.1|DMY|1.1>     0.106826125018 au =     0.271507142822 Debye
 !MCSCF expec         <2.1|DMY|2.1>    -0.075797754460 au =    -0.192646056781 Debye
 !MCSCF trans         <3.1|DMY|1.1>     0.007352406065 au =     0.018686728206 Debye
 !MCSCF trans         <3.1|DMY|2.1>     0.124910276251 au =     0.317469459915 Debye
 !MCSCF expec         <3.1|DMY|3.1>    -0.078742806217 au =    -0.200131141424 Debye

 !MCSCF expec         <1.1|DMZ|1.1>     0.147793625213 au =     0.375629321970 Debye
 !MCSCF trans         <2.1|DMZ|1.1>     0.371335352983 au =     0.943778506435 Debye
 !MCSCF expec         <2.1|DMZ|2.1>     0.055609937885 au =     0.141337105931 Debye
 !MCSCF trans         <3.1|DMZ|1.1>     0.023057248354 au =     0.058601841272 Debye
 !MCSCF trans         <3.1|DMZ|2.1>     0.433462946317 au =     1.101680755100 Debye
 !MCSCF expec         <3.1|DMZ|3.1>     0.061820499500 au =     0.157121745119 Debye


 NATURAL ORBITALS (state averaged)
 =================================

  Orbital  Occupation    Energy     Coefficients
    1.1     2.00000   -11.26258     2 1s    0.99597
    2.1     2.00000   -11.24814     1 1s    0.99589
    3.1     2.00000    -1.04692     1 1s    0.27973     2 1s    0.27755     2 1s    0.25384
    4.1     2.00000    -0.78340     1 1s   -0.30849     2 1s    0.32690
    5.1     2.00000    -0.62221     1 2py   0.33602     2 2py   0.26387
    6.1     2.00000    -0.55977     1 2px   0.27187     2 2px  -0.25663
    7.1     2.00000    -0.42937     1 2pz   0.32950     1 2pz   0.27514     2 2pz   0.30045     2 2pz   0.25817
    8.1     1.00000    -0.08444     1 1s    0.29619     1 2pz   0.40994     1 2pz   0.44204     2 2pz  -0.39134     2 2pz  -0.42586
    9.1     1.00000    -0.21881     1 2px  -0.31278     2 2px   0.27803     4 1s    0.26834     5 1s    0.30288
   10.1    -0.00000     0.21743     1 1s   -1.01984     1 2px   0.39961     1 2py   0.34170     1 2pz   0.25419     2 1s   -1.10353
                                    2 2px  -0.52203     2 2py  -0.41156     2 2pz  -0.45860     3 1s    0.46902     4 1s    0.95084
                                    5 1s    1.19360     6 1s    0.56036
   11.1    -0.00000     0.27980     1 1s    1.37550     1 2pz  -0.36070     2 1s   -1.66789     2 2py   0.55889     2 2pz  -0.49479
                                    3 1s   -1.10642     6 1s    1.69263
   12.1    -0.00000     0.30509     1 1s   -1.72269     1 2px   0.47869     1 2pz   0.60196     2 1s    0.37778     2 2py   0.26054
                                    2 2py   1.02094     3 1s    1.23599     4 1s    1.17265     5 1s   -1.28134     6 1s    0.79479
   13.1    -0.00000     0.32498     1 2py   0.31572     1 2py   1.47215     2 1s    1.02207     2 2px   0.31593     2 2pz   0.47435
                                    3 1s   -1.49055     4 1s    1.56832     5 1s   -0.69710     6 1s   -0.87807
   14.1    -0.00000     0.42955     1 1s    1.94956     1 2px   1.79765     1 2py  -0.46786     1 2pz  -0.75316     2 1s   -1.89910
                                    2 2px   1.78591     2 2py  -0.60219     2 2pz  -0.74083     3 1s    0.51771     6 1s   -0.70516
   15.1    -0.00000     0.69997     1 2px  -0.55613     1 2px   0.83561     2 2px   0.51392     2 2px  -0.97719     4 1s   -0.43520
                                    5 1s   -0.52748     6 1s    0.29421
   16.1    -0.00000     0.75673     1 1s   -0.46880     1 2py  -0.41687     1 2px  -0.63716     1 2py   0.98470     2 1s    0.32077
                                    2 2py  -0.32249     2 2px  -0.67880     2 2py   0.61834     3 1s   -0.46177     4 1s    0.27819
                                    6 1s    0.50013
   17.1    -0.00000     0.78920     1 1s   -0.45516     1 2py   0.39816     1 2py  -0.89349     2 2py  -0.50515     2 2pz  -0.62913
                                    2 2py   1.08457     2 2pz   0.70228     5 1s   -0.35241
   18.1    -0.00000     0.80461     1 2py   0.36099     1 2pz   0.75889     1 2py  -0.79777     1 2pz  -0.80101     2 1s   -0.30285
                                    2 2py  -0.33483     2 2pz   0.43459     2 2py   0.62426     2 2pz  -0.41299     4 1s   -0.26461
                                    6 1s    0.25406
   19.1    -0.00000     0.86266     1 1s    0.30463     1 2px   0.29484     1 2pz   0.64456     1 2px  -0.48767     1 2py   0.48435
                                    1 2pz  -1.02146     2 1s    0.30905     2 2pz  -0.66787     2 2px   0.51215     2 2py  -0.63789
                                    2 2pz   0.99214     6 1s   -0.32384
   20.1    -0.00000     0.96811     1 2px   0.63671     1 2py   0.35735     1 2px  -0.96691     1 2py  -0.89115     2 2px   0.76156
                                    2 2py   0.41049     2 2px  -1.03304     2 2py  -0.66693     4 1s   -0.98938     5 1s    0.97219
   21.1    -0.00000     1.06658     1 1s   -0.39121     1 1s    0.79811     1 2px   0.35480     1 2px  -0.36358     2 1s   -0.69032
                                    2 1s    1.15622     2 2py  -0.56435     2 2py   0.64347     2 2pz   0.27132     4 1s   -0.41141
                                    5 1s    0.95794     5 1s   -1.53051
   22.1    -0.00000     1.13504     1 1s   -0.39798     1 1s    0.89760     1 2py   0.67759     1 2px   0.36242     1 2py  -1.00707
                                    2 1s   -0.36532     2 1s    0.42407     2 2px  -0.50266     2 2py   0.43034     2 2px   0.77538
                                    2 2py  -0.71559     3 1s   -0.29368     3 1s    0.79577     4 1s    0.61947     4 1s   -1.18428
                                    6 1s    0.53404     6 1s   -1.21688
   23.1    -0.00000     1.16058     1 1s   -0.34300     1 2px   0.37375     1 2py   0.25413     1 2px  -0.98250     2 1s    0.27340
                                    2 2px  -0.89712     2 2py   0.43552     3 1s    0.37305     3 1s   -0.64995     4 1s    0.86280
                                    4 1s   -1.07506     5 1s   -0.30692     5 1s    0.37105     6 1s   -0.54054     6 1s    1.03797
   24.1    -0.00000     1.19607     1 1s   -0.30461     1 2px   0.35832     1 2py  -0.41496     1 2px  -0.66321     1 2py   0.53361
                                    2 1s   -0.63246     2 1s    1.46988     2 2px  -0.29248     3 1s    0.93400     3 1s   -1.14927
                                    6 1s    0.63555     6 1s   -0.70249
   25.1    -0.00000     1.24580     1 1s   -1.95941     1 1s    4.44885     1 2py   0.33280     1 2pz  -1.34627     2 1s   -0.37843
                                    2 1s   -0.31138     2 2px   1.15790     2 2py  -0.61048     2 2pz   0.36575     3 1s   -1.32285
                                    4 1s   -0.32471     4 1s   -0.54464     5 1s   -0.30486     6 1s   -0.26274     6 1s   -0.59065
   26.1    -0.00000     1.28202     1 1s    0.85685     1 1s   -3.42720     1 2px  -1.29440     1 2py   0.99086     1 2pz   0.55586
                                    2 1s   -1.90895     2 1s    5.31145     2 2px  -0.78915     2 2py   0.28035     2 2pz   1.55881
                                    4 1s    0.39190     5 1s   -0.44983     5 1s   -0.66038     6 1s   -0.34018     6 1s   -0.79476
   27.1    -0.00000     1.69652     1 1s   -0.39467     1 3d0  -0.31930     1 3d2-  0.29013     1 3d2+  0.34540     2 1s    0.71969
                                    2 2pz   0.25745     2 3d0   0.35015     2 3d2- -0.30342     2 3d2+ -0.32606
   28.1    -0.00000     1.90782     1 2px   0.30135     1 3d1+  0.45347     1 3d2+  0.27137     1 3d1-  0.51403     2 1s    0.39087
                                    2 1s   -1.10337     2 2pz  -0.45130     2 3d0   0.45489     2 3d2+  0.25308     6 1s    0.41424
   29.1    -0.00000     1.94540     1 1s    0.37306     1 1s   -1.39660     1 2pz   0.37275     2 1s    0.97653     2 2px  -0.30033
                                    2 3d0   0.28352     2 3d2- -0.28004     2 3d1+  0.53536     2 3d2+  0.42249     2 3d1-  0.40030
                                    3 1s    0.29359
   30.1    -0.00000     2.17622     1 1s    0.51778     1 1s   -1.66995     1 2px  -0.34595     1 2pz   0.51455     1 3d0   0.48698
                                    1 3d2-  0.30336     1 3d1+  0.40818     2 1s    1.15160     2 2px  -0.29530     2 2py   0.28335
                                    2 3d0  -0.44042     2 3d2+ -0.37027     3 1s    0.39059     5 1s   -0.35200
   31.1    -0.00000     2.26174     1 1s   -0.31900     1 1s   -0.47177     1 2px  -0.25166     1 3d1+ -0.25006     1 3d2+  0.50443
                                    1 3d1-  0.27741     2 1s   -0.60640     2 1s    1.00300     2 2px  -0.52047     2 2py   0.36142
                                    2 2pz   0.28035     2 3d0  -0.39405     2 3d2- -0.28739     2 3d1+ -0.34003     2 3d2+  0.29660
                                    2 3d1-  0.26585     3 1s    0.29238
   32.1    -0.00000     2.34110     1 1s   -0.50361     1 2px  -0.26928     1 2py   0.42009     1 3d0   0.66671     1 3d2- -0.25123
                                    2 1s    0.45128     2 2py  -0.28005     2 3d0   0.27006     2 3d2- -0.45535     2 3d1- -0.48961
                                    4 1s    0.45922     5 1s    0.32873     6 1s   -0.41654
   33.1    -0.00000     2.56631     1 2py   0.31278     1 3d0   0.25503     1 3d2- -0.66273     1 3d1- -0.45720     2 1s    0.27927
                                    2 3d2-  0.25718     2 3d1-  0.64836     3 1s   -0.56165     4 1s    0.38179     5 1s   -0.36600
                                    6 1s    0.37469
   34.1    -0.00000     2.63245     1 1s    0.37744     1 2py  -0.47024     1 3d2- -0.26460     1 3d2+ -0.54888     1 3d1-  0.61095
                                    2 3d2- -0.55466     2 3d2+ -0.46293     2 3d1-  0.35730     4 1s   -0.47266
   35.1    -0.00000     2.72113     1 3d0  -0.40528     1 3d2- -0.49914     1 3d1+  0.48833     2 3d0  -0.43873     2 3d2- -0.46768
                                    2 3d1+  0.52024     2 3d1- -0.26102     3 1s   -0.46686     6 1s   -0.47014
   36.1    -0.00000     2.95664     1 1s   -1.74760     1 2px  -0.43226     1 2px  -0.88780     1 2pz   0.44645     1 3d2-  0.32743
                                    1 3d1+  0.71772     1 3d2+ -0.66401     2 1s    1.73606     2 2px  -0.42847     2 2px  -0.87894
                                    2 2py   0.25816     2 2pz   0.44669     2 3d2- -0.36078     2 3d1+ -0.67564     2 3d2+  0.62126


 Natural orbital dump (state averaged) at molpro section  2140.2    (Orbital set 2)



 **********************************************************************************************************************************
 DATASETS  * FILE   NREC   LENGTH (MB)   RECORD NAMES
              1      20       31.86       500      610      700      900      950      970     1000      129      960     1100   
                                          VAR    BASINP    GEOM    SYMINP    ZMAT    AOBASIS   BASIS     P2S    ABASIS      S 
                                         1400     1410     1200     1210     1080     1600     1650     1300     1700     1380   
                                           T        V       H0       H01     AOSYM     SMH    MOLCAS    ERIS     OPER     JKOP   

              2       5        5.42       700     1000      520     2100     2140   
                                         GEOM     BASIS   MCVARS     RHF     MCSCF   

 PROGRAMS   *        TOTAL     MULTI    HF-SCF       INT
 CPU TIMES  *         0.95      0.49      0.13      0.20
 REAL TIME  *         1.83 SEC
 DISK USED  *        39.04 MB
 **********************************************************************************************************************************
 Molecular orbitals read from record     2140.2  Type=MCSCF/NATURAL (state averaged)
 Occupation numbers read from record     2140.2  Type=MCSCF/NATURAL (state averaged)
 Orbital energies read from record       2140.2  Type=MCSCF/NATURAL (state averaged)
 Redundancy group numbers read from rec  2140.2  Type=MCSCF/NATURAL (state averaged)

 MULTI/6-31G* energy=    -77.566927956555

           MULTI          HF-SCF
    -77.56692796    -77.84423324
 **********************************************************************************************************************************
 Molpro calculation terminated
