
 Primary working directories    : /scratch.local/johan406.molpro_temp/molpro.IIk7ZEcNG6
 Secondary working directories  : /scratch.local/johan406.molpro_temp/molpro.IIk7ZEcNG6
 Wavefunction directory         : /home/goodpast/johan406/wfu/
 Main file repository           : /scratch.local/johan406.molpro_temp/molpro.IIk7ZEcNG6/

 id        : roweumn

 Nodes     nprocs
 cn0391       1

 Using customized tuning parameters: mindgm=1; mindgv=20; mindgc=4; mindgr=1; noblas=0; minvec=7
 default implementation of scratch files=df  


 Variables initialized (934), CPU time= 0.01 sec
                                                                                 !leave this line blank
 
 gprint, orbitals=30
 memory, 125., m
 symmetry, nosym
 nelect=16
 basis=6-31g*
 
 geometry={
 C -0.624 0.1385 0.2936
 C 0.6379 -0.1867 -0.3641
 H -1.3007 0.8947 -0.1088
 H -0.9555 -0.8729 -0.1265
 H 0.9778 0.8096 0.088
 H 1.2424 -0.948 0.1407
 }
 
 hf
 {multi,
 closed 7
 occ 9
 wf,spin=0;STATE,3
 }
 
 Commands  initialized (763), CPU time= 0.01 sec, 617 directives.
 Default parameters read. Elapsed time= 0.07 sec

 Checking input...
 Passed
1


                                         ***  PROGRAM SYSTEM MOLPRO  ***
                                       Copyright, TTI GmbH Stuttgart, 2015
                                    Version 2019.2 linked Oct 25 2019 22:50:27


 **********************************************************************************************************************************
 LABEL *                                                                                 
  64 bit serial version                                                                  DATE: 07-Feb-23          TIME: 15:06:43  
 **********************************************************************************************************************************

 SHA1:             8dbd9ae1082e4ce945b0f27595c9eb2d4aa09004
 **********************************************************************************************************************************


 Variable memory set to  125000000 words,  buffer space 

 SETTING NELECT         =        16.00000000                                  
 SETTING BASIS          =    6-31G*
 ZSYMEL=NOSYM


Geometry recognized as XYZ



 Recomputing integrals since basis changed


 Using spherical harmonics

 Library entry C      S 6-31G                selected for orbital group  1
 Library entry C      P 6-31G                selected for orbital group  1
 Library entry C      D 6-31G*               selected for orbital group  1
 Library entry H      S 6-31G                selected for orbital group  2


 PROGRAM * SEWARD (Integral evaluation for generally contracted gaussian basis sets)     Author: Roland Lindh, 1990

 Geometry written to block  1 of record 700


 Point group  C1  



 ATOMIC COORDINATES

 NR  ATOM    CHARGE       X              Y              Z

   1  C       6.00   -1.179189102    0.261727068    0.554823590
   2  C       6.00    1.205456295   -0.352811867   -0.688049282
   3  H       1.00   -2.457966770    1.690737964   -0.205602202
   4  H       1.00   -1.805633312   -1.649541934   -0.239050355
   5  H       1.00    1.847774205    1.529922270    0.166295899
   6  H       1.00    2.347795737   -1.791460366    0.265884466

 Bond lengths in Bohr (Angstrom)

 1-2  2.758427949  1-3  2.062908590  1-4  2.162317597  2-5  2.164986332  2-6  2.069936835
     ( 1.459697208)     ( 1.091644214)     ( 1.144249195)     ( 1.145661429)     ( 1.095363401)

 Bond angles

  1-2-5   83.39270315   1-2-6  115.10531692   2-1-3  121.60969596   2-1-4   83.57565007

  3-1-4  107.29959476   5-2-6  104.99988197

 NUCLEAR CHARGE:                   16
 NUMBER OF PRIMITIVE AOS:          72
 NUMBER OF SYMMETRY AOS:           70
 NUMBER OF CONTRACTIONS:           36   (   36A   )
 NUMBER OF CORE ORBITALS:           2   (    2A   )
 NUMBER OF VALENCE ORBITALS:       12   (   12A   )


 NUCLEAR REPULSION ENERGY   32.35570727

 Eigenvalues of metric

         1 0.921E-02 0.276E-01 0.594E-01 0.645E-01 0.806E-01 0.218E+00 0.237E+00 0.273E+00


 Contracted 2-electron integrals neglected if value below      1.0D-11
 AO integral compression algorithm  1   Integral accuracy      1.0D-11

     1.573 MB (compressed) written to integral file ( 59.2%)


 NUMBER OF SORTED TWO-ELECTRON INTEGRALS:     222111.     BUFFER LENGTH:  32768
 NUMBER OF SEGMENTS:   1  SEGMENT LENGTH:     222111      RECORD LENGTH: 524288

 Memory used in sort:       0.78 MW

 SORT1 READ      284735. AND WROTE      212531. INTEGRALS IN      1 RECORDS. CPU TIME:     0.00 SEC, REAL TIME:     0.00 SEC
 SORT2 READ      212531. AND WROTE      222111. INTEGRALS IN      6 RECORDS. CPU TIME:     0.02 SEC, REAL TIME:     0.02 SEC

 FILE SIZES:   FILE 1:    31.7 MBYTE,  FILE 4:     4.2 MBYTE,   TOTAL:     35.9 MBYTE

 OPERATOR DM      FOR CENTER  0  COORDINATES:    0.000000    0.000000    0.000000


 **********************************************************************************************************************************
 DATASETS  * FILE   NREC   LENGTH (MB)   RECORD NAMES
              1      19       31.13       500      610      700      900      950      970     1000      129      960     1100   
                                          VAR    BASINP    GEOM    SYMINP    ZMAT    AOBASIS   BASIS     P2S    ABASIS      S 
                                         1400     1410     1200     1210     1080     1600     1650     1300     1700   
                                           T        V       H0       H01     AOSYM     SMH    MOLCAS    ERIS     OPER   

 PROGRAMS   *        TOTAL       INT
 CPU TIMES  *         0.35      0.26
 REAL TIME  *         0.70 SEC
 DISK USED  *        36.24 MB
 **********************************************************************************************************************************


 PROGRAM * RHF-SCF (CLOSED SHELL)       Authors: W. Meyer, H.-J. Werner


 NUMBER OF ELECTRONS:       8+    8-    SPACE SYMMETRY=1    SPIN SYMMETRY: Singlet 
 CONVERGENCE THRESHOLDS:    1.00E-05 (Density)    1.00E-07 (Energy)
 MAX. NUMBER OF ITERATIONS:       60
 INTERPOLATION TYPE:            DIIS
 INTERPOLATION STEPS:              2 (START)      1 (STEP)
 LEVEL SHIFTS:                  0.00 (CLOSED)  0.00 (OPEN) 



 Orbital guess generated from atomic densities. Full valence occupancy:    8

 Molecular orbital dump at record        2100.2

 Initial occupancy:   8

 ITERATION    DDIFF          GRAD             ENERGY        2-EL.EN.            DIPOLE MOMENTS         DIIS   ORB.
    1      0.000D+00      0.000D+00       -77.82746189    115.917843   -0.07562    0.01059    0.09006    0    start
    2      0.000D+00      0.705D-02       -77.84544156    114.898396   -0.05452    0.00213    0.03955    1    diag
    3      0.756D-02      0.230D-02       -77.84752264    115.312876   -0.08469    0.01879    0.08167    2    diag
    4      0.297D-02      0.898D-03       -77.84797949    115.193231   -0.06770    0.00628    0.05210    3    diag
    5      0.162D-02      0.365D-03       -77.84808200    115.187208   -0.08191    0.01463    0.07185    4    diag
    6      0.623D-03      0.239D-03       -77.84815638    115.195077   -0.07856    0.01126    0.06535    5    diag
    7      0.650D-03      0.101D-03       -77.84818528    115.196300   -0.07962    0.01121    0.06628    6    diag
    8      0.516D-03      0.292D-04       -77.84818740    115.197322   -0.07948    0.01124    0.06619    7    diag
    9      0.144D-03      0.863D-05       -77.84818754    115.197515   -0.07936    0.01125    0.06617    8    diag
   10      0.365D-04      0.251D-05       -77.84818755    115.197488   -0.07929    0.01126    0.06613    9    orth
   11      0.719D-05      0.595D-06       -77.84818755    115.197493   -0.07929    0.01127    0.06614    0    orth

 Final occupancy:   8

 !RHF STATE  1.1 Energy               -77.848187552474
 Nuclear energy                        32.35570727
 One-electron energy                 -167.80264131
 Two-electron energy                   57.59874649
 Virial quotient                       -1.00127471
 !RHF STATE  1.1 Dipole moment         -0.07928856     0.01126741     0.06613588
 Dipole moment /Debye                  -0.20151821     0.02863701     0.16808962

 ELECTRON ORBITALS
 =================

  Orbital  Occupation    Energy     Coefficients
    1.1     2.00000   -11.26310     1 1s    0.99427
    2.1     2.00000   -11.25638     2 1s    0.99431
    3.1     2.00000    -1.03721     1 1s    0.28543     2 1s    0.28040
    4.1     2.00000    -0.78401     1 1s   -0.29403     2 1s    0.29180
    5.1     2.00000    -0.62194     1 2py   0.32206     2 2py   0.29310
    6.1     2.00000    -0.56069     1 2px  -0.29911     2 2px   0.29759
    7.1     2.00000    -0.39199     1 2pz   0.29766     1 2pz   0.27971     2 2pz   0.31804     2 2pz   0.28957
    8.1     2.00000    -0.38726     1 2px  -0.26371     2 2px   0.28055     4 1s    0.28083     5 1s    0.29016
    9.1     0.00000     0.06333     1 1s    0.40194     1 2pz   0.33702     1 2pz   0.47968     2 1s    0.39398     2 2pz  -0.32378
                                    2 2pz  -0.45763
   10.1     0.00000     0.23146     1 1s   -1.03189     1 2px   0.50940     1 2py   0.38830     1 2pz   0.39309     2 1s   -1.15825
                                    2 2px  -0.45334     2 2py  -0.34766     2 2pz  -0.47227     3 1s    0.53689     4 1s    1.10796
                                    5 1s    1.06588     6 1s    0.60655
   11.1     0.00000     0.28141     1 1s   -1.62436     1 2py  -0.38624     1 2pz   0.46052     2 1s    1.48733     2 2py  -0.33075
                                    2 2pz   0.45265     3 1s    1.51435     6 1s   -1.36966
   12.1     0.00000     0.31287     1 1s   -0.64650     1 2px   0.42445     1 2py  -1.00415     1 2pz   0.39416     2 1s   -0.84389
                                    2 2px  -0.36458     2 2py   1.01930     2 2pz  -0.50987     3 1s    1.50107     4 1s   -0.44285
                                    5 1s   -0.41108     6 1s    1.60465
   13.1     0.00000     0.33523     1 1s    1.03857     1 2px  -0.27161     1 2py  -0.75897     1 2pz  -0.30216     2 1s   -1.07249
                                    2 2px  -0.29552     2 2py  -0.75954     2 2pz  -0.33795     4 1s   -1.68058     5 1s    1.71262
   14.1     0.00000     0.42347     1 1s    1.99048     1 2px   1.80457     1 2py  -0.65980     1 2pz  -0.79515     2 1s   -2.08492
                                    2 2px   1.76230     2 2py  -0.60493     2 2pz  -0.79022     3 1s    0.70983     6 1s   -0.53997
   15.1     0.00000     0.70266     1 2px   0.53808     1 2px  -0.94848     2 2px  -0.55940     2 2px   0.90355     3 1s   -0.27039
                                    4 1s    0.42042     5 1s    0.43309
   16.1     0.00000     0.75832     1 1s   -0.25696     1 2py  -0.27042     1 2px  -0.65831     1 2py   0.59349     2 1s    0.34522
                                    2 2py  -0.47078     2 2px  -0.55057     2 2py   0.95029     3 1s   -0.47538     5 1s   -0.30866
                                    6 1s    0.48383
   17.1     0.00000     0.78952     1 2py  -0.61280     1 2pz  -0.48572     1 2px  -0.26716     1 2py   1.34306     1 2pz   0.50141
                                    2 1s    0.39767     2 2py   0.47964     2 2py  -0.97168     4 1s    0.34749
   18.1     0.00000     0.80091     1 2pz  -0.61418     1 2py  -0.33224     1 2pz   0.57358     2 2pz  -0.77992     2 2py   0.44210
                                    2 2pz   0.74728
   19.1     0.00000     0.86498     1 1s   -0.36435     1 1s    0.28924     1 2px  -0.26528     1 2pz  -0.68385     1 2px   0.57819
                                    1 2py  -0.61533     1 2pz   0.91655     2 1s   -0.33979     2 2pz   0.68401     2 2px  -0.34336
                                    2 2py   0.48261     2 2pz  -0.99834     3 1s    0.27145
   20.1     0.00000     0.97318     1 2px   0.69361     1 2py   0.39177     1 2px  -1.14099     1 2py  -0.79439     2 1s    0.28171
                                    2 2px   0.73372     2 2py   0.34977     2 2px  -1.14895     2 2py  -0.75541     4 1s   -1.08474
                                    5 1s    1.00127
   21.1     0.00000     1.11914     1 1s   -0.67205     1 1s    1.28884     1 2py   0.45964     1 2py  -0.48753     2 1s   -0.67471
                                    2 1s    1.17312     2 2px  -0.32439     2 2py  -0.33344     2 2px   0.48634     2 2py   0.28099
                                    4 1s    0.65127     4 1s   -1.20981     5 1s    0.63565     5 1s   -1.15128
   22.1     0.00000     1.13549     1 2px   0.39879     1 2py  -0.52671     1 2px  -0.74918     1 2py   0.89861     2 1s    0.25108
                                    2 2px   0.36781     2 2py  -0.67094     2 2px  -0.64421     2 2py   1.00513     3 1s    0.42490
                                    3 1s   -1.15518     4 1s    0.52725     5 1s    0.39635     5 1s   -0.82340     6 1s   -0.57833
                                    6 1s    1.27156
   23.1     0.00000     1.17160     1 1s   -0.30271     1 2px   0.36279     1 2px  -0.85562     2 1s    0.55840     2 2px  -0.67959
                                    3 1s    0.79917     3 1s   -0.95648     4 1s    0.73215     4 1s   -0.70667     5 1s   -0.49890
                                    5 1s    0.69279
   24.1     0.00000     1.19560     1 1s   -0.38461     1 1s    0.77864     1 2py  -0.40182     1 2py   0.38051     2 1s   -0.90808
                                    2 1s    1.31197     2 2px  -0.26644     2 2pz  -0.32948     2 2px   0.56238     2 2py  -0.26853
                                    2 2pz   0.33674     3 1s    0.43880     3 1s   -0.72923     4 1s   -0.42959     4 1s    0.46912
                                    5 1s    0.34917     5 1s   -0.57137     6 1s    0.76771     6 1s   -1.30110
   25.1     0.00000     1.24468     1 1s   -1.92158     1 1s    4.42807     1 2pz  -1.37685     2 1s   -0.96124     2 2px   0.94685
                                    2 2py  -0.84993     3 1s   -1.13350     4 1s   -0.32200     4 1s   -0.78654     5 1s   -0.36386
                                    6 1s   -0.34506     6 1s   -0.41262
   26.1     0.00000     1.30753     1 1s    0.66733     1 1s   -3.18454     1 2px  -1.39639     1 2py   0.92970     1 2pz   0.50642
                                    2 1s   -1.93129     2 1s    5.48106     2 2px  -0.85619     2 2py   0.37197     2 2pz   1.63415
                                    4 1s    0.29909     5 1s   -0.50912     5 1s   -0.71073     6 1s   -0.39977     6 1s   -0.78711
   27.1     0.00000     1.69568     1 1s   -0.56841     1 3d0  -0.34858     1 3d2-  0.30143     1 3d2+  0.33249     2 1s    0.63247
                                    2 3d0   0.35147     2 3d2- -0.29131     2 3d2+ -0.31911
   28.1     0.00000     1.91799     1 2px   0.32302     1 3d0   0.32160     1 3d1+  0.40997     1 3d2+  0.36736     1 3d1-  0.40942
                                    2 1s    0.41707     2 1s   -1.11958     2 2pz  -0.48022     2 3d0   0.37296     2 3d1+  0.25277
                                    2 3d2+  0.29990     3 1s    0.25990     6 1s    0.29863     6 1s    0.28523
   29.1     0.00000     1.93976     1 1s    0.33719     1 1s   -1.43763     1 2pz   0.40147     1 3d2-  0.26933     1 3d1+ -0.30707
                                    1 3d1- -0.30616     2 1s   -0.25748     2 1s    1.19091     2 2px  -0.35742     2 2pz   0.27518
                                    2 3d2- -0.33671     2 3d1+  0.46555     2 3d2+  0.26230     2 3d1-  0.43217     3 1s    0.37805
                                    6 1s   -0.26346
   30.1     0.00000     2.17776     1 1s    1.51955     1 2px   0.29770     1 2pz  -0.40402     1 3d0  -0.50289     1 3d2+ -0.41135
                                    2 1s    0.42819     2 1s   -1.65367     2 2px   0.41847     2 2py  -0.31886     2 2pz  -0.44779
                                    2 3d0   0.61066     2 3d2+  0.29658     3 1s   -0.36943     4 1s   -0.31176     5 1s    0.32443
                                    6 1s    0.31847
   31.1     0.00000     2.25222     1 1s   -0.54968     1 1s    0.66434     1 2px   0.40698     1 2py  -0.27802     1 3d2- -0.29848
                                    1 3d1+ -0.41795     1 3d2+  0.34113     2 1s   -0.42361     2 2px   0.26866     2 3d2- -0.28963
                                    2 3d1+ -0.36133     2 3d2+  0.42578
   32.1     0.00000     2.34881     1 1s   -0.26575     1 2px  -0.29390     1 2py   0.42955     1 3d0   0.55034     1 3d2- -0.39789
                                    1 3d1- -0.39426     2 2py  -0.29313     2 3d0   0.46782     2 3d2- -0.34469     2 3d1- -0.32723
                                    3 1s   -0.27083     4 1s    0.45797     5 1s    0.34115     6 1s   -0.27960
   33.1     0.00000     2.58147     1 1s    0.31765     1 2py  -0.29991     1 3d2-  0.38786     1 3d1-  0.59652     2 2py  -0.28225
                                    2 3d2- -0.55664     2 3d1- -0.58328     3 1s    0.40882     4 1s   -0.43673     5 1s    0.37739
                                    6 1s   -0.54635
   34.1     0.00000     2.64573     1 2py  -0.29461     1 3d2- -0.50078     1 3d2+ -0.50536     1 3d1-  0.42710     2 2py   0.35329
                                    2 3d2- -0.36838     2 3d2+ -0.51260     2 3d1-  0.59382     4 1s   -0.31070     5 1s   -0.41011
   35.1     0.00000     2.71896     1 3d0  -0.42228     1 3d2- -0.50950     1 3d1+  0.53456     1 3d1- -0.28087     2 3d0  -0.40019
                                    2 3d2- -0.46229     2 3d1+  0.45369     3 1s   -0.52246     6 1s   -0.40969
   36.1     0.00000     2.96081     1 1s    1.70931     1 2px   0.43517     1 2px   0.86803     1 2pz  -0.43946     1 3d2- -0.36827
                                    1 3d1+ -0.67453     1 3d2+  0.64298     2 1s   -1.72344     2 2px   0.43403     2 2px   0.87541
                                    2 2pz  -0.43862     2 3d2-  0.32865     2 3d1+  0.71569     2 3d2+ -0.64551


 HOMO      8.1    -0.387257 =     -10.5378eV
 LUMO      9.1     0.063326 =       1.7232eV
 LUMO-HOMO         0.450582 =      12.2610eV


 **********************************************************************************************************************************
 DATASETS  * FILE   NREC   LENGTH (MB)   RECORD NAMES
              1      19       31.13       500      610      700      900      950      970     1000      129      960     1100   
                                          VAR    BASINP    GEOM    SYMINP    ZMAT    AOBASIS   BASIS     P2S    ABASIS      S 
                                         1400     1410     1200     1210     1080     1600     1650     1300     1700   
                                           T        V       H0       H01     AOSYM     SMH    MOLCAS    ERIS     OPER   

              2       4        2.86       700     1000      520     2100   
                                         GEOM     BASIS   MCVARS     RHF  

 PROGRAMS   *        TOTAL    HF-SCF       INT
 CPU TIMES  *         0.51      0.16      0.26
 REAL TIME  *         0.99 SEC
 DISK USED  *        36.24 MB
 **********************************************************************************************************************************


 PROGRAM * MULTI (Direct Multiconfiguration SCF)       Authors: P.J. Knowles, H.-J. Werner (1984)


 Number of closed-shell orbitals:   7 (   7 )
 Number of active  orbitals:        2 (   2 )
 Number of external orbitals:      27 (  27 )

 State symmetry 1

 Number of electrons:     2    Spin symmetry=Singlet   Space symmetry=1
 Number of states:        3
 Number of CSFs:          3   (4 determinants, 4 intermediate states)

 Molecular orbitals read from record     2100.2  Type=RHF/CANONICAL (state 1.1)

 Wavefunction dump at record             2140.2

 Convergence thresholds  0.10E-01 (gradient)  0.10E-05 (energy)  0.10E-02 (step length)

 Weight factors for state symmetry  1:    0.33333   0.33333   0.33333

 Number of orbital rotations:      257   (    14 Core/Active    189 Core/Virtual   0 Active/Active     54 Active/Virtual)
 Total number of variables:        269

 Micro-Iterations solved by the two-step solver

 ITER. MIC  NCI  NEG     ENERGY(VAR)     ENERGY(PROJ)   ENERGY CHANGE     GRAD(0)  GRAD(ORB)   GRAD(CI)     STEP       TIME

   1   12    6    0     -77.69112822     -77.71096435   -0.01983613    0.16708726 0.00178390 0.00000000  0.14D+00      0.16
   2    7    5    0     -77.71065594     -77.71067899   -0.00002305    0.00707202 0.00000696 0.00000000  0.49D-02      0.26
   3    5    4    0     -77.71067903     -77.71067903   -0.00000000    0.00001547 0.00000000 0.00000000  0.21D-04      0.33

 ** WVFN ****  CONVERGENCE REACHED, FINAL GRADIENT:  0.28D-09



 Results for state 1.1
 =====================

 !MCSCF STATE  1.1 Energy             -77.841805334494
 Nuclear energy                        32.35570727
 Kinetic energy                        77.80461226
 One electron energy                 -167.87879617
 Two electron energy                   57.68128357
 Virial ratio                           2.00047803

 !MCSCF STATE  1.1 Dipole moment       -0.08496623     0.01195677     0.07425314
 Dipole moment /Debye                  -0.21594847     0.03038908     0.18872031

 Results for state 2.1
 =====================

 !MCSCF STATE  2.1 Energy             -77.738373751984
 Nuclear energy                        32.35570727
 Kinetic energy                        77.88043379
 One electron energy                 -167.57503573
 Two electron energy                   57.48095471
 Virial ratio                           1.99817592

 !MCSCF STATE  2.1 Dipole moment       -0.05803149     0.01151215     0.05765543
 Dipole moment /Debye                  -0.14749168     0.02925906     0.14653589

 Results for state 3.1
 =====================

 !MCSCF STATE  3.1 Energy             -77.551857995017
 Nuclear energy                        32.35570727
 Kinetic energy                        77.94201248
 One electron energy                 -167.31768262
 Two electron energy                   57.41011736
 Virial ratio                           1.99499430

 !MCSCF STATE  3.1 Dipole moment       -0.02948854     0.01406995     0.04417755
 Dipole moment /Debye                  -0.07494748     0.03575989     0.11228078

 State-averaged charge density matrix saved on record  2140.2 (density set 1)

 !MCSCF expec         <1.1|DMX|1.1>    -0.084966231197 au =    -0.215948473885 Debye
 !MCSCF trans         <2.1|DMX|1.1>     0.004549198266 au =     0.011562151328 Debye
 !MCSCF expec         <2.1|DMX|2.1>    -0.058031492328 au =    -0.147491680270 Debye
 !MCSCF trans         <3.1|DMX|1.1>    -0.002353386746 au =    -0.005981320687 Debye
 !MCSCF trans         <3.1|DMX|2.1>     0.002865440983 au =     0.007282747493 Debye
 !MCSCF expec         <3.1|DMX|3.1>    -0.029488539560 au =    -0.074947482375 Debye

 !MCSCF expec         <1.1|DMY|1.1>     0.011956767149 au =     0.030389080252 Debye
 !MCSCF trans         <2.1|DMY|1.1>     0.006548372260 au =     0.016643211968 Debye
 !MCSCF expec         <2.1|DMY|2.1>     0.011512154624 au =     0.029259061949 Debye
 !MCSCF trans         <3.1|DMY|1.1>     0.000402735021 au =     0.001023583274 Debye
 !MCSCF trans         <3.1|DMY|2.1>     0.007118964552 au =     0.018093417927 Debye
 !MCSCF expec         <3.1|DMY|3.1>     0.014069945003 au =     0.035759890820 Debye

 !MCSCF expec         <1.1|DMZ|1.1>     0.074253143773 au =     0.188720305151 Debye
 !MCSCF trans         <2.1|DMZ|1.1>     0.006185972295 au =     0.015722143467 Debye
 !MCSCF expec         <2.1|DMZ|2.1>     0.057655429146 au =     0.146535885608 Debye
 !MCSCF trans         <3.1|DMZ|1.1>     0.001944066366 au =     0.004941000193 Debye
 !MCSCF trans         <3.1|DMZ|2.1>     0.007960215227 au =     0.020231523815 Debye
 !MCSCF expec         <3.1|DMZ|3.1>     0.044177550740 au =     0.112280779410 Debye


 NATURAL ORBITALS (state averaged)
 =================================

  Orbital  Occupation    Energy     Coefficients
    1.1     2.00000   -11.25573     1 1s    0.98542
    2.1     2.00000   -11.25317     2 1s    0.98546
    3.1     2.00000    -1.04991     1 1s    0.27868     2 1s    0.27701
    4.1     2.00000    -0.78477     1 1s   -0.32080     2 1s    0.31579
    5.1     2.00000    -0.62475     1 2py   0.31102     2 2py   0.29166
    6.1     2.00000    -0.55914     1 2px  -0.25866     2 2px   0.25841     2 2py  -0.25202
    7.1     2.00000    -0.41942     1 2pz   0.31890     1 2pz   0.27766     2 2pz   0.33025     2 2pz   0.28259
    8.1     1.00000    -0.08680     1 1s    0.26836     1 2pz   0.41220     1 2pz   0.43742     2 1s    0.26636     2 2pz  -0.39628
                                    2 2pz  -0.42165
    9.1     1.00000    -0.23086     1 2px  -0.30837     2 2px   0.31124     4 1s    0.29250     5 1s    0.29614
   10.1    -0.00000     0.21946     1 1s   -1.03995     1 2px   0.50011     1 2py   0.40081     1 2pz   0.33495     2 1s   -1.16633
                                    2 2px  -0.45442     2 2py  -0.36557     2 2pz  -0.41429     3 1s    0.50488     4 1s    1.10877
                                    5 1s    1.08482     6 1s    0.57457
   11.1    -0.00000     0.28053     1 1s   -1.70126     1 2py  -0.29902     1 2pz   0.46444     2 1s    1.59281     2 2py  -0.28812
                                    2 2pz   0.48506     3 1s    1.47058     6 1s   -1.39428
   12.1    -0.00000     0.31532     1 1s   -0.81999     1 2px   0.43568     1 2py  -0.93258     1 2pz   0.40407     2 1s   -0.77354
                                    2 2px  -0.35254     2 2py   1.06946     2 2pz  -0.44674     3 1s    1.53353     4 1s   -0.25956
                                    5 1s   -0.50823     6 1s    1.59846
   13.1    -0.00000     0.31957     1 1s    0.97332     1 2py  -0.92804     1 2pz  -0.28488     2 1s   -1.14267     2 2py  -0.75066
                                    2 2pz  -0.38263     3 1s    0.29691     4 1s   -1.72533     5 1s    1.68311
   14.1    -0.00000     0.42962     1 1s    1.85210     1 2px   1.81454     1 2py  -0.55241     1 2pz  -0.73845     2 1s   -1.94503
                                    2 2px   1.77537     2 2py  -0.50012     2 2pz  -0.73096     3 1s    0.70963     6 1s   -0.54221
   15.1    -0.00000     0.69926     1 2px   0.52207     1 2px  -0.91949     2 2px  -0.54607     2 2px   0.88716     3 1s   -0.26726
                                    4 1s   -0.26587     4 1s    0.48134     5 1s    0.48634
   16.1    -0.00000     0.75495     1 1s   -0.36448     1 2px  -0.68201     1 2py   0.56360     2 1s    0.43863     2 2py  -0.47343
                                    2 2px  -0.60877     2 2py   1.00188     3 1s   -0.46113     5 1s   -0.33498     6 1s    0.48631
   17.1    -0.00000     0.78915     1 2py  -0.59076     1 2pz  -0.48207     1 2px  -0.33645     1 2py   1.34962     1 2pz   0.58914
                                    2 1s    0.44470     2 2py   0.44713     2 2py  -0.91495     4 1s    0.35834
   18.1    -0.00000     0.80104     1 1s   -0.38369     1 2pz  -0.60512     1 2py  -0.31219     1 2pz   0.60617     2 2pz  -0.78130
                                    2 2py   0.44285     2 2pz   0.83477     3 1s    0.25755
   19.1    -0.00000     0.86311     1 1s   -0.32183     1 2px  -0.27791     1 2pz  -0.66438     1 2px   0.61781     1 2py  -0.62553
                                    1 2pz   0.97508     2 1s   -0.29704     2 2pz   0.65252     2 2px  -0.37734     2 2py   0.49094
                                    2 2pz  -1.04681     3 1s    0.32281
   20.1    -0.00000     0.97976     1 2px   0.69150     1 2py   0.39836     1 2px  -1.06391     1 2py  -0.81224     2 2px   0.72972
                                    2 2py   0.35459     2 2px  -1.06444     2 2py  -0.77320     4 1s   -1.04655     5 1s    0.96385
   21.1    -0.00000     1.09353     1 1s   -0.63575     1 1s    1.16146     1 2py   0.42910     1 2px  -0.31660     1 2py  -0.43798
                                    2 1s   -0.65561     2 1s    1.17975     2 2px  -0.31603     2 2py  -0.40707     2 2px   0.40446
                                    2 2py   0.41895     4 1s    0.65456     4 1s   -1.13763     5 1s    0.66519     5 1s   -1.18062
   22.1    -0.00000     1.12153     1 2py  -0.56249     1 2py   0.81069     2 2px   0.26385     2 2py  -0.63661     2 2py   0.81505
                                    3 1s   -0.61644     4 1s   -0.66642     4 1s    1.01883     5 1s    0.63679     5 1s   -1.11549
                                    6 1s   -0.34742     6 1s    0.76047
   23.1    -0.00000     1.15532     1 1s   -0.43190     1 2px   0.45986     1 2px  -1.10970     1 2py   0.50895     2 1s    0.29204
                                    2 2px   0.32060     2 2px  -1.10515     2 2py   0.57761     3 1s    0.75792     3 1s   -1.20359
                                    4 1s    0.52325     4 1s   -0.37498     5 1s   -0.34299     5 1s    0.39614     6 1s   -0.41128
                                    6 1s    1.10536
   24.1    -0.00000     1.19507     1 1s   -0.25986     1 2px   0.27319     1 2py  -0.35937     1 2px  -0.26652     1 2py   0.36415
                                    2 1s   -0.82191     2 1s    1.44312     2 2px  -0.25861     2 2py   0.27285     3 1s    0.68995
                                    3 1s   -0.83049     4 1s    0.27566     6 1s    0.82859     6 1s   -1.19331
   25.1    -0.00000     1.23713     1 1s   -1.95874     1 1s    4.41690     1 2pz  -1.34667     2 1s   -0.56269     2 2px   0.96793
                                    2 2py  -0.81819     2 2pz   0.28158     3 1s   -1.24449     4 1s   -0.34767     4 1s   -0.73287
                                    5 1s   -0.29780     6 1s   -0.30085     6 1s   -0.53571
   26.1    -0.00000     1.29959     1 1s    0.73172     1 1s   -3.32332     1 2px  -1.40947     1 2py   0.91004     1 2pz   0.54300
                                    2 1s   -1.94953     2 1s    5.54236     2 2px  -0.89204     2 2py   0.37386     2 2pz   1.61733
                                    4 1s    0.29148     5 1s   -0.47796     5 1s   -0.72398     6 1s   -0.38773     6 1s   -0.78585
   27.1    -0.00000     1.69044     1 1s   -0.59506     1 3d0  -0.34168     1 3d2-  0.30485     1 3d2+  0.33384     2 1s    0.66246
                                    2 3d0   0.34564     2 3d2- -0.29619     2 3d2+ -0.32173
   28.1    -0.00000     1.91558     1 2px   0.31680     1 3d0   0.32278     1 3d1+  0.39379     1 3d2+  0.36985     1 3d1-  0.39629
                                    2 1s    0.39656     2 1s   -1.06044     2 2pz  -0.46286     2 3d0   0.37309     2 3d1+  0.26613
                                    2 3d2+  0.31744     3 1s    0.26114     6 1s    0.28981     6 1s    0.28084
   29.1    -0.00000     1.93623     1 1s    0.31958     1 1s   -1.39437     1 2pz   0.38344     1 3d2-  0.26807     1 3d1+ -0.32689
                                    1 3d1- -0.32009     2 1s   -0.26727     2 1s    1.19975     2 2px  -0.34576     2 2pz   0.28429
                                    2 3d2- -0.33684     2 3d1+  0.45755     2 3d2+  0.25371     2 3d1-  0.42242     3 1s    0.37386
                                    6 1s   -0.27560
   30.1    -0.00000     2.17775     1 1s    1.50206     1 2px   0.28688     1 2pz  -0.39699     1 3d0  -0.50427     1 3d2+ -0.41858
                                    2 1s    0.43494     2 1s   -1.63882     2 2px   0.41591     2 2py  -0.32259     2 2pz  -0.44078
                                    2 3d0   0.61382     2 3d2+  0.29310     3 1s   -0.36790     4 1s   -0.30825     5 1s    0.31609
                                    6 1s    0.31627
   31.1    -0.00000     2.24784     1 1s   -0.54621     1 1s    0.66869     1 2px  -0.25710     1 2px   0.39336     1 2py  -0.25474
                                    1 3d2- -0.31406     1 3d1+ -0.42338     1 3d2+  0.33478     2 1s   -0.41441     2 2px   0.27155
                                    2 3d2- -0.30214     2 3d1+ -0.37259     2 3d2+  0.42821
   32.1    -0.00000     2.34284     1 1s   -0.29506     1 2px  -0.31458     1 2py   0.44906     1 3d0   0.55385     1 3d2- -0.39184
                                    1 3d1- -0.40786     2 2py  -0.30580     2 3d0   0.46506     2 3d2- -0.33894     2 3d1- -0.34039
                                    3 1s   -0.28126     4 1s    0.44695     5 1s    0.32827     6 1s   -0.29601
   33.1    -0.00000     2.57584     1 1s    0.30503     1 2py  -0.30352     1 3d2-  0.38578     1 3d1-  0.60185     2 2py  -0.27865
                                    2 3d2- -0.56279     2 3d1- -0.57890     3 1s    0.41001     4 1s   -0.43007     5 1s    0.36529
                                    6 1s   -0.55004
   34.1    -0.00000     2.63758     1 2py  -0.29869     1 3d2- -0.51027     1 3d2+ -0.49943     1 3d1-  0.42484     2 2py   0.36051
                                    2 3d2- -0.36854     2 3d2+ -0.50728     2 3d1-  0.59986     4 1s   -0.30046     5 1s   -0.40226
   35.1    -0.00000     2.72390     1 3d0  -0.42976     1 3d2- -0.49878     1 3d1+  0.54157     1 3d1- -0.28230     2 3d0  -0.40827
                                    2 3d2- -0.45134     2 3d1+  0.45615     3 1s   -0.52139     6 1s   -0.40627
   36.1    -0.00000     2.95648     1 1s    1.73984     1 2px   0.42869     1 2px   0.88004     1 2pz  -0.44730     1 3d2- -0.36753
                                    1 3d1+ -0.67670     1 3d2+  0.64085     2 1s   -1.75306     2 2px   0.42793     2 2px   0.88731
                                    2 2py  -0.25396     2 2pz  -0.44659     2 3d2-  0.32511     2 3d1+  0.71906     2 3d2+ -0.64206


 Natural orbital dump (state averaged) at molpro section  2140.2    (Orbital set 2)



 **********************************************************************************************************************************
 DATASETS  * FILE   NREC   LENGTH (MB)   RECORD NAMES
              1      20       31.86       500      610      700      900      950      970     1000      129      960     1100   
                                          VAR    BASINP    GEOM    SYMINP    ZMAT    AOBASIS   BASIS     P2S    ABASIS      S 
                                         1400     1410     1200     1210     1080     1600     1650     1300     1700     1380   
                                           T        V       H0       H01     AOSYM     SMH    MOLCAS    ERIS     OPER     JKOP   

              2       5        5.42       700     1000      520     2100     2140   
                                         GEOM     BASIS   MCVARS     RHF     MCSCF   

 PROGRAMS   *        TOTAL     MULTI    HF-SCF       INT
 CPU TIMES  *         0.90      0.39      0.16      0.26
 REAL TIME  *         1.45 SEC
 DISK USED  *        39.04 MB
 **********************************************************************************************************************************
 Molecular orbitals read from record     2140.2  Type=MCSCF/NATURAL (state averaged)
 Occupation numbers read from record     2140.2  Type=MCSCF/NATURAL (state averaged)
 Orbital energies read from record       2140.2  Type=MCSCF/NATURAL (state averaged)
 Redundancy group numbers read from rec  2140.2  Type=MCSCF/NATURAL (state averaged)

 MULTI/6-31G* energy=    -77.551857995017

           MULTI          HF-SCF
    -77.55185800    -77.84818755
 **********************************************************************************************************************************
 Molpro calculation terminated
