
 Primary working directories    : /scratch.local/johan406.molpro_temp/molpro.USQwNymmmH
 Secondary working directories  : /scratch.local/johan406.molpro_temp/molpro.USQwNymmmH
 Wavefunction directory         : /home/goodpast/johan406/wfu/
 Main file repository           : /scratch.local/johan406.molpro_temp/molpro.USQwNymmmH/

 id        : roweumn

 Nodes     nprocs
 cn0391       1

 Using customized tuning parameters: mindgm=1; mindgv=20; mindgc=4; mindgr=1; noblas=0; minvec=7
 default implementation of scratch files=df  


 Variables initialized (934), CPU time= 0.00 sec
                                                                                 !leave this line blank
 
 gprint, orbitals=30
 memory, 125., m
 symmetry, nosym
 nelect=16
 basis=6-31g*
 
 geometry={
 C -0.6204 0.1397 0.2864
 C 0.6415 -0.1855 -0.3713
 H -1.3487 0.8923 -0.0428
 H -0.9459 -0.8825 -0.1109
 H 0.9874 0.8 0.1036
 H 1.1944 -0.9504 0.2067
 }
 
 hf
 {multi,
 closed 7
 occ 9
 wf,spin=0;STATE,3
 }
 
 Commands  initialized (763), CPU time= 0.01 sec, 617 directives.
 Default parameters read. Elapsed time= 0.07 sec

 Checking input...
 Passed
1


                                         ***  PROGRAM SYSTEM MOLPRO  ***
                                       Copyright, TTI GmbH Stuttgart, 2015
                                    Version 2019.2 linked Oct 25 2019 22:50:27


 **********************************************************************************************************************************
 LABEL *                                                                                 
  64 bit serial version                                                                  DATE: 07-Feb-23          TIME: 15:11:54  
 **********************************************************************************************************************************

 SHA1:             8dbd9ae1082e4ce945b0f27595c9eb2d4aa09004
 **********************************************************************************************************************************


 Variable memory set to  125000000 words,  buffer space 

 SETTING NELECT         =        16.00000000                                  
 SETTING BASIS          =    6-31G*
 ZSYMEL=NOSYM


Geometry recognized as XYZ



 Recomputing integrals since basis changed


 Using spherical harmonics

 Library entry C      S 6-31G                selected for orbital group  1
 Library entry C      P 6-31G                selected for orbital group  1
 Library entry C      D 6-31G*               selected for orbital group  1
 Library entry H      S 6-31G                selected for orbital group  2


 PROGRAM * SEWARD (Integral evaluation for generally contracted gaussian basis sets)     Author: Roland Lindh, 1990

 Geometry written to block  1 of record 700


 Point group  C1  



 ATOMIC COORDINATES

 NR  ATOM    CHARGE       X              Y              Z

   1  C       6.00   -1.172386088    0.263994740    0.541217562
   2  C       6.00    1.212259309   -0.350544196   -0.701655310
   3  H       1.00   -2.548673624    1.686202621   -0.080880278
   4  H       1.00   -1.787491941   -1.667683305   -0.209570627
   5  H       1.00    1.865915575    1.511780900    0.195775627
   6  H       1.00    2.257088883   -1.795995709    0.390606390

 Bond lengths in Bohr (Angstrom)

 1-2  2.758427949  1-3  2.074571851  1-4  2.161809007  2-5  2.168156720  2-6  2.091419264
     ( 1.459697208)     ( 1.097816146)     ( 1.143980061)     ( 1.147339126)     ( 1.106731413)

 Bond angles

  1-2-5   83.26766283   1-2-6  110.52052017   2-1-3  126.23719061   2-1-4   83.70919023

  3-1-4  108.64238263   5-2-6  103.11240034

 NUCLEAR CHARGE:                   16
 NUMBER OF PRIMITIVE AOS:          72
 NUMBER OF SYMMETRY AOS:           70
 NUMBER OF CONTRACTIONS:           36   (   36A   )
 NUMBER OF CORE ORBITALS:           2   (    2A   )
 NUMBER OF VALENCE ORBITALS:       12   (   12A   )


 NUCLEAR REPULSION ENERGY   32.30388303

 Eigenvalues of metric

         1 0.901E-02 0.286E-01 0.585E-01 0.647E-01 0.830E-01 0.221E+00 0.237E+00 0.273E+00


 Contracted 2-electron integrals neglected if value below      1.0D-11
 AO integral compression algorithm  1   Integral accuracy      1.0D-11

     1.573 MB (compressed) written to integral file ( 59.1%)


 NUMBER OF SORTED TWO-ELECTRON INTEGRALS:     222111.     BUFFER LENGTH:  32768
 NUMBER OF SEGMENTS:   1  SEGMENT LENGTH:     222111      RECORD LENGTH: 524288

 Memory used in sort:       0.78 MW

 SORT1 READ      284735. AND WROTE      212530. INTEGRALS IN      1 RECORDS. CPU TIME:     0.00 SEC, REAL TIME:     0.00 SEC
 SORT2 READ      212530. AND WROTE      222111. INTEGRALS IN      6 RECORDS. CPU TIME:     0.02 SEC, REAL TIME:     0.03 SEC

 FILE SIZES:   FILE 1:    31.7 MBYTE,  FILE 4:     4.2 MBYTE,   TOTAL:     35.9 MBYTE

 OPERATOR DM      FOR CENTER  0  COORDINATES:    0.000000    0.000000    0.000000


 **********************************************************************************************************************************
 DATASETS  * FILE   NREC   LENGTH (MB)   RECORD NAMES
              1      19       31.13       500      610      700      900      950      970     1000      129      960     1100   
                                          VAR    BASINP    GEOM    SYMINP    ZMAT    AOBASIS   BASIS     P2S    ABASIS      S 
                                         1400     1410     1200     1210     1080     1600     1650     1300     1700   
                                           T        V       H0       H01     AOSYM     SMH    MOLCAS    ERIS     OPER   

 PROGRAMS   *        TOTAL       INT
 CPU TIMES  *         0.35      0.25
 REAL TIME  *         0.59 SEC
 DISK USED  *        36.24 MB
 **********************************************************************************************************************************


 PROGRAM * RHF-SCF (CLOSED SHELL)       Authors: W. Meyer, H.-J. Werner


 NUMBER OF ELECTRONS:       8+    8-    SPACE SYMMETRY=1    SPIN SYMMETRY: Singlet 
 CONVERGENCE THRESHOLDS:    1.00E-05 (Density)    1.00E-07 (Energy)
 MAX. NUMBER OF ITERATIONS:       60
 INTERPOLATION TYPE:            DIIS
 INTERPOLATION STEPS:              2 (START)      1 (STEP)
 LEVEL SHIFTS:                  0.00 (CLOSED)  0.00 (OPEN) 



 Orbital guess generated from atomic densities. Full valence occupancy:    8

 Molecular orbital dump at record        2100.2

 Initial occupancy:   8

 ITERATION    DDIFF          GRAD             ENERGY        2-EL.EN.            DIPOLE MOMENTS         DIIS   ORB.
    1      0.000D+00      0.000D+00       -77.82556002    115.807804   -0.18405    0.02659    0.21924    0    start
    2      0.000D+00      0.707D-02       -77.84346130    114.801515   -0.13144    0.00555    0.09426    1    diag
    3      0.771D-02      0.241D-02       -77.84556468    115.201172   -0.20323    0.04542    0.19462    2    diag
    4      0.305D-02      0.116D-02       -77.84611252    115.113817   -0.16956    0.02022    0.13509    3    diag
    5      0.172D-02      0.464D-03       -77.84624248    115.084647   -0.18921    0.03098    0.16032    4    diag
    6      0.669D-03      0.242D-03       -77.84632882    115.094441   -0.19047    0.02858    0.15796    5    diag
    7      0.758D-03      0.987D-04       -77.84635586    115.095398   -0.19227    0.02806    0.15912    6    diag
    8      0.488D-03      0.312D-04       -77.84635829    115.096478   -0.19205    0.02811    0.15902    7    diag
    9      0.151D-03      0.107D-04       -77.84635849    115.096693   -0.19176    0.02814    0.15896    8    diag
   10      0.423D-04      0.340D-05       -77.84635850    115.096685   -0.19161    0.02818    0.15887    9    orth
   11      0.109D-04      0.845D-06       -77.84635850    115.096683   -0.19157    0.02818    0.15885    9    diag
   12      0.260D-05      0.250D-06       -77.84635850    115.096684   -0.19157    0.02818    0.15885    0    orth

 Final occupancy:   8

 !RHF STATE  1.1 Energy               -77.846358500710
 Nuclear energy                        32.30388303
 One-electron energy                 -167.69858354
 Two-electron energy                   57.54834201
 Virial quotient                       -1.00152086
 !RHF STATE  1.1 Dipole moment         -0.19156653     0.02818211     0.15885220
 Dipole moment /Debye                  -0.48688167     0.07162708     0.40373557

 ELECTRON ORBITALS
 =================

  Orbital  Occupation    Energy     Coefficients
    1.1     2.00000   -11.26919     1 1s    0.99593
    2.1     2.00000   -11.25311     2 1s    0.99599
    3.1     2.00000    -1.03754     1 1s    0.28856     2 1s    0.27650
    4.1     2.00000    -0.78261     1 1s   -0.29651     2 1s    0.29090
    5.1     2.00000    -0.62218     1 2py   0.33740     2 2py   0.27170
    6.1     2.00000    -0.55640     1 2px  -0.29684     2 2px   0.29415
    7.1     2.00000    -0.39260     1 2pz   0.27860     1 2pz   0.26677     2 2pz   0.32610     2 2pz   0.28955
    8.1     2.00000    -0.38732     2 2px   0.28321     4 1s    0.27240     5 1s    0.29459
    9.1     0.00000     0.06341     1 1s    0.40639     1 2pz   0.34549     1 2pz   0.49505     2 1s    0.38800     2 2pz  -0.31358
                                    2 2pz  -0.44146
   10.1     0.00000     0.23104     1 1s   -0.92903     1 2px   0.53721     1 2py   0.42446     1 2pz   0.33476     2 1s   -1.23446
                                    2 2px  -0.40704     2 2py  -0.32291     2 2pz  -0.52508     3 1s    0.47136     4 1s    1.13517
                                    5 1s    1.03334     6 1s    0.64818
   11.1     0.00000     0.27748     1 1s   -1.66190     1 2py  -0.41782     1 2pz   0.44308     2 1s    1.33088     2 2py  -0.29450
                                    2 2pz   0.42334     3 1s    1.58960     6 1s   -1.24978
   12.1     0.00000     0.31135     1 1s   -0.49494     1 2px   0.44349     1 2py  -0.97364     1 2pz   0.31190     2 1s   -0.93502
                                    2 2px  -0.31152     2 2py   1.01401     2 2pz  -0.57681     3 1s    1.39449     4 1s   -0.46139
                                    5 1s   -0.39320     6 1s    1.63531
   13.1     0.00000     0.33463     1 1s    1.01844     1 2py  -0.75807     1 2pz  -0.27953     2 1s   -1.10229     2 2px  -0.30800
                                    2 2py  -0.75625     2 2pz  -0.36731     4 1s   -1.65448     5 1s    1.73037
   14.1     0.00000     0.42322     1 1s    1.95702     1 2px   1.84330     1 2py  -0.69513     1 2pz  -0.81338     2 1s   -2.18272
                                    2 2px   1.74286     2 2py  -0.56244     2 2pz  -0.80273     3 1s    0.81816     6 1s   -0.40821
   15.1     0.00000     0.70274     1 2px   0.51845     1 2pz  -0.25747     1 2px  -0.96197     2 2px  -0.56769     2 2px   0.85703
                                    3 1s   -0.31933     4 1s    0.40891     5 1s    0.43995
   16.1     0.00000     0.75827     1 2px  -0.66619     1 2py   0.31466     2 1s    0.36051     2 2py  -0.56553     2 2px  -0.42733
                                    2 2py   1.08025     3 1s   -0.44896     5 1s   -0.36839     6 1s    0.46277
   17.1     0.00000     0.78997     1 2py  -0.51332     1 2pz  -0.71836     1 2px  -0.33193     1 2py   1.19708     1 2pz   0.76416
                                    2 1s    0.52303     2 2py   0.27224     2 2py  -0.52602     2 2pz   0.31818     4 1s    0.35197
   18.1     0.00000     0.80659     1 2py  -0.41066     1 2pz   0.34775     1 2px  -0.47341     1 2py   0.89033     2 1s    0.27210
                                    2 2py   0.33715     2 2pz   0.76169     2 2py  -0.63899     2 2pz  -0.69649     3 1s   -0.37028
   19.1     0.00000     0.86640     1 1s   -0.36806     1 1s    0.42075     1 2px  -0.30956     1 2pz  -0.66837     1 2px   0.78890
                                    1 2py  -0.77252     1 2pz   0.83772     2 1s   -0.30761     2 2pz   0.66049     2 2py   0.43940
                                    2 2pz  -1.03818     3 1s    0.35489
   20.1     0.00000     0.96921     1 2px   0.64967     1 2py   0.41961     1 2px  -1.09882     1 2py  -0.83160     2 1s    0.31514
                                    2 2px   0.74632     2 2py   0.32061     2 2px  -1.12304     2 2py  -0.73404     4 1s   -1.11884
                                    5 1s    0.91986
   21.1     0.00000     1.11662     1 1s   -0.64500     1 1s    1.35133     1 2py   0.55582     1 2py  -0.68588     1 2pz  -0.26314
                                    2 1s   -0.67368     2 1s    1.02678     2 2px  -0.45170     2 2px   0.73320     3 1s   -0.37404
                                    3 1s    0.44666     4 1s    0.60733     4 1s   -1.20428     5 1s    0.53955     5 1s   -0.96815
                                    6 1s   -0.56481
   22.1     0.00000     1.12866     1 1s    0.32414     1 1s   -0.56736     1 2px  -0.31878     1 2py   0.35568     1 2px   0.59297
                                    1 2py  -0.68496     2 1s   -0.25427     2 2py   0.76084     2 2px   0.27137     2 2py  -0.97628
                                    3 1s    0.90100     4 1s   -0.25674     5 1s   -0.60070     5 1s    1.17744     6 1s    0.65805
                                    6 1s   -1.19607
   23.1     0.00000     1.14585     1 1s   -0.80987     1 2px   0.50125     1 2px  -1.06657     1 2pz   0.39923     2 1s    1.01452
                                    2 2px  -0.88493     2 2py   0.36243     3 1s    0.83676     3 1s   -0.93005     4 1s    0.79198
                                    4 1s   -0.62968     5 1s    0.33686     6 1s    0.30870
   24.1     0.00000     1.19859     1 1s   -0.80097     1 1s    1.60052     1 2py  -0.44086     1 2py   0.44722     1 2pz  -0.37247
                                    2 1s   -0.96032     2 1s    1.30792     2 2pz  -0.35473     2 2px   0.62804     2 2py  -0.39943
                                    2 2pz   0.49974     3 1s    0.40850     3 1s   -1.03154     4 1s   -0.52017     4 1s    0.32144
                                    5 1s   -0.53436     6 1s    0.59438     6 1s   -1.31250
   25.1     0.00000     1.22351     1 1s   -1.85038     1 1s    4.25265     1 2pz   0.27580     1 2pz  -1.17112     2 1s    0.54355
                                    2 1s   -1.93316     2 2px   0.74019     2 2py  -0.78263     3 1s   -0.97565     4 1s   -1.01587
                                    5 1s   -0.45869     5 1s    0.62131     6 1s   -0.39090
   26.1     0.00000     1.35978     1 1s    0.37027     1 1s   -2.67075     1 2px  -1.43810     1 2py   0.91055     1 2pz   0.37838
                                    2 1s   -1.85355     2 1s    5.34966     2 2px  -0.84464     2 2py   0.30794     2 2pz   1.72923
                                    3 1s   -0.25773     5 1s   -0.61396     5 1s   -0.65648     6 1s   -0.55799     6 1s   -0.72425
   27.1     0.00000     1.69598     1 1s   -0.58075     1 3d0  -0.34945     1 3d2-  0.30459     1 3d2+  0.33937     2 1s    0.74704
                                    2 3d0   0.35651     2 3d2- -0.27999     2 3d2+ -0.30646
   28.1     0.00000     1.91053     1 1s    0.42974     1 2px   0.43176     1 3d1+  0.46169     1 3d2+  0.35314     1 3d1-  0.49816
                                    2 1s    0.53583     2 1s   -1.61870     2 2pz  -0.61229     2 3d0   0.37721     5 1s    0.26738
                                    6 1s    0.36796     6 1s    0.27354
   29.1     0.00000     1.93726     1 1s    0.33211     1 1s   -1.28688     1 2pz   0.38484     1 3d0   0.25385     2 1s    0.72865
                                    2 2px  -0.31459     2 2py   0.26185     2 3d2- -0.35885     2 3d1+  0.52482     2 3d2+  0.34179
                                    2 3d1-  0.44577     3 1s    0.41373
   30.1     0.00000     2.16080     1 1s    1.21825     1 2pz  -0.31720     1 3d0  -0.41807     1 3d2+ -0.45245     2 1s    0.46829
                                    2 1s   -1.47082     2 2px   0.38529     2 2py  -0.31875     2 2pz  -0.40470     2 3d0   0.63066
                                    2 3d2+  0.25452     3 1s   -0.36039     5 1s    0.28889     6 1s    0.25888
   31.1     0.00000     2.25734     1 1s   -0.58122     1 1s    0.95043     1 2px   0.50453     1 2py  -0.34296     1 2pz  -0.28783
                                    1 3d0  -0.29754     1 3d2- -0.26860     1 3d1+ -0.46277     1 3d2+  0.29111     2 1s   -0.35038
                                    2 1s   -0.35037     2 2px   0.27407     2 3d2- -0.26562     2 3d1+ -0.35277     2 3d2+  0.44023
                                    5 1s    0.26928
   32.1     0.00000     2.34582     1 1s   -0.56742     1 2px  -0.42070     1 2py   0.50538     1 3d0   0.58014     1 3d2- -0.44546
                                    1 3d1- -0.41759     2 1s    0.55163     2 2pz   0.29742     2 3d0   0.39759     2 3d2- -0.32633
                                    2 3d1+ -0.25629     2 3d1- -0.27774     3 1s   -0.26312     4 1s    0.53063     5 1s    0.27256
                                    6 1s   -0.28060
   33.1     0.00000     2.57415     1 1s   -0.32719     1 2py   0.28655     1 3d2- -0.25730     1 3d2+  0.28715     1 3d1- -0.56043
                                    2 2py   0.26113     2 3d2-  0.61661     2 3d1-  0.56774     3 1s   -0.27810     4 1s    0.44535
                                    5 1s   -0.34347     6 1s    0.58521
   34.1     0.00000     2.65095     1 2py  -0.29421     1 3d2- -0.49942     1 3d2+ -0.47747     1 3d1-  0.38169     2 2py   0.38754
                                    2 3d2- -0.26155     2 3d2+ -0.49426     2 3d1-  0.70053     4 1s   -0.27578     5 1s   -0.46291
   35.1     0.00000     2.70850     1 3d0  -0.45369     1 3d2- -0.56713     1 3d1+  0.56963     1 3d1- -0.25101     2 3d0  -0.40848
                                    2 3d2- -0.43479     2 3d1+  0.38901     3 1s   -0.56787     6 1s   -0.27555
   36.1     0.00000     2.96451     1 1s    1.68805     1 2px   0.42974     1 2px   0.85764     1 2pz  -0.43658     1 3d2- -0.39863
                                    1 3d1+ -0.64644     1 3d2+  0.64004     2 1s   -1.72423     2 2px   0.42870     2 2px   0.86965
                                    2 2pz  -0.43721     2 3d2-  0.31187     2 3d1+  0.73329     2 3d2+ -0.64493


 HOMO      8.1    -0.387322 =     -10.5396eV
 LUMO      9.1     0.063409 =       1.7255eV
 LUMO-HOMO         0.450731 =      12.2650eV


 **********************************************************************************************************************************
 DATASETS  * FILE   NREC   LENGTH (MB)   RECORD NAMES
              1      19       31.13       500      610      700      900      950      970     1000      129      960     1100   
                                          VAR    BASINP    GEOM    SYMINP    ZMAT    AOBASIS   BASIS     P2S    ABASIS      S 
                                         1400     1410     1200     1210     1080     1600     1650     1300     1700   
                                           T        V       H0       H01     AOSYM     SMH    MOLCAS    ERIS     OPER   

              2       4        2.86       700     1000      520     2100   
                                         GEOM     BASIS   MCVARS     RHF  

 PROGRAMS   *        TOTAL    HF-SCF       INT
 CPU TIMES  *         0.49      0.14      0.25
 REAL TIME  *         1.27 SEC
 DISK USED  *        36.24 MB
 **********************************************************************************************************************************


 PROGRAM * MULTI (Direct Multiconfiguration SCF)       Authors: P.J. Knowles, H.-J. Werner (1984)


 Number of closed-shell orbitals:   7 (   7 )
 Number of active  orbitals:        2 (   2 )
 Number of external orbitals:      27 (  27 )

 State symmetry 1

 Number of electrons:     2    Spin symmetry=Singlet   Space symmetry=1
 Number of states:        3
 Number of CSFs:          3   (4 determinants, 4 intermediate states)

 Molecular orbitals read from record     2100.2  Type=RHF/CANONICAL (state 1.1)

 Wavefunction dump at record             2140.2

 Convergence thresholds  0.10E-01 (gradient)  0.10E-05 (energy)  0.10E-02 (step length)

 Weight factors for state symmetry  1:    0.33333   0.33333   0.33333

 Number of orbital rotations:      257   (    14 Core/Active    189 Core/Virtual   0 Active/Active     54 Active/Virtual)
 Total number of variables:        269

 Micro-Iterations solved by the two-step solver

 ITER. MIC  NCI  NEG     ENERGY(VAR)     ENERGY(PROJ)   ENERGY CHANGE     GRAD(0)  GRAD(ORB)   GRAD(CI)     STEP       TIME

   1   14    7    0     -77.68730598     -77.70864851   -0.02134252    0.16628961 0.00127289 0.00000000  0.16D+00      0.16
   2    7    5    0     -77.70817935     -77.70824546   -0.00006611    0.01242284 0.00002838 0.00000000  0.72D-02      0.26
   3    8    5    0     -77.70824562     -77.70824562   -0.00000000    0.00004592 0.00000000 0.00000000  0.50D-04      0.36
   4    3    3    0     -77.70824562     -77.70824562   -0.00000000    0.00000000 0.00000000 0.00000000  0.16D-08      0.41

 ** WVFN ****  CONVERGENCE REACHED, FINAL GRADIENT:  0.34D-12



 Results for state 1.1
 =====================

 !MCSCF STATE  1.1 Energy             -77.839987823251
 Nuclear energy                        32.30388303
 Kinetic energy                        77.78204354
 One electron energy                 -167.77267675
 Two electron energy                   57.62880590
 Virial ratio                           2.00074496

 !MCSCF STATE  1.1 Dipole moment       -0.20532806     0.03001371     0.17865635
 Dipole moment /Debye                  -0.52185768     0.07628224     0.45406941

 Results for state 2.1
 =====================

 !MCSCF STATE  2.1 Energy             -77.735907933336
 Nuclear energy                        32.30388303
 Kinetic energy                        77.85832643
 One electron energy                 -167.47471537
 Two electron energy                   57.43492441
 Virial ratio                           1.99842768

 !MCSCF STATE  2.1 Dipole moment       -0.14019534     0.02816735     0.13878862
 Dipole moment /Debye                  -0.35631767     0.07158959     0.35274238

 Results for state 3.1
 =====================

 !MCSCF STATE  3.1 Energy             -77.548841097375
 Nuclear energy                        32.30388303
 Kinetic energy                        77.92014328
 One electron energy                 -167.22161398
 Two electron energy                   57.36888985
 Virial ratio                           1.99523484

 !MCSCF STATE  3.1 Dipole moment       -0.07096840     0.03355978     0.10620486
 Dipole moment /Debye                  -0.18037188     0.08529487     0.26992814

 State-averaged charge density matrix saved on record  2140.2 (density set 1)

 !MCSCF expec         <1.1|DMX|1.1>    -0.205328055395 au =    -0.521857679030 Debye
 !MCSCF trans         <2.1|DMX|1.1>     0.011450390865 au =     0.029102084416 Debye
 !MCSCF expec         <2.1|DMX|2.1>    -0.140195337850 au =    -0.356317666773 Debye
 !MCSCF trans         <3.1|DMX|1.1>    -0.005638595618 au =    -0.014330941851 Debye
 !MCSCF trans         <3.1|DMX|2.1>     0.007411291403 au =     0.018836390004 Debye
 !MCSCF expec         <3.1|DMX|3.1>    -0.070968404410 au =    -0.180371877279 Debye

 !MCSCF expec         <1.1|DMY|1.1>     0.030013709508 au =     0.076282243810 Debye
 !MCSCF trans         <2.1|DMY|1.1>     0.015760309751 au =     0.040056088056 Debye
 !MCSCF expec         <2.1|DMY|2.1>     0.028167354670 au =     0.071589585283 Debye
 !MCSCF trans         <3.1|DMY|1.1>     0.001044892361 au =     0.002655677526 Debye
 !MCSCF trans         <3.1|DMY|2.1>     0.017185774451 au =     0.043679020628 Debye
 !MCSCF expec         <3.1|DMY|3.1>     0.033559781688 au =     0.085294869942 Debye

 !MCSCF expec         <1.1|DMZ|1.1>     0.178656350138 au =     0.454069406384 Debye
 !MCSCF trans         <2.1|DMZ|1.1>     0.014401842696 au =     0.036603435358 Debye
 !MCSCF expec         <2.1|DMZ|2.1>     0.138788618435 au =     0.352742376842 Debye
 !MCSCF trans         <3.1|DMZ|1.1>     0.004629477279 au =     0.011766186863 Debye
 !MCSCF trans         <3.1|DMZ|2.1>     0.018619203257 au =     0.047322194613 Debye
 !MCSCF expec         <3.1|DMZ|3.1>     0.106204855767 au =     0.269928137320 Debye


 NATURAL ORBITALS (state averaged)
 =================================

  Orbital  Occupation    Energy     Coefficients
    1.1     2.00000   -11.25850     1 1s    0.99423
    2.1     2.00000   -11.25263     2 1s    0.99430
    3.1     2.00000    -1.05001     1 1s    0.27939     2 1s    0.27534     2 1s    0.25037
    4.1     2.00000    -0.78280     1 1s   -0.32596     2 1s    0.31385
    5.1     2.00000    -0.62419     1 2py   0.32113     2 2py   0.27693
    6.1     2.00000    -0.55517     1 2px  -0.25565     2 2px   0.25565     2 2py  -0.26938
    7.1     2.00000    -0.41970     1 2pz   0.30858     1 2pz   0.27141     2 2pz   0.33606     2 2pz   0.28315
    8.1     1.00000    -0.08663     1 1s    0.26919     1 2pz   0.42228     1 2pz   0.44781     2 1s    0.26437     2 2pz  -0.38400
                                    2 2pz  -0.40960
    9.1     1.00000    -0.23128     1 2px  -0.30449     2 2px   0.31146     4 1s    0.29023     5 1s    0.29893
   10.1    -0.00000     0.21912     1 1s   -0.93968     1 2px   0.52132     1 2py   0.43247     1 2pz   0.27811     2 1s   -1.24203
                                    2 2px  -0.41567     2 2py  -0.34453     2 2pz  -0.46800     3 1s    0.44257     4 1s    1.12382
                                    5 1s    1.06521     6 1s    0.61641
   11.1    -0.00000     0.27706     1 1s   -1.72402     1 2py  -0.31134     1 2pz   0.43185     2 1s    1.45499     2 2py  -0.28487
                                    2 2pz   0.47719     3 1s    1.50954     6 1s   -1.31956
   12.1    -0.00000     0.31368     1 1s   -0.79676     1 2px   0.46105     1 2py  -0.82877     1 2pz   0.35357     2 1s   -0.71823
                                    2 2py   0.25320     2 2px  -0.28392     2 2py   1.11484     2 2pz  -0.46212     3 1s    1.43749
                                    5 1s   -0.63536     6 1s    1.58434
   13.1    -0.00000     0.31905     1 1s    0.91168     1 2py  -0.25814     1 2py  -1.00815     2 1s   -1.26453     2 2py  -0.64256
                                    2 2pz  -0.45844     3 1s    0.42757     4 1s   -1.72830     5 1s    1.64753
   14.1    -0.00000     0.42922     1 1s    1.81702     1 2px   1.85062     1 2py  -0.58754     1 2pz  -0.75779     2 1s   -2.03989
                                    2 2px   1.75713     2 2py  -0.46055     2 2pz  -0.74086     3 1s    0.81861     6 1s   -0.41401
   15.1    -0.00000     0.69936     1 2px   0.50176     1 2px  -0.92822     2 2px  -0.55774     2 2px   0.85137     3 1s   -0.31338
                                    4 1s   -0.28367     4 1s    0.47489     5 1s    0.48714
   16.1    -0.00000     0.75340     1 2px  -0.65157     1 2py   0.25439     2 1s    0.42321     2 2py  -0.56846     2 2px  -0.47818
                                    2 2py   1.13558     3 1s   -0.42174     5 1s   -0.39665     6 1s    0.46580
   17.1    -0.00000     0.79090     1 1s   -0.33130     1 2py  -0.46942     1 2pz  -0.72322     1 2px  -0.40864     1 2py   1.16820
                                    1 2pz   0.87308     2 1s    0.65312     2 2pz  -0.27311     2 2py  -0.41519     2 2pz   0.36045
                                    4 1s    0.35624
   18.1    -0.00000     0.80753     1 1s    0.26279     1 2py  -0.42575     1 2pz   0.29939     1 2px  -0.45308     1 2py   0.90767
                                    2 2py   0.31009     2 2pz   0.76057     2 2py  -0.62657     2 2pz  -0.79039     3 1s   -0.25214
                                    3 1s   -0.36765
   19.1    -0.00000     0.86476     1 1s   -0.32642     1 1s    0.34941     1 2px  -0.32179     1 2py   0.25550     1 2pz  -0.65422
                                    1 2px   0.83835     1 2py  -0.80166     1 2pz   0.89377     2 1s   -0.26532     2 2pz   0.61623
                                    2 2py   0.45692     2 2pz  -1.07088     3 1s    0.41092
   20.1    -0.00000     0.97526     1 2px   0.64755     1 2py   0.42174     1 2px  -1.02304     1 2py  -0.84309     2 2px   0.73991
                                    2 2py   0.31865     2 2px  -1.02928     2 2py  -0.74507     4 1s   -1.06925     5 1s    0.87303
   21.1    -0.00000     1.09289     1 1s   -0.63109     1 1s    1.16941     1 2py   0.44250     1 2py  -0.45230     2 1s   -0.68013
                                    2 1s    1.20459     2 2px  -0.37760     2 2py  -0.36721     2 2px   0.48562     2 2py   0.37001
                                    4 1s    0.64277     4 1s   -1.11050     5 1s    0.65953     5 1s   -1.19221
   22.1    -0.00000     1.11030     1 1s   -0.39345     1 2py   0.47238     1 2py  -0.67659     2 2py   0.62246     2 2py  -0.67250
                                    3 1s    0.37903     4 1s    0.72418     4 1s   -0.93808     5 1s   -0.63023     5 1s    1.17569
                                    6 1s    0.44534     6 1s   -0.68861
   23.1    -0.00000     1.13996     1 1s   -0.93438     1 2px   0.56191     1 2py  -0.25301     1 2px  -1.21568     1 2py   0.62133
                                    1 2pz   0.39985     2 1s    0.52074     2 2px   0.33742     2 2py  -0.32980     2 2px  -1.17206
                                    2 2py   0.79711     3 1s    0.80177     3 1s   -1.19249     4 1s    0.45935     6 1s   -0.34803
                                    6 1s    1.15773
   24.1    -0.00000     1.19425     1 1s   -0.41454     1 2px   0.25961     1 2py  -0.39321     1 2px  -0.31545     1 2py   0.45610
                                    2 1s   -1.06920     2 1s    2.03132     2 2pz  -0.31870     2 2pz   0.45738     3 1s    0.56711
                                    3 1s   -0.64772     4 1s   -0.28418     4 1s    0.53204     5 1s   -0.48224     6 1s    0.78082
                                    6 1s   -1.24852
   25.1    -0.00000     1.21544     1 1s   -2.04550     1 1s    4.51793     1 2pz  -1.18557     2 1s   -1.06160     2 2px   0.88594
                                    2 2py  -0.79086     3 1s   -1.37399     4 1s   -0.80396     5 1s   -0.29376     6 1s   -0.40730
   26.1    -0.00000     1.34974     1 1s    0.41563     1 1s   -2.76963     1 2px  -1.45379     1 2py   0.91065     1 2pz   0.40121
                                    2 1s   -1.88152     2 1s    5.42597     2 2px  -0.87028     2 2py   0.31198     2 2pz   1.72908
                                    5 1s   -0.58142     5 1s   -0.68821     6 1s   -0.55742     6 1s   -0.72295
   27.1    -0.00000     1.69107     1 1s   -0.60766     1 3d0  -0.34158     1 3d2-  0.30744     1 3d2+  0.33977     2 1s    0.78144
                                    2 3d0   0.35121     2 3d2- -0.28633     2 3d2+ -0.31001
   28.1    -0.00000     1.90945     1 1s    0.38004     1 2px   0.42880     1 2py  -0.25040     1 3d1+  0.45093     1 3d2+  0.35874
                                    1 3d1-  0.48838     2 1s    0.51877     2 1s   -1.56862     2 2pz  -0.59887     2 3d0   0.38656
                                    5 1s    0.26182     6 1s    0.36421     6 1s    0.26874
   29.1    -0.00000     1.93227     1 1s    0.31669     1 1s   -1.26320     1 2pz   0.37223     2 1s    0.75948     2 2px  -0.31116
                                    2 2py   0.26180     2 3d2- -0.36602     2 3d1+  0.52090     2 3d2+  0.33854     2 3d1-  0.44062
                                    3 1s    0.41266
   30.1    -0.00000     2.16043     1 1s    1.19891     1 2pz  -0.31059     1 3d0  -0.41981     1 3d2+ -0.46094     2 1s    0.47164
                                    2 1s   -1.44659     2 2px   0.38262     2 2py  -0.32213     2 2pz  -0.39382     2 3d0   0.63094
                                    3 1s   -0.35825     5 1s    0.27865     6 1s    0.25490
   31.1    -0.00000     2.25402     1 1s   -0.57393     1 1s    0.92698     1 2px   0.47487     1 2py  -0.30961     1 2pz  -0.28761
                                    1 3d0  -0.28161     1 3d2- -0.28886     1 3d1+ -0.46267     1 3d2+  0.28420     2 1s   -0.34213
                                    2 1s   -0.31940     2 2px   0.27230     2 3d2- -0.28026     2 3d1+ -0.36991     2 3d2+  0.44314
                                    4 1s   -0.25001     5 1s    0.28393
   32.1    -0.00000     2.34012     1 1s   -0.61868     1 2px  -0.45015     1 2py   0.52950     1 3d0   0.58832     1 3d2- -0.43823
                                    1 3d1- -0.43172     2 1s    0.57000     2 2pz   0.30409     2 3d0   0.39182     2 3d2- -0.31980
                                    2 3d1- -0.29117     3 1s   -0.26944     4 1s    0.51932     5 1s    0.25716     6 1s   -0.30121
   33.1    -0.00000     2.56780     1 1s   -0.31911     1 2py   0.29276     1 3d2- -0.25511     1 3d2+  0.29438     1 3d1- -0.56795
                                    2 2py   0.25611     2 3d2-  0.62111     2 3d1-  0.56069     3 1s   -0.27789     4 1s    0.44092
                                    5 1s   -0.33078     6 1s    0.58638
   34.1    -0.00000     2.64324     1 2py  -0.29722     1 3d2- -0.51468     1 3d2+ -0.46999     1 3d1-  0.37745     2 2py   0.39327
                                    2 3d2- -0.26390     2 3d2+ -0.48595     2 3d1-  0.70474     4 1s   -0.26466     5 1s   -0.45122
   35.1    -0.00000     2.71373     1 3d0  -0.46101     1 3d2- -0.55126     1 3d1+  0.57869     1 3d1- -0.25748     2 3d0  -0.41618
                                    2 3d2- -0.42161     2 3d1+  0.38936     3 1s   -0.56592     6 1s   -0.27274
   36.1    -0.00000     2.96054     1 1s    1.71787     1 2px   0.42274     1 2px   0.86897     1 2pz  -0.44391     1 3d2- -0.39991
                                    1 3d1+ -0.64777     1 3d2+  0.63859     2 1s   -1.75189     2 2px   0.42280     2 2px   0.88044
                                    2 2py  -0.25472     2 2pz  -0.44490     2 3d2-  0.30693     2 3d1+  0.73662     2 3d2+ -0.64038


 Natural orbital dump (state averaged) at molpro section  2140.2    (Orbital set 2)



 **********************************************************************************************************************************
 DATASETS  * FILE   NREC   LENGTH (MB)   RECORD NAMES
              1      20       31.86       500      610      700      900      950      970     1000      129      960     1100   
                                          VAR    BASINP    GEOM    SYMINP    ZMAT    AOBASIS   BASIS     P2S    ABASIS      S 
                                         1400     1410     1200     1210     1080     1600     1650     1300     1700     1380   
                                           T        V       H0       H01     AOSYM     SMH    MOLCAS    ERIS     OPER     JKOP   

              2       5        5.42       700     1000      520     2100     2140   
                                         GEOM     BASIS   MCVARS     RHF     MCSCF   

 PROGRAMS   *        TOTAL     MULTI    HF-SCF       INT
 CPU TIMES  *         0.94      0.45      0.14      0.25
 REAL TIME  *         1.79 SEC
 DISK USED  *        39.04 MB
 **********************************************************************************************************************************
 Molecular orbitals read from record     2140.2  Type=MCSCF/NATURAL (state averaged)
 Occupation numbers read from record     2140.2  Type=MCSCF/NATURAL (state averaged)
 Orbital energies read from record       2140.2  Type=MCSCF/NATURAL (state averaged)
 Redundancy group numbers read from rec  2140.2  Type=MCSCF/NATURAL (state averaged)

 MULTI/6-31G* energy=    -77.548841097375

           MULTI          HF-SCF
    -77.54884110    -77.84635850
 **********************************************************************************************************************************
 Molpro calculation terminated
