
 Primary working directories    : /scratch.local/johan406.molpro_temp/molpro.XKBWccOUwz
 Secondary working directories  : /scratch.local/johan406.molpro_temp/molpro.XKBWccOUwz
 Wavefunction directory         : /home/goodpast/johan406/wfu/
 Main file repository           : /scratch.local/johan406.molpro_temp/molpro.XKBWccOUwz/

 id        : roweumn

 Nodes     nprocs
 cn0391       1

 Using customized tuning parameters: mindgm=1; mindgv=20; mindgc=4; mindgr=1; noblas=0; minvec=7
 default implementation of scratch files=df  


 Variables initialized (934), CPU time= 0.00 sec
                                                                                 !leave this line blank
 
 gprint, orbitals=30
 memory, 125., m
 symmetry, nosym
 nelect=16
 basis=6-31g*
 
 geometry={
 C -0.6195 0.14 0.2847
 C 0.6423 -0.1853 -0.3729
 H -1.3599 0.8918 -0.0274
 H -0.9436 -0.8847 -0.1073
 H 0.9897 0.7977 0.1072
 H 1.1832 -0.951 0.2221
 }
 
 hf
 {multi,
 closed 7
 occ 9
 wf,spin=0;STATE,3
 }
 
 Commands  initialized (763), CPU time= 0.01 sec, 617 directives.
 Default parameters read. Elapsed time= 0.07 sec

 Checking input...
 Passed
1


                                         ***  PROGRAM SYSTEM MOLPRO  ***
                                       Copyright, TTI GmbH Stuttgart, 2015
                                    Version 2019.2 linked Oct 25 2019 22:50:27


 **********************************************************************************************************************************
 LABEL *                                                                                 
  64 bit serial version                                                                  DATE: 07-Feb-23          TIME: 15:13:29  
 **********************************************************************************************************************************

 SHA1:             8dbd9ae1082e4ce945b0f27595c9eb2d4aa09004
 **********************************************************************************************************************************


 Variable memory set to  125000000 words,  buffer space 

 SETTING NELECT         =        16.00000000                                  
 SETTING BASIS          =    6-31G*
 ZSYMEL=NOSYM


Geometry recognized as XYZ



 Recomputing integrals since basis changed


 Using spherical harmonics

 Library entry C      S 6-31G                selected for orbital group  1
 Library entry C      P 6-31G                selected for orbital group  1
 Library entry C      D 6-31G*               selected for orbital group  1
 Library entry H      S 6-31G                selected for orbital group  2


 PROGRAM * SEWARD (Integral evaluation for generally contracted gaussian basis sets)     Author: Roland Lindh, 1990

 Geometry written to block  1 of record 700


 Point group  C1  



 ATOMIC COORDINATES

 NR  ATOM    CHARGE       X              Y              Z

   1  C       6.00   -1.170685334    0.264561657    0.538005028
   2  C       6.00    1.213771090   -0.350166251   -0.704678872
   3  H       1.00   -2.569838557    1.685257758   -0.051778496
   4  H       1.00   -1.783145571   -1.671840702   -0.202767613
   5  H       1.00    1.870261945    1.507434530    0.202578641
   6  H       1.00    2.235923951   -1.797129544    0.419708172

 Bond lengths in Bohr (Angstrom)

 1-2  2.758221549  1-3  2.079387351  1-4  2.161829259  2-5  2.169049814  2-6  2.098272020
     ( 1.459587986)     ( 1.100364399)     ( 1.143990778)     ( 1.147811731)     ( 1.110357735)

 Bond angles

  1-2-5   83.24241827   1-2-6  109.47482895   2-1-3  127.31324277   2-1-4   83.73675487

  3-1-4  108.91506845   5-2-6  102.65046450

 NUCLEAR CHARGE:                   16
 NUMBER OF PRIMITIVE AOS:          72
 NUMBER OF SYMMETRY AOS:           70
 NUMBER OF CONTRACTIONS:           36   (   36A   )
 NUMBER OF CORE ORBITALS:           2   (    2A   )
 NUMBER OF VALENCE ORBITALS:       12   (   12A   )


 NUCLEAR REPULSION ENERGY   32.28700264

 Eigenvalues of metric

         1 0.894E-02 0.290E-01 0.582E-01 0.648E-01 0.838E-01 0.221E+00 0.237E+00 0.273E+00


 Contracted 2-electron integrals neglected if value below      1.0D-11
 AO integral compression algorithm  1   Integral accuracy      1.0D-11

     1.573 MB (compressed) written to integral file ( 59.1%)


 NUMBER OF SORTED TWO-ELECTRON INTEGRALS:     222111.     BUFFER LENGTH:  32768
 NUMBER OF SEGMENTS:   1  SEGMENT LENGTH:     222111      RECORD LENGTH: 524288

 Memory used in sort:       0.78 MW

 SORT1 READ      284735. AND WROTE      212530. INTEGRALS IN      1 RECORDS. CPU TIME:     0.00 SEC, REAL TIME:     0.00 SEC
 SORT2 READ      212530. AND WROTE      222111. INTEGRALS IN      6 RECORDS. CPU TIME:     0.02 SEC, REAL TIME:     0.03 SEC

 FILE SIZES:   FILE 1:    31.7 MBYTE,  FILE 4:     4.2 MBYTE,   TOTAL:     35.9 MBYTE

 OPERATOR DM      FOR CENTER  0  COORDINATES:    0.000000    0.000000    0.000000


 **********************************************************************************************************************************
 DATASETS  * FILE   NREC   LENGTH (MB)   RECORD NAMES
              1      19       31.13       500      610      700      900      950      970     1000      129      960     1100   
                                          VAR    BASINP    GEOM    SYMINP    ZMAT    AOBASIS   BASIS     P2S    ABASIS      S 
                                         1400     1410     1200     1210     1080     1600     1650     1300     1700   
                                           T        V       H0       H01     AOSYM     SMH    MOLCAS    ERIS     OPER   

 PROGRAMS   *        TOTAL       INT
 CPU TIMES  *         0.36      0.26
 REAL TIME  *         0.57 SEC
 DISK USED  *        36.24 MB
 **********************************************************************************************************************************


 PROGRAM * RHF-SCF (CLOSED SHELL)       Authors: W. Meyer, H.-J. Werner


 NUMBER OF ELECTRONS:       8+    8-    SPACE SYMMETRY=1    SPIN SYMMETRY: Singlet 
 CONVERGENCE THRESHOLDS:    1.00E-05 (Density)    1.00E-07 (Energy)
 MAX. NUMBER OF ITERATIONS:       60
 INTERPOLATION TYPE:            DIIS
 INTERPOLATION STEPS:              2 (START)      1 (STEP)
 LEVEL SHIFTS:                  0.00 (CLOSED)  0.00 (OPEN) 



 Orbital guess generated from atomic densities. Full valence occupancy:    8

 Molecular orbital dump at record        2100.2

 Initial occupancy:   8

 ITERATION    DDIFF          GRAD             ENERGY        2-EL.EN.            DIPOLE MOMENTS         DIIS   ORB.
    1      0.000D+00      0.000D+00       -77.82486166    115.772020   -0.20937    0.03058    0.24939    0    start
    2      0.000D+00      0.709D-02       -77.84273811    114.769769   -0.14904    0.00646    0.10646    1    diag
    3      0.776D-02      0.244D-02       -77.84485590    115.164541   -0.23003    0.05153    0.21972    2    diag
    4      0.308D-02      0.123D-02       -77.84543933    115.085627   -0.19394    0.02435    0.15554    3    diag
    5      0.175D-02      0.469D-03       -77.84557464    115.051577   -0.21412    0.03516    0.18075    4    diag
    6      0.692D-03      0.242D-03       -77.84566098    115.061529   -0.21615    0.03282    0.17892    5    diag
    7      0.764D-03      0.980D-04       -77.84568731    115.062393   -0.21814    0.03222    0.18016    6    diag
    8      0.478D-03      0.317D-04       -77.84568982    115.063488   -0.21792    0.03228    0.18006    7    diag
    9      0.152D-03      0.112D-04       -77.84569004    115.063713   -0.21759    0.03231    0.17999    8    diag
   10      0.442D-04      0.362D-05       -77.84569006    115.063710   -0.21742    0.03235    0.17990    9    orth
   11      0.119D-04      0.891D-06       -77.84569006    115.063708   -0.21738    0.03235    0.17988    9    diag
   12      0.277D-05      0.261D-06       -77.84569006    115.063709   -0.21737    0.03235    0.17988    0    orth

 Final occupancy:   8

 !RHF STATE  1.1 Energy               -77.845690056447
 Nuclear energy                        32.28700264
 One-electron energy                 -167.66454727
 Two-electron energy                   57.53185457
 Virial quotient                       -1.00160315
 !RHF STATE  1.1 Dipole moment         -0.21737324     0.03235339     0.17987802
 Dipole moment /Debye                  -0.55247148     0.08222874     0.45717439

 ELECTRON ORBITALS
 =================

  Orbital  Occupation    Energy     Coefficients
    1.1     2.00000   -11.27074     1 1s    0.99601
    2.1     2.00000   -11.25252     2 1s    0.99607
    3.1     2.00000    -1.03769     1 1s    0.28922     2 1s    0.27559
    4.1     2.00000    -0.78210     1 1s   -0.29721     2 1s    0.29073
    5.1     2.00000    -0.62225     1 2py   0.34015     2 2py   0.26713
    6.1     2.00000    -0.55497     1 2px  -0.29601     2 2px   0.29331     2 2py  -0.25164
    7.1     2.00000    -0.39283     1 2pz   0.27396     1 2pz   0.26331     2 2pz   0.32729     2 2pz   0.28882
    8.1     2.00000    -0.38732     2 2px  -0.28278     4 1s   -0.27044     5 1s   -0.29548
    9.1     0.00000     0.06347     1 1s    0.40721     1 2pz   0.34732     1 2pz   0.49861     2 1s    0.38668     2 2pz  -0.31114
                                    2 2pz  -0.43768
   10.1     0.00000     0.23090     1 1s   -0.90332     1 2px   0.54163     1 2py   0.43400     1 2pz   0.32114     2 1s   -1.25050
                                    2 2px  -0.39604     2 2py  -0.31734     2 2pz  -0.53678     3 1s    0.45325     4 1s    1.14099
                                    5 1s    1.02541     6 1s    0.65772
   11.1     0.00000     0.27608     1 1s   -1.66407     1 2py  -0.42324     1 2pz   0.43664     2 1s    1.28779     2 2py  -0.28707
                                    2 2pz   0.41353     3 1s    1.60317     6 1s   -1.22037
   12.1     0.00000     0.31080     1 1s   -0.46124     1 2px   0.44424     1 2py  -0.96405     1 2pz   0.29405     2 1s   -0.94794
                                    2 2px  -0.29913     2 2py   1.01146     2 2pz  -0.58944     3 1s    1.36648     4 1s   -0.46448
                                    5 1s   -0.39040     6 1s    1.63719
   13.1     0.00000     0.33442     1 1s    1.01431     1 2py  -0.75803     1 2pz  -0.27458     2 1s   -1.11001     2 2px  -0.31045
                                    2 2py  -0.75479     2 2pz  -0.37465     4 1s   -1.64834     5 1s    1.73372
   14.1     0.00000     0.42319     1 1s    1.95407     1 2px   1.85338     1 2py  -0.70300     1 2pz  -0.81930     2 1s   -2.20905
                                    2 2px   1.74014     2 2py  -0.55259     2 2pz  -0.80761     3 1s    0.84169     4 1s   -0.25428
                                    6 1s   -0.37692
   15.1     0.00000     0.70276     1 2px   0.51368     1 2pz  -0.26131     1 2px  -0.96310     2 2px  -0.56876     2 2px   0.84547
                                    3 1s   -0.32960     4 1s    0.40621     5 1s    0.44152
   16.1     0.00000     0.75834     1 2px  -0.66242     1 2py   0.25590     2 1s    0.36072     2 2py  -0.58117     2 2px  -0.39878
                                    2 2py   1.09650     3 1s   -0.44255     5 1s   -0.37721     6 1s    0.45632
   17.1     0.00000     0.78992     1 2py  -0.48185     1 2pz  -0.75092     1 2px  -0.33136     1 2py   1.14103     1 2pz   0.80022
                                    2 1s    0.53413     2 2pz  -0.27657     2 2py  -0.44073     2 2pz   0.36100     4 1s    0.34406
   18.1     0.00000     0.80863     1 2py  -0.44514     1 2pz   0.28514     1 2px  -0.52480     1 2py   0.97325     2 1s    0.33823
                                    2 2py   0.34402     2 2pz   0.75619     2 2py  -0.64070     2 2pz  -0.68518     3 1s   -0.25017
                                    3 1s   -0.39516
   19.1     0.00000     0.86699     1 1s   -0.36684     1 1s    0.44877     1 2px  -0.32130     1 2py   0.26500     1 2pz  -0.66278
                                    1 2px   0.84638     1 2py  -0.81923     1 2pz   0.81533     2 1s   -0.29787     2 2pz   0.65029
                                    2 2py   0.43539     2 2pz  -1.04408     3 1s    0.37915
   20.1     0.00000     0.96789     1 2px   0.63758     1 2py   0.42567     1 2px  -1.08388     1 2py  -0.84170     2 1s    0.31581
                                    2 2px   0.74707     2 2py   0.31437     2 2px  -1.11341     2 2py  -0.72987     4 1s   -1.12383
                                    5 1s    0.89908
   21.1     0.00000     1.11534     1 1s   -0.61866     1 1s    1.33486     1 2py   0.57878     1 2py  -0.74561     1 2pz  -0.27178
                                    2 1s   -0.66444     2 1s    0.96342     2 2px  -0.48319     2 2px   0.79877     3 1s   -0.41882
                                    3 1s    0.55718     4 1s    0.58028     4 1s   -1.18039     5 1s    0.49037     5 1s   -0.87623
                                    6 1s   -0.69518
   22.1     0.00000     1.12621     1 1s    0.40807     1 1s   -0.84308     1 2py   0.29704     1 2px   0.44236     1 2py  -0.58457
                                    2 2py   0.76204     2 2py  -0.90949     3 1s    0.74596     5 1s   -0.66164     5 1s    1.28408
                                    6 1s    0.66574     6 1s   -1.10433
   23.1     0.00000     1.14000     1 1s   -0.77075     1 2px   0.54575     1 2px  -1.14416     1 2py   0.28387     1 2pz   0.40315
                                    2 1s    1.13732     2 2px  -0.89760     2 2py   0.48561     3 1s    0.81834     3 1s   -0.97883
                                    4 1s    0.80148     4 1s   -0.65128     6 1s    0.41940
   24.1     0.00000     1.19779     1 1s   -0.96819     1 1s    1.95234     1 2py  -0.43759     1 2py   0.43154     1 2pz  -0.45679
                                    2 1s   -0.91208     2 1s    1.15804     2 2pz  -0.34522     2 2px   0.66221     2 2py  -0.45847
                                    2 2pz   0.50256     3 1s    0.41312     3 1s   -1.12891     4 1s   -0.51891     5 1s   -0.47213
                                    6 1s    0.54274     6 1s   -1.28921
   25.1     0.00000     1.22017     1 1s   -1.75937     1 1s    4.05192     1 2pz   0.27422     1 2py  -0.27183     1 2pz  -1.09562
                                    2 1s    0.66965     2 1s   -2.11180     2 2px   0.66549     2 2py  -0.74227     3 1s   -0.86203
                                    4 1s   -1.05868     5 1s   -0.48210     5 1s    0.70414     6 1s   -0.42218
   26.1     0.00000     1.37298     1 1s    0.33865     1 1s   -2.64057     1 2px  -1.44883     1 2py   0.90514     1 2pz   0.37884
                                    2 1s   -1.84123     2 1s    5.34522     2 2px  -0.85958     2 2py   0.31030     2 2pz   1.74794
                                    3 1s   -0.26958     5 1s   -0.62829     5 1s   -0.65187     6 1s   -0.58178     6 1s   -0.70744
   27.1     0.00000     1.69613     1 1s   -0.59151     1 3d0  -0.34997     1 3d2-  0.30483     1 3d2+  0.34062     2 1s    0.78494
                                    2 3d0   0.35791     2 3d2- -0.27682     2 3d2+ -0.30313
   28.1     0.00000     1.90779     1 1s    0.54402     1 2px   0.44094     1 3d1+  0.46579     1 3d2+  0.34291     1 3d1-  0.50962
                                    2 1s    0.55677     2 1s   -1.69717     2 2pz  -0.63126     2 3d0   0.37642     5 1s    0.27575
                                    6 1s    0.37728     6 1s    0.26903
   29.1     0.00000     1.93646     1 1s    0.32461     1 1s   -1.22280     1 2pz   0.36973     1 3d0   0.27124     2 1s    0.60788
                                    2 2px  -0.29216     2 2py   0.26058     2 3d2- -0.36043     2 3d1+  0.53087     2 3d2+  0.35281
                                    2 3d1-  0.44121     3 1s    0.41650
   30.1     0.00000     2.15580     1 1s    1.14264     1 2pz  -0.29535     1 3d0  -0.40196     1 3d2+ -0.45629     1 3d1- -0.25214
                                    2 1s    0.46699     2 1s   -1.41058     2 2px   0.36862     2 2py  -0.31267     2 2pz  -0.39000
                                    2 3d0   0.63084     2 3d2+  0.25249     3 1s   -0.35483     5 1s    0.27967
   31.1     0.00000     2.25863     1 1s    0.58437     1 1s   -0.98766     1 2px  -0.51977     1 2py   0.35313     1 2pz   0.29998
                                    1 3d0   0.30240     1 3d2-  0.25812     1 3d1+  0.47267     1 3d2+ -0.28387     2 1s    0.34090
                                    2 1s    0.39173     2 2px  -0.27553     2 3d2-  0.25912     2 3d1+  0.35433     2 3d2+ -0.43978
                                    5 1s   -0.27654
   32.1     0.00000     2.34476     1 1s   -0.62482     1 2px  -0.44473     1 2py   0.51856     1 3d0   0.58288     1 3d2- -0.45692
                                    1 3d1- -0.41855     2 1s    0.61562     2 2pz   0.31337     2 3d0   0.38179     2 3d2- -0.32535
                                    2 3d1+ -0.26297     2 3d1- -0.26805     3 1s   -0.26151     4 1s    0.54474     5 1s    0.26076
                                    6 1s   -0.27995
   33.1     0.00000     2.57164     1 1s   -0.32678     1 2py   0.28176     1 3d2+  0.30312     1 3d1- -0.54826     2 2py   0.25797
                                    2 3d2-  0.62374     2 3d1-  0.56883     4 1s    0.44358     5 1s   -0.34105     6 1s    0.58896
   34.1     0.00000     2.65219     1 2py  -0.30051     1 3d2- -0.48234     1 3d2+ -0.47404     1 3d1-  0.38349     2 2py   0.39055
                                    2 3d2+ -0.49341     2 3d1-  0.71739     4 1s   -0.27604     5 1s   -0.47127
   35.1     0.00000     2.70562     1 3d0  -0.46092     1 3d2- -0.58550     1 3d1+  0.57300     2 3d0  -0.41316     2 3d2- -0.42977
                                    2 3d1+  0.37350     3 1s   -0.57460
   36.1     0.00000     2.96574     1 1s    1.68316     1 2px   0.42811     1 2px   0.85601     1 2pz  -0.43573     1 3d2- -0.40530
                                    1 3d1+ -0.64122     1 3d2+  0.63950     2 1s   -1.72491     2 2px   0.42754     2 2px   0.86761
                                    2 2pz  -0.43740     2 3d2-  0.30978     2 3d1+  0.73558     2 3d2+ -0.64458


 HOMO      8.1    -0.387322 =     -10.5396eV
 LUMO      9.1     0.063466 =       1.7270eV
 LUMO-HOMO         0.450788 =      12.2666eV


 **********************************************************************************************************************************
 DATASETS  * FILE   NREC   LENGTH (MB)   RECORD NAMES
              1      19       31.13       500      610      700      900      950      970     1000      129      960     1100   
                                          VAR    BASINP    GEOM    SYMINP    ZMAT    AOBASIS   BASIS     P2S    ABASIS      S 
                                         1400     1410     1200     1210     1080     1600     1650     1300     1700   
                                           T        V       H0       H01     AOSYM     SMH    MOLCAS    ERIS     OPER   

              2       4        2.86       700     1000      520     2100   
                                         GEOM     BASIS   MCVARS     RHF  

 PROGRAMS   *        TOTAL    HF-SCF       INT
 CPU TIMES  *         0.54      0.17      0.26
 REAL TIME  *         1.08 SEC
 DISK USED  *        36.24 MB
 **********************************************************************************************************************************


 PROGRAM * MULTI (Direct Multiconfiguration SCF)       Authors: P.J. Knowles, H.-J. Werner (1984)


 Number of closed-shell orbitals:   7 (   7 )
 Number of active  orbitals:        2 (   2 )
 Number of external orbitals:      27 (  27 )

 State symmetry 1

 Number of electrons:     2    Spin symmetry=Singlet   Space symmetry=1
 Number of states:        3
 Number of CSFs:          3   (4 determinants, 4 intermediate states)

 Molecular orbitals read from record     2100.2  Type=RHF/CANONICAL (state 1.1)

 Wavefunction dump at record             2140.2

 Convergence thresholds  0.10E-01 (gradient)  0.10E-05 (energy)  0.10E-02 (step length)

 Weight factors for state symmetry  1:    0.33333   0.33333   0.33333

 Number of orbital rotations:      257   (    14 Core/Active    189 Core/Virtual   0 Active/Active     54 Active/Virtual)
 Total number of variables:        269

 Micro-Iterations solved by the two-step solver

 ITER. MIC  NCI  NEG     ENERGY(VAR)     ENERGY(PROJ)   ENERGY CHANGE     GRAD(0)  GRAD(ORB)   GRAD(CI)     STEP       TIME

   1   14    7    0     -77.68599272     -77.70779705   -0.02180432    0.16608403 0.00116086 0.00000000  0.16D+00      0.16
   2    7    5    0     -77.70727178     -77.70735081   -0.00007903    0.01377540 0.00003016 0.00000000  0.75D-02      0.26
   3    8    5    0     -77.70735100     -77.70735101   -0.00000000    0.00005416 0.00000000 0.00000000  0.56D-04      0.37
   4    3    3    0     -77.70735101     -77.70735101    0.00000000    0.00000000 0.00000000 0.00000000  0.21D-08      0.43

 ** WVFN ****  CONVERGENCE REACHED, FINAL GRADIENT:  0.55D-12



 Results for state 1.1
 =====================

 !MCSCF STATE  1.1 Energy             -77.839323746573
 Nuclear energy                        32.28700264
 Kinetic energy                        77.77435764
 One electron energy                 -167.73783037
 Two electron energy                   57.61150398
 Virial ratio                           2.00083532

 !MCSCF STATE  1.1 Dipole moment       -0.23297467     0.03449986     0.20238435
 Dipole moment /Debye                  -0.59212376     0.08768415     0.51437602

 Results for state 2.1
 =====================

 !MCSCF STATE  2.1 Energy             -77.735004545962
 Nuclear energy                        32.28700264
 Kinetic energy                        77.85079649
 One electron energy                 -167.44202019
 Two electron energy                   57.42001300
 Virial ratio                           1.99851264

 !MCSCF STATE  2.1 Dipole moment       -0.15911925     0.03211619     0.15731701
 Dipole moment /Debye                  -0.40441432     0.08162586     0.39983377

 Results for state 3.1
 =====================

 !MCSCF STATE  3.1 Energy             -77.547724721139
 Nuclear energy                        32.28700264
 Kinetic energy                        77.91268777
 One electron energy                 -167.19052531
 Two electron energy                   57.35579795
 Virial ratio                           1.99531574

 !MCSCF STATE  3.1 Dipole moment       -0.08047495     0.03794083     0.12035861
 Dipole moment /Debye                  -0.20453352     0.09642966     0.30590105

 State-averaged charge density matrix saved on record  2140.2 (density set 1)

 !MCSCF expec         <1.1|DMX|1.1>    -0.232974668472 au =    -0.592123757896 Debye
 !MCSCF trans         <2.1|DMX|1.1>    -0.013302695581 au =    -0.033809865034 Debye
 !MCSCF expec         <2.1|DMX|2.1>    -0.159119254696 au =    -0.404414315351 Debye
 !MCSCF trans         <3.1|DMX|1.1>    -0.006363872273 au =    -0.016174290492 Debye
 !MCSCF trans         <3.1|DMX|2.1>    -0.008745389043 au =    -0.022227105885 Debye
 !MCSCF expec         <3.1|DMX|3.1>    -0.080474947146 au =    -0.204533516167 Debye

 !MCSCF expec         <1.1|DMY|1.1>     0.034499859356 au =     0.087684152543 Debye
 !MCSCF trans         <2.1|DMY|1.1>    -0.017857052099 au =    -0.045385126475 Debye
 !MCSCF expec         <2.1|DMY|2.1>     0.032116189110 au =     0.081625863918 Debye
 !MCSCF trans         <3.1|DMY|1.1>     0.001212397758 au =     0.003081405893 Debye
 !MCSCF trans         <3.1|DMY|2.1>    -0.019491201915 au =    -0.049538448963 Debye
 !MCSCF expec         <3.1|DMY|3.1>     0.037940830454 au =     0.096429655865 Debye

 !MCSCF expec         <1.1|DMZ|1.1>     0.202384350712 au =     0.514376018084 Debye
 !MCSCF trans         <2.1|DMZ|1.1>    -0.016003509633 au =    -0.040674200014 Debye
 !MCSCF expec         <2.1|DMZ|2.1>     0.157317010306 au =     0.399833767053 Debye
 !MCSCF trans         <3.1|DMZ|1.1>     0.005211606442 au =     0.013245714700 Debye
 !MCSCF trans         <3.1|DMZ|2.1>    -0.020745959721 au =    -0.052727516307 Debye
 !MCSCF expec         <3.1|DMZ|3.1>     0.120358613897 au =     0.305901045910 Debye


 NATURAL ORBITALS (state averaged)
 =================================

  Orbital  Occupation    Energy     Coefficients
    1.1     2.00000   -11.25926     1 1s    0.99465
    2.1     2.00000   -11.25262     2 1s    0.99474
    3.1     2.00000    -1.05007     1 1s    0.27950     2 1s    0.27491     2 1s    0.25107
    4.1     2.00000    -0.78210     1 1s   -0.32733     2 1s    0.31357
    5.1     2.00000    -0.62399     1 2py   0.32288     2 2py   0.27370
    6.1     2.00000    -0.55384     1 2px  -0.25463     2 2px   0.25486     2 2py  -0.27254
    7.1     2.00000    -0.41980     1 2pz   0.30593     1 2pz   0.26964     2 2pz   0.33715     2 2pz   0.28290
    8.1     1.00000    -0.23142     1 2px   0.30333     2 2px  -0.31126     4 1s   -0.28980     5 1s   -0.29963
    9.1     1.00000    -0.08654     1 1s    0.26931     1 2pz   0.42444     1 2pz   0.45016     2 1s    0.26385     2 2pz  -0.38107
                                    2 2pz  -0.40676
   10.1    -0.00000     0.21900     1 1s   -0.91535     1 2px   0.52446     1 2py   0.44077     1 2pz   0.26513     2 1s   -1.25760
                                    2 2px  -0.40643     2 2py  -0.33985     2 2pz  -0.47991     3 1s    0.42607     4 1s    1.12701
                                    5 1s    1.06022     6 1s    0.62570
   11.1    -0.00000     0.27583     1 1s   -1.72360     1 2py  -0.31452     1 2pz   0.42254     2 1s    1.41533     2 2py  -0.28421
                                    2 2pz   0.47207     3 1s    1.51716     6 1s   -1.29895
   12.1    -0.00000     0.31309     1 1s   -0.78441     1 2px   0.46234     1 2py  -0.80786     1 2pz   0.34026     2 1s   -0.70643
                                    2 2py   0.25812     2 2px  -0.26928     2 2py   1.11874     2 2pz  -0.46519     3 1s    1.41200
                                    5 1s   -0.65436     6 1s    1.57666
   13.1    -0.00000     0.31887     1 1s    0.90659     1 2py  -0.25940     1 2py  -1.01898     2 1s   -1.28892     2 2py  -0.62411
                                    2 2pz  -0.47431     3 1s    0.44425     4 1s   -1.72671     5 1s    1.64165
   14.1    -0.00000     0.42915     1 1s    1.81349     1 2px   1.86010     1 2py  -0.59565     1 2pz  -0.76396     2 1s   -2.06559
                                    2 2px   1.75453     2 2py  -0.45150     2 2pz  -0.74512     3 1s    0.84255     6 1s   -0.38365
   15.1    -0.00000     0.69939     1 2px   0.49691     1 2px  -0.92883     2 2px  -0.55973     2 2px   0.84220     3 1s   -0.32343
                                    4 1s   -0.28710     4 1s    0.47333     5 1s    0.48725
   16.1    -0.00000     0.75309     1 2px  -0.64165     2 1s    0.41775     2 2py  -0.58249     2 2px  -0.44714     2 2py   1.14875
                                    3 1s   -0.41362     5 1s   -0.40489     6 1s    0.45924
   17.1    -0.00000     0.79110     1 1s   -0.36384     1 2py  -0.43251     1 2pz  -0.75351     1 2px  -0.40295     1 2py   1.10020
                                    1 2pz   0.90571     2 1s    0.67001     2 2pz  -0.31828     2 2py  -0.32400     2 2pz   0.41410
                                    4 1s    0.34541
   18.1    -0.00000     0.80987     1 2py  -0.45812     1 2px  -0.50386     1 2py   0.98892     2 2py   0.31492     2 2pz   0.75355
                                    2 2py  -0.62136     2 2pz  -0.77969     3 1s   -0.27239     3 1s   -0.38519
   19.1    -0.00000     0.86547     1 1s   -0.32533     1 1s    0.37789     1 2px  -0.33362     1 2py   0.27582     1 2pz  -0.64900
                                    1 2px   0.89959     1 2py  -0.85592     1 2pz   0.86858     2 1s   -0.25563     2 1s   -0.27130
                                    2 2pz   0.60197     2 2py   0.45602     2 2pz  -1.07137     3 1s    0.43703
   20.1    -0.00000     0.97375     1 2px   0.63524     1 2py   0.42614     1 2px  -1.00792     1 2py  -0.85106     2 2px   0.73992
                                    2 2py   0.31027     2 2px  -1.01708     2 2py  -0.73853     4 1s   -1.07041     5 1s    0.84919
   21.1    -0.00000     1.09263     1 1s   -0.63031     1 1s    1.17249     1 2py   0.44781     1 2py  -0.46038     2 1s   -0.68744
                                    2 1s    1.21124     2 2px  -0.39475     2 2py  -0.35079     2 2px   0.50879     2 2py   0.34879
                                    4 1s    0.64077     4 1s   -1.10708     5 1s    0.65379     5 1s   -1.18704
   22.1    -0.00000     1.10652     1 1s   -0.53692     1 2py   0.44927     1 2py  -0.63514     2 2py   0.61030     2 2py  -0.63070
                                    3 1s    0.31844     4 1s    0.73215     4 1s   -0.91368     5 1s   -0.62483     5 1s    1.18471
                                    6 1s    0.45742     6 1s   -0.65695
   23.1    -0.00000     1.13589     1 1s   -0.96847     1 2px   0.57652     1 2py  -0.26134     1 2px  -1.23484     1 2py   0.64395
                                    1 2pz   0.41389     2 1s    0.57732     2 2px   0.34401     2 2py  -0.37338     2 2px  -1.16534
                                    2 2py   0.84096     3 1s    0.78370     3 1s   -1.18943     4 1s    0.43789     6 1s   -0.36050
                                    6 1s    1.18194
   24.1    -0.00000     1.19375     1 1s   -0.52310     1 2px   0.25788     1 2py  -0.39950     1 2px  -0.32713     1 2py   0.47417
                                    2 1s   -1.10315     2 1s    2.11887     2 2pz  -0.33181     2 2pz   0.49282     3 1s    0.54715
                                    3 1s   -0.62175     4 1s   -0.31215     4 1s    0.57692     5 1s    0.25664     5 1s   -0.52220
                                    6 1s    0.76300     6 1s   -1.24089
   25.1    -0.00000     1.21123     1 1s   -2.04103     1 1s    4.47201     1 2pz  -1.13925     2 1s   -1.06795     2 2py   0.25599
                                    2 2px   0.86178     2 2py  -0.78071     3 1s   -1.38367     4 1s   -0.80687     5 1s   -0.29320
                                    6 1s   -0.40509
   26.1    -0.00000     1.36255     1 1s    0.38092     1 1s   -2.73354     1 2px  -1.46488     1 2py   0.90743     1 2pz   0.39990
                                    2 1s   -1.86914     2 1s    5.42130     2 2px  -0.88422     2 2py   0.31453     2 2pz   1.74962
                                    5 1s   -0.59668     5 1s   -0.68428     6 1s   -0.58265     6 1s   -0.70563
   27.1    -0.00000     1.69133     1 1s   -0.61871     1 3d0  -0.34184     1 3d2-  0.30761     1 3d2+  0.34079     2 1s    0.82039
                                    2 2pz   0.25407     2 3d0   0.35268     2 3d2- -0.28355     2 3d2+ -0.30692
   28.1    -0.00000     1.90702     1 1s    0.50491     1 2px   0.43852     1 3d1+  0.45788     1 3d2+  0.34854     1 3d1-  0.50187
                                    2 1s    0.54185     2 1s   -1.65530     2 2pz  -0.61946     2 3d0   0.38709     5 1s    0.27096
                                    6 1s    0.37583     6 1s    0.26321
   29.1    -0.00000     1.93112     1 1s    0.31043     1 1s   -1.19843     1 2pz   0.35811     1 3d0   0.25832     2 1s    0.62714
                                    2 2px  -0.28854     2 2py   0.26096     2 3d2- -0.36775     2 3d1+  0.52898     2 3d2+  0.35287
                                    2 3d1-  0.43758     3 1s    0.41582
   30.1    -0.00000     2.15540     1 1s    1.12421     1 2pz  -0.28923     1 3d0  -0.40437     1 3d2+ -0.46483     1 3d1- -0.25598
                                    2 1s    0.46901     2 1s   -1.38436     2 2px   0.36575     2 2py  -0.31602     2 2pz  -0.37815
                                    2 3d0   0.63040     3 1s   -0.35287     5 1s    0.26941
   31.1    -0.00000     2.25564     1 1s    0.57591     1 1s   -0.95543     1 2px  -0.48579     1 2py   0.31681     1 2pz   0.29732
                                    1 3d0   0.28415     1 3d2-  0.28007     1 3d1+  0.47128     1 3d2+ -0.27783     2 1s    0.33386
                                    2 1s    0.35161     2 2px  -0.27289     2 3d2-  0.27490     2 3d1+  0.37309     2 3d2+ -0.44262
                                    4 1s    0.25154     5 1s   -0.29090
   32.1    -0.00000     2.33913     1 1s   -0.68113     1 2px  -0.47644     1 2py   0.54382     1 3d0   0.59216     1 3d2- -0.44938
                                    1 3d1- -0.43295     2 1s    0.63738     2 2pz   0.32076     2 3d0   0.37561     2 3d2- -0.31860
                                    2 3d1- -0.28178     3 1s   -0.26695     4 1s    0.53329     6 1s   -0.30161
   33.1    -0.00000     2.56511     1 1s   -0.31987     1 2py   0.28833     1 3d2+  0.31002     1 3d1- -0.55602     2 2py   0.25325
                                    2 3d2-  0.62717     2 3d1-  0.56208     4 1s    0.43967     5 1s   -0.32864     6 1s    0.58959
   34.1    -0.00000     2.64459     1 2py  -0.30320     1 3d2- -0.50103     1 3d2+ -0.46644     1 3d1-  0.37890     2 2py   0.39583
                                    2 3d2+ -0.48399     2 3d1-  0.72045     4 1s   -0.26450     5 1s   -0.45809
   35.1    -0.00000     2.71092     1 3d0  -0.46854     1 3d2- -0.56687     1 3d1+  0.58259     2 3d0  -0.42074     2 3d2- -0.41571
                                    2 3d1+  0.37397     3 1s   -0.57201
   36.1    -0.00000     2.96191     1 1s    1.71275     1 2px   0.42098     1 2px   0.86718     1 2pz  -0.44293     1 3d2- -0.40700
                                    1 3d1+ -0.64244     1 3d2+  0.63819     2 1s   -1.75207     2 2px   0.42171     2 2px   0.87808
                                    2 2py  -0.25377     2 2pz  -0.44501     2 3d2-  0.30459     2 3d1+  0.73878     2 3d2+ -0.63978


 Natural orbital dump (state averaged) at molpro section  2140.2    (Orbital set 2)



 **********************************************************************************************************************************
 DATASETS  * FILE   NREC   LENGTH (MB)   RECORD NAMES
              1      20       31.86       500      610      700      900      950      970     1000      129      960     1100   
                                          VAR    BASINP    GEOM    SYMINP    ZMAT    AOBASIS   BASIS     P2S    ABASIS      S 
                                         1400     1410     1200     1210     1080     1600     1650     1300     1700     1380   
                                           T        V       H0       H01     AOSYM     SMH    MOLCAS    ERIS     OPER     JKOP   

              2       5        5.42       700     1000      520     2100     2140   
                                         GEOM     BASIS   MCVARS     RHF     MCSCF   

 PROGRAMS   *        TOTAL     MULTI    HF-SCF       INT
 CPU TIMES  *         1.03      0.49      0.17      0.26
 REAL TIME  *         1.67 SEC
 DISK USED  *        39.04 MB
 **********************************************************************************************************************************
 Molecular orbitals read from record     2140.2  Type=MCSCF/NATURAL (state averaged)
 Occupation numbers read from record     2140.2  Type=MCSCF/NATURAL (state averaged)
 Orbital energies read from record       2140.2  Type=MCSCF/NATURAL (state averaged)
 Redundancy group numbers read from rec  2140.2  Type=MCSCF/NATURAL (state averaged)

 MULTI/6-31G* energy=    -77.547724721139

           MULTI          HF-SCF
    -77.54772472    -77.84569006
 **********************************************************************************************************************************
 Molpro calculation terminated
