
 Primary working directories    : /scratch.local/johan406.molpro_temp/molpro.LUl4ukWU5G
 Secondary working directories  : /scratch.local/johan406.molpro_temp/molpro.LUl4ukWU5G
 Wavefunction directory         : /home/goodpast/johan406/wfu/
 Main file repository           : /scratch.local/johan406.molpro_temp/molpro.LUl4ukWU5G/

 id        : roweumn

 Nodes     nprocs
 cn0391       1

 Using customized tuning parameters: mindgm=1; mindgv=20; mindgc=4; mindgr=1; noblas=0; minvec=7
 default implementation of scratch files=df  


 Variables initialized (934), CPU time= 0.00 sec
                                                                                 !leave this line blank
 
 gprint, orbitals=30
 memory, 125., m
 symmetry, nosym
 nelect=16
 basis=6-31g*
 
 geometry={
 C -0.667 0.1439 0.3221
 C 0.6759 -0.1938 -0.3824
 H -1.2281 0.9432 -0.1706
 H -0.8857 -0.8709 -0.125
 H 0.8947 0.821 0.0646
 H 1.237 -0.9931 0.1101
 }
 
 hf
 {multi,
 closed 7
 occ 9
 wf,spin=0;STATE,3
 }
 
 Commands  initialized (763), CPU time= 0.01 sec, 617 directives.
 Default parameters read. Elapsed time= 0.07 sec

 Checking input...
 Passed
1


                                         ***  PROGRAM SYSTEM MOLPRO  ***
                                       Copyright, TTI GmbH Stuttgart, 2015
                                    Version 2019.2 linked Oct 25 2019 22:50:27


 **********************************************************************************************************************************
 LABEL *                                                                                 
  64 bit serial version                                                                  DATE: 07-Feb-23          TIME: 15:27:37  
 **********************************************************************************************************************************

 SHA1:             8dbd9ae1082e4ce945b0f27595c9eb2d4aa09004
 **********************************************************************************************************************************


 Variable memory set to  125000000 words,  buffer space 

 SETTING NELECT         =        16.00000000                                  
 SETTING BASIS          =    6-31G*
 ZSYMEL=NOSYM


Geometry recognized as XYZ



 Recomputing integrals since basis changed


 Using spherical harmonics

 Library entry C      S 6-31G                selected for orbital group  1
 Library entry C      P 6-31G                selected for orbital group  1
 Library entry C      D 6-31G*               selected for orbital group  1
 Library entry H      S 6-31G                selected for orbital group  2


 PROGRAM * SEWARD (Integral evaluation for generally contracted gaussian basis sets)     Author: Roland Lindh, 1990

 Geometry written to block  1 of record 700


 Point group  C1  



 ATOMIC COORDINATES

 NR  ATOM    CHARGE       X              Y              Z

   1  C       6.00   -1.260447325    0.271931589    0.608680785
   2  C       6.00    1.277265888   -0.366228923   -0.722631270
   3  H       1.00   -2.320772654    1.782389681   -0.322387277
   4  H       1.00   -1.673730429   -1.645762482   -0.236215766
   5  H       1.00    1.690737964    1.551465148    0.122076308
   6  H       1.00    2.337591216   -1.876687014    0.208058846

 Bond lengths in Bohr (Angstrom)

 1-2  2.935920465  1-3  2.067041650  1-4  2.135931566  2-5  2.135893396  2-6  2.066871438
     ( 1.553622203)     ( 1.093831335)     ( 1.130286309)     ( 1.130266110)     ( 1.093741263)

 Bond angles

  1-2-5   78.04373953   1-2-6  113.45882396   2-1-3  113.45159821   2-1-4   78.03712790

  3-1-4  112.24957392   5-2-6  112.25605761

 NUCLEAR CHARGE:                   16
 NUMBER OF PRIMITIVE AOS:          72
 NUMBER OF SYMMETRY AOS:           70
 NUMBER OF CONTRACTIONS:           36   (   36A   )
 NUMBER OF CORE ORBITALS:           2   (    2A   )
 NUMBER OF VALENCE ORBITALS:       12   (   12A   )


 NUCLEAR REPULSION ENERGY   31.67578518

 Eigenvalues of metric

         1 0.116E-01 0.302E-01 0.576E-01 0.661E-01 0.804E-01 0.220E+00 0.255E+00 0.293E+00


 Contracted 2-electron integrals neglected if value below      1.0D-11
 AO integral compression algorithm  1   Integral accuracy      1.0D-11

     1.573 MB (compressed) written to integral file ( 58.6%)


 NUMBER OF SORTED TWO-ELECTRON INTEGRALS:     222111.     BUFFER LENGTH:  32768
 NUMBER OF SEGMENTS:   1  SEGMENT LENGTH:     222111      RECORD LENGTH: 524288

 Memory used in sort:       0.78 MW

 SORT1 READ      284735. AND WROTE      212527. INTEGRALS IN      1 RECORDS. CPU TIME:     0.01 SEC, REAL TIME:     0.00 SEC
 SORT2 READ      212527. AND WROTE      222111. INTEGRALS IN      6 RECORDS. CPU TIME:     0.02 SEC, REAL TIME:     0.03 SEC

 FILE SIZES:   FILE 1:    31.7 MBYTE,  FILE 4:     4.2 MBYTE,   TOTAL:     35.9 MBYTE

 OPERATOR DM      FOR CENTER  0  COORDINATES:    0.000000    0.000000    0.000000


 **********************************************************************************************************************************
 DATASETS  * FILE   NREC   LENGTH (MB)   RECORD NAMES
              1      19       31.12       500      610      700      900      950      970     1000      129      960     1100   
                                          VAR    BASINP    GEOM    SYMINP    ZMAT    AOBASIS   BASIS     P2S    ABASIS      S 
                                         1400     1410     1200     1210     1080     1600     1650     1300     1700   
                                           T        V       H0       H01     AOSYM     SMH    MOLCAS    ERIS     OPER   

 PROGRAMS   *        TOTAL       INT
 CPU TIMES  *         0.36      0.26
 REAL TIME  *         0.86 SEC
 DISK USED  *        36.24 MB
 **********************************************************************************************************************************


 PROGRAM * RHF-SCF (CLOSED SHELL)       Authors: W. Meyer, H.-J. Werner


 NUMBER OF ELECTRONS:       8+    8-    SPACE SYMMETRY=1    SPIN SYMMETRY: Singlet 
 CONVERGENCE THRESHOLDS:    1.00E-05 (Density)    1.00E-07 (Energy)
 MAX. NUMBER OF ITERATIONS:       60
 INTERPOLATION TYPE:            DIIS
 INTERPOLATION STEPS:              2 (START)      1 (STEP)
 LEVEL SHIFTS:                  0.00 (CLOSED)  0.00 (OPEN) 



 Orbital guess generated from atomic densities. Full valence occupancy:    8

 Molecular orbital dump at record        2100.2

 Initial occupancy:   8

 ITERATION    DDIFF          GRAD             ENERGY        2-EL.EN.            DIPOLE MOMENTS         DIIS   ORB.
    1      0.000D+00      0.000D+00       -77.79296434    114.317697    0.00012   -0.00000   -0.00018    0    start
    2      0.000D+00      0.664D-02       -77.80994423    113.641741    0.00012    0.00000   -0.00010    1    diag
    3      0.768D-02      0.201D-02       -77.81192254    113.944934    0.00018   -0.00003   -0.00017    2    diag
    4      0.306D-02      0.716D-03       -77.81230304    113.834148    0.00015   -0.00000   -0.00011    3    diag
    5      0.147D-02      0.325D-03       -77.81250230    113.847918    0.00021   -0.00004   -0.00019    4    diag
    6      0.108D-02      0.191D-03       -77.81262204    113.851719    0.00008    0.00004   -0.00001    5    diag
    7      0.961D-03      0.957D-04       -77.81265980    113.856266    0.00041   -0.00015   -0.00045    6    diag
    8      0.701D-03      0.291D-04       -77.81266231    113.857718   -0.00026    0.00022    0.00043    7    diag
    9      0.185D-03      0.128D-04       -77.81266244    113.857860    0.00034   -0.00011   -0.00035    8    diag
   10      0.278D-04      0.557D-05       -77.81266247    113.857875    0.00017   -0.00001   -0.00014    9    orth
   11      0.157D-04      0.963D-06       -77.81266247    113.857868    0.00018   -0.00002   -0.00014    9    diag
   12      0.341D-05      0.207D-06       -77.81266247    113.857866    0.00018   -0.00002   -0.00014    0    orth

 Final occupancy:   8

 !RHF STATE  1.1 Energy               -77.812662470708
 Nuclear energy                        31.67578518
 One-electron energy                 -166.41738088
 Two-electron energy                   56.92893323
 Virial quotient                       -1.00207264
 !RHF STATE  1.1 Dipole moment          0.00017666    -0.00001811    -0.00014247
 Dipole moment /Debye                   0.00044900    -0.00004603    -0.00036210

 ELECTRON ORBITALS
 =================

  Orbital  Occupation    Energy     Coefficients
    1.1     2.00000   -11.26580     1 1s    0.69983     2 1s    0.70912
    2.1     2.00000   -11.26521     1 1s    0.70916     2 1s   -0.69988
    3.1     2.00000    -1.02427     1 1s    0.27480     1 1s    0.25538     2 1s    0.27483     2 1s    0.25540
    4.1     2.00000    -0.78158     1 1s    0.30140     2 1s   -0.30136
    5.1     2.00000    -0.63214     1 2py   0.30566     2 2py   0.30578
    6.1     2.00000    -0.55348     1 2px   0.24942
    7.1     2.00000    -0.38247     1 1s    0.25185     1 2pz   0.29844     1 2pz   0.28228     2 1s   -0.25176     2 2pz   0.29848
                                    2 2pz   0.28232
    8.1     2.00000    -0.37479     1 2px   0.32100     2 2px  -0.32105     4 1s   -0.26170     5 1s   -0.26168
    9.1     0.00000     0.04757     1 1s    0.39470     1 2pz   0.32817     1 2pz   0.43888     2 1s    0.39469     2 2pz  -0.32820
                                    2 2pz  -0.43894
   10.1     0.00000     0.22406     1 1s   -1.12172     1 2px   0.37523     1 2py   0.31572     1 2pz   0.43151     2 1s   -1.12173
                                    2 2px  -0.37529     2 2py  -0.31570     2 2pz  -0.43138     3 1s    0.56761     4 1s    1.10256
                                    5 1s    1.10259     6 1s    0.56760
   11.1     0.00000     0.28731     1 1s   -1.58749     1 2py  -0.37533     1 2pz   0.53337     2 1s    1.58735     2 2py  -0.37484
                                    2 2pz   0.53306     3 1s    1.44795     6 1s   -1.44728
   12.1     0.00000     0.30678     1 1s   -0.65057     1 2px   0.35464     1 2py  -1.00032     1 2pz   0.41260     2 1s   -0.65160
                                    2 2px  -0.35450     2 2py   1.00067     2 2pz  -0.41287     3 1s    1.50741     4 1s   -0.50793
                                    5 1s   -0.50812     6 1s    1.50845
   13.1     0.00000     0.34962     1 1s   -0.72568     1 2px   0.55796     1 2py   0.69907     2 1s    0.72576     2 2px   0.55809
                                    2 2py   0.69904     4 1s    1.69557     5 1s   -1.69552
   14.1     0.00000     0.38197     1 1s   -1.53405     1 2px  -1.35539     1 2py   0.73864     1 2pz   0.65032     2 1s    1.53382
                                    2 2px  -1.35545     2 2py   0.73886     2 2pz   0.65030     3 1s   -0.62087     4 1s    0.61866
                                    5 1s   -0.61875     6 1s    0.62123
   15.1     0.00000     0.72088     1 2px  -0.55662     1 2px   0.85521     2 2px   0.55668     2 2px  -0.85536     4 1s    0.25534
                                    4 1s   -0.40863     5 1s    0.25536     5 1s   -0.40850
   16.1     0.00000     0.76554     1 1s    0.28860     1 2px  -0.30377     1 2py   0.34438     1 2px   0.67471     1 2py  -0.82122
                                    2 1s   -0.28818     2 2px  -0.30378     2 2py   0.34459     2 2px   0.67487     2 2py  -0.82193
                                    3 1s    0.48597     6 1s   -0.48606
   17.1     0.00000     0.77730     1 1s    0.27273     1 2py  -0.56857     1 2px  -0.28126     1 2py   1.19758     2 1s    0.27305
                                    2 2py   0.56837     2 2px   0.28108     2 2py  -1.19729     4 1s    0.25861     5 1s    0.25844
   18.1     0.00000     0.79268     1 1s    0.42095     1 2pz   0.72753     1 2py  -0.28141     1 2pz  -0.79404     2 1s   -0.42092
                                    2 2pz   0.72771     2 2py  -0.28168     2 2pz  -0.79424
   19.1     0.00000     0.85686     1 1s   -0.30583     1 2pz  -0.70167     1 2px   0.42758     1 2py  -0.43500     1 2pz   0.96737
                                    2 1s   -0.30581     2 2pz   0.70152     2 2px  -0.42770     2 2py   0.43494     2 2pz  -0.96720
   20.1     0.00000     0.93353     1 2px  -0.69416     1 2py  -0.33653     1 2px   1.05630     1 2py   0.81346     2 2px  -0.69405
                                    2 2py  -0.33661     2 2px   1.05626     2 2py   0.81373     4 1s    0.92107     5 1s   -0.92120
   21.1     0.00000     1.12164     1 1s   -0.73655     1 1s    1.29838     1 2px   0.26069     1 2py   0.35275     1 2px  -0.29387
                                    1 2py  -0.37820     2 1s   -0.73684     2 1s    1.29971     2 2px  -0.26047     2 2py  -0.35286
                                    2 2px   0.29286     2 2py   0.37868     4 1s    0.66974     4 1s   -1.17786     5 1s    0.66933
                                    5 1s   -1.17762
   22.1     0.00000     1.14363     1 2px  -0.28300     1 2py   0.64829     1 2px   0.58624     1 2py  -1.06551     2 2px  -0.28264
                                    2 2py   0.64755     2 2px   0.58599     2 2py  -1.06492     3 1s   -0.55083     3 1s    1.20111
                                    4 1s    0.29020     4 1s   -0.79093     5 1s   -0.28979     5 1s    0.79000     6 1s    0.54938
                                    6 1s   -1.19951
   23.1     0.00000     1.16036     1 1s   -0.25750     1 1s    1.41953     1 2px   1.11882     1 2pz  -0.30419     2 1s    0.25751
                                    2 1s   -1.41957     2 2px   1.11922     2 2pz  -0.30478     3 1s   -0.35836     3 1s    0.41579
                                    4 1s   -0.74861     4 1s    0.77325     5 1s    0.74930     5 1s   -0.77319     6 1s    0.36004
                                    6 1s   -0.41699
   24.1     0.00000     1.17774     1 1s    0.32938     1 2px   0.26088     1 2py  -0.36635     1 2py   0.31951     2 1s    0.32768
                                    2 2px  -0.26106     2 2py   0.36792     2 2py  -0.32159     3 1s    0.82121     3 1s   -0.91967
                                    4 1s    0.29998     5 1s    0.30353     6 1s    0.82144     6 1s   -0.92037
   25.1     0.00000     1.23587     1 1s   -1.28337     1 1s    2.16145     1 2px  -0.31105     1 2py   0.51969     1 2pz  -0.88575
                                    2 1s   -1.29125     2 1s    2.18201     2 2px   0.30804     2 2py  -0.51707     2 2pz   0.89075
                                    3 1s   -0.97547     4 1s   -0.38843     4 1s   -0.37813     5 1s   -0.38756     5 1s   -0.38309
                                    6 1s   -0.97963
   26.1     0.00000     1.24363     1 1s    1.60476     1 1s   -4.32410     1 2px  -0.76769     1 2py   0.61193     1 2pz   1.09254
                                    2 1s   -1.59844     2 1s    4.31346     2 2px  -0.76900     2 2py   0.61426     2 2pz   1.08795
                                    3 1s    0.71773     4 1s    0.94107     5 1s   -0.93882     6 1s   -0.71371
   27.1     0.00000     1.72774     1 1s    0.43070     1 3d0   0.43935     1 3d1+ -0.26439     1 3d2+ -0.29724     2 1s   -0.43057
                                    2 3d0  -0.43928     2 3d1+  0.26444     2 3d2+  0.29735
   28.1     0.00000     1.90077     1 1s    0.28776     1 1s   -1.16862     1 2px  -0.29360     1 2pz   0.33162     1 3d2-  0.37448
                                    1 3d1+ -0.36424     1 3d1- -0.39159     2 1s   -0.28749     2 1s    1.16818     2 2px  -0.29364
                                    2 2pz   0.33138     2 3d2- -0.37447     2 3d1+  0.36435     2 3d1-  0.39177     3 1s    0.26570
                                    6 1s   -0.26559
   29.1     0.00000     1.97740     1 1s    0.41153     1 1s   -0.74574     1 2pz   0.36297     1 3d0   0.38084     1 3d1+  0.39365
                                    1 3d2+  0.27491     1 3d1-  0.30205     2 1s    0.41151     2 1s   -0.74573     2 2pz  -0.36290
                                    2 3d0   0.38078     2 3d1+  0.39344     2 3d2+  0.27473     2 3d1-  0.30189     3 1s    0.27819
                                    6 1s    0.27825
   30.1     0.00000     2.13485     1 1s   -0.35268     1 2px   0.25644     1 3d2- -0.36746     1 3d1+ -0.33017     1 3d2+  0.41491
                                    2 1s   -0.35287     2 2px  -0.25670     2 3d2- -0.36752     2 3d1+ -0.33033     2 3d2+  0.41466
   31.1     0.00000     2.18913     1 1s    0.34315     1 1s   -1.52795     1 2px  -0.39812     1 2py   0.26403     1 2pz   0.44448
                                    1 3d0   0.52280     1 3d2+  0.39899     2 1s   -0.34299     2 1s    1.52803     2 2px  -0.39792
                                    2 2py   0.26391     2 2pz   0.44453     2 3d0  -0.52282     2 3d2+ -0.39927     3 1s    0.33605
                                    4 1s    0.38853     5 1s   -0.38872     6 1s   -0.33618
   32.1     0.00000     2.34824     1 2py   0.30557     1 3d0   0.55319     1 3d2- -0.30708     1 3d1- -0.29785     2 2py  -0.30567
                                    2 3d0   0.55319     2 3d2- -0.30715     2 3d1- -0.29785     3 1s   -0.27047     4 1s    0.25868
                                    5 1s    0.25873     6 1s   -0.27048
   33.1     0.00000     2.56683     1 3d0   0.26847     1 3d2-  0.61289     1 3d1+ -0.32191     1 3d2+  0.31864     2 3d0   0.27041
                                    2 3d2-  0.60114     2 3d1+ -0.31889     2 3d2+  0.32128     3 1s    0.34417     6 1s    0.33154
   34.1     0.00000     2.56991     1 2py  -0.31629     1 3d2-  0.46605     1 3d1-  0.61688     2 2py  -0.31314     2 3d2- -0.48120
                                    2 3d1- -0.61236     3 1s    0.51067     4 1s   -0.40571     5 1s    0.40077     6 1s   -0.51897
   35.1     0.00000     2.63883     1 2py  -0.36233     1 3d1+ -0.32289     1 3d2+ -0.38738     1 3d1-  0.60787     2 2py   0.36256
                                    2 3d1+ -0.32296     2 3d2+ -0.38734     2 3d1-  0.60813     3 1s    0.35636     4 1s   -0.47095
                                    5 1s   -0.47111     6 1s    0.35669
   36.1     0.00000     2.90480     1 1s   -1.59428     1 2px  -0.30459     1 2px  -0.81730     1 2pz   0.43278     1 3d2-  0.28179
                                    1 3d1+  0.66990     1 3d2+ -0.61599     2 1s    1.59425     2 2px  -0.30460     2 2px  -0.81731
                                    2 2pz   0.43278     2 3d2- -0.28177     2 3d1+ -0.66990     2 3d2+  0.61600


 HOMO      8.1    -0.374790 =     -10.1986eV
 LUMO      9.1     0.047573 =       1.2945eV
 LUMO-HOMO         0.422364 =      11.4931eV


 **********************************************************************************************************************************
 DATASETS  * FILE   NREC   LENGTH (MB)   RECORD NAMES
              1      19       31.12       500      610      700      900      950      970     1000      129      960     1100   
                                          VAR    BASINP    GEOM    SYMINP    ZMAT    AOBASIS   BASIS     P2S    ABASIS      S 
                                         1400     1410     1200     1210     1080     1600     1650     1300     1700   
                                           T        V       H0       H01     AOSYM     SMH    MOLCAS    ERIS     OPER   

              2       4        2.86       700     1000      520     2100   
                                         GEOM     BASIS   MCVARS     RHF  

 PROGRAMS   *        TOTAL    HF-SCF       INT
 CPU TIMES  *         0.49      0.13      0.26
 REAL TIME  *         1.05 SEC
 DISK USED  *        36.24 MB
 **********************************************************************************************************************************


 PROGRAM * MULTI (Direct Multiconfiguration SCF)       Authors: P.J. Knowles, H.-J. Werner (1984)


 Number of closed-shell orbitals:   7 (   7 )
 Number of active  orbitals:        2 (   2 )
 Number of external orbitals:      27 (  27 )

 State symmetry 1

 Number of electrons:     2    Spin symmetry=Singlet   Space symmetry=1
 Number of states:        3
 Number of CSFs:          3   (4 determinants, 4 intermediate states)

 Molecular orbitals read from record     2100.2  Type=RHF/CANONICAL (state 1.1)

 Wavefunction dump at record             2140.2

 Convergence thresholds  0.10E-01 (gradient)  0.10E-05 (energy)  0.10E-02 (step length)

 Weight factors for state symmetry  1:    0.33333   0.33333   0.33333

 Number of orbital rotations:      257   (    14 Core/Active    189 Core/Virtual   0 Active/Active     54 Active/Virtual)
 Total number of variables:        269

 Micro-Iterations solved by the two-step solver

 ITER. MIC  NCI  NEG     ENERGY(VAR)     ENERGY(PROJ)   ENERGY CHANGE     GRAD(0)  GRAD(ORB)   GRAD(CI)     STEP       TIME

   1    6    5    0     -77.69376128     -77.71406159   -0.02030031    0.17451756 0.00133043 0.00000000  0.15D+00      0.10
   2    6    5    0     -77.71362624     -77.71365209   -0.00002586    0.00740108 0.00000210 0.00000000  0.52D-02      0.18
   3    4    4    0     -77.71365214     -77.71365214   -0.00000000    0.00001649 0.00000000 0.00000000  0.20D-04      0.24

 ** WVFN ****  CONVERGENCE REACHED, FINAL GRADIENT:  0.17D-09



 Results for state 1.1
 =====================

 !MCSCF STATE  1.1 Energy             -77.806343525361
 Nuclear energy                        31.67578518
 Kinetic energy                        77.75692855
 One electron energy                 -166.56678122
 Two electron energy                   57.08465251
 Virial ratio                           2.00063551

 !MCSCF STATE  1.1 Dipole moment        0.00020090    -0.00001175    -0.00017777
 Dipole moment /Debye                   0.00051061    -0.00002985    -0.00045182

 Results for state 2.1
 =====================

 !MCSCF STATE  2.1 Energy             -77.737474157771
 Nuclear energy                        31.67578518
 Kinetic energy                        77.84049250
 One electron energy                 -166.18677108
 Two electron energy                   56.77351174
 Virial ratio                           1.99867655

 !MCSCF STATE  2.1 Dipole moment        0.00007033    -0.00004121    -0.00008612
 Dipole moment /Debye                   0.00017875    -0.00010473    -0.00021887

 Results for state 3.1
 =====================

 !MCSCF STATE  3.1 Energy             -77.597138733397
 Nuclear energy                        31.67578518
 Kinetic energy                        77.90121242
 One electron energy                 -165.83638123
 Two electron energy                   56.56345732
 Virial ratio                           1.99609668

 !MCSCF STATE  3.1 Dipole moment       -0.00003799    -0.00007145    -0.00002451
 Dipole moment /Debye                  -0.00009655    -0.00018159    -0.00006229

 State-averaged charge density matrix saved on record  2140.2 (density set 1)

 !MCSCF expec         <1.1|DMX|1.1>     0.000200904208 au =     0.000510614118 Debye
 !MCSCF trans         <2.1|DMX|1.1>    -0.000033242470 au =    -0.000084488396 Debye
 !MCSCF expec         <2.1|DMX|2.1>     0.000070329401 au =     0.000178747798 Debye
 !MCSCF trans         <3.1|DMX|1.1>     0.000020829279 au =     0.000052939278 Debye
 !MCSCF trans         <3.1|DMX|2.1>    -0.000049836284 au =    -0.000126662903 Debye
 !MCSCF expec         <3.1|DMX|3.1>    -0.000037988751 au =    -0.000096551450 Debye

 !MCSCF expec         <1.1|DMY|1.1>    -0.000011746011 au =    -0.000029853427 Debye
 !MCSCF trans         <2.1|DMY|1.1>     0.000002777597 au =     0.000007059485 Debye
 !MCSCF expec         <2.1|DMY|2.1>    -0.000041206576 au =    -0.000104729809 Debye
 !MCSCF trans         <3.1|DMY|1.1>     0.000004137757 au =     0.000010516441 Debye
 !MCSCF trans         <3.1|DMY|2.1>     0.000000343164 au =     0.000000872178 Debye
 !MCSCF expec         <3.1|DMY|3.1>    -0.000071445725 au =    -0.000181585025 Debye

 !MCSCF expec         <1.1|DMZ|1.1>    -0.000177771219 au =    -0.000451819775 Debye
 !MCSCF trans         <2.1|DMZ|1.1>     0.000048890384 au =     0.000124258822 Debye
 !MCSCF expec         <2.1|DMZ|2.1>    -0.000086116882 au =    -0.000218872946 Debye
 !MCSCF trans         <3.1|DMZ|1.1>    -0.000016017614 au =    -0.000040710047 Debye
 !MCSCF trans         <3.1|DMZ|2.1>     0.000063794228 au =     0.000162138133 Debye
 !MCSCF expec         <3.1|DMZ|3.1>    -0.000024507677 au =    -0.000062288222 Debye


 NATURAL ORBITALS (state averaged)
 =================================

  Orbital  Occupation    Energy     Coefficients
    1.1     2.00000   -11.26501     1 1s    0.71116     2 1s    0.69775
    2.1     2.00000   -11.26454     1 1s    0.69776     2 1s   -0.71117
    3.1     2.00000    -1.03892     1 1s    0.27274     1 1s    0.25109     2 1s    0.27276     2 1s    0.25109
    4.1     2.00000    -0.78435     1 1s    0.32270     2 1s   -0.32269
    5.1     2.00000    -0.63876     1 2py   0.30137     2 2py   0.30146
    6.1     2.00000    -0.55767     1 2py  -0.26335     2 2py   0.26327
    7.1     2.00000    -0.41518     1 2pz   0.31800     1 2pz   0.27706     2 2pz   0.31799     2 2pz   0.27707
    8.1     1.00000    -0.10593     1 1s    0.26216     1 2pz   0.40389     1 2pz   0.39976     2 1s    0.26216     2 2pz  -0.40392
                                    2 2pz  -0.39980
    9.1     1.00000    -0.20926     1 2px   0.34395     2 2px  -0.34395     4 1s   -0.26900     5 1s   -0.26897
   10.1    -0.00000     0.21279     1 1s   -1.13516     1 2px   0.37258     1 2py   0.32252     1 2pz   0.37611     2 1s   -1.13509
                                    2 2px  -0.37263     2 2py  -0.32248     2 2pz  -0.37596     3 1s    0.54516     4 1s    1.11061
                                    5 1s    1.11057     6 1s    0.54509
   11.1    -0.00000     0.28431     1 1s   -1.65458     1 2py  -0.31550     1 2pz   0.54318     2 1s    1.65437     2 2py  -0.31486
                                    2 2pz   0.54286     3 1s    1.43621     6 1s   -1.43535
   12.1    -0.00000     0.30753     1 1s   -0.69555     1 2px   0.35209     1 2py  -0.99273     1 2pz   0.38877     2 1s   -0.69697
                                    2 2px  -0.35194     2 2py   0.99300     2 2pz  -0.38915     3 1s    1.52129     4 1s   -0.47414
                                    5 1s   -0.47406     6 1s    1.52250
   13.1    -0.00000     0.34037     1 1s   -0.99372     1 2py   0.91316     1 2pz   0.33789     2 1s    0.99369     2 2py   0.91331
                                    2 2pz   0.33788     4 1s    1.79998     5 1s   -1.80004
   14.1    -0.00000     0.38485     1 1s   -1.20266     1 2px  -0.27527     1 2px  -1.46203     1 2py   0.45328     1 2pz   0.52965
                                    2 1s    1.20241     2 2px  -0.27527     2 2px  -1.46213     2 2py   0.45351     2 2pz   0.52963
                                    3 1s   -0.62852     6 1s    0.62893
   15.1    -0.00000     0.71690     1 2px  -0.53846     1 2px   0.82678     2 2px   0.53848     2 2px  -0.82688     4 1s    0.29683
                                    4 1s   -0.45496     5 1s    0.29684     5 1s   -0.45486
   16.1    -0.00000     0.76239     1 1s    0.32346     1 2px  -0.29690     1 2py   0.33698     1 2px   0.68103     1 2py  -0.82974
                                    2 1s   -0.32320     2 2px  -0.29683     2 2py   0.33683     2 2px   0.68101     2 2py  -0.82966
                                    3 1s    0.48479     6 1s   -0.48475
   17.1    -0.00000     0.77567     1 2py  -0.54116     1 2px  -0.31566     1 2py   1.17529     2 2py   0.54116     2 2px   0.31582
                                    2 2py  -1.17540
   18.1    -0.00000     0.78979     1 1s    0.62200     1 2pz   0.71907     1 2px   0.29564     1 2py  -0.32600     1 2pz  -0.85818
                                    2 1s   -0.62195     2 2pz   0.71926     2 2px   0.29573     2 2py  -0.32666     2 2pz  -0.85837
   19.1    -0.00000     0.85134     1 1s   -0.26012     1 2pz  -0.67403     1 2px   0.45844     1 2py  -0.45313     1 2pz   1.02270
                                    2 1s   -0.26011     2 2pz   0.67395     2 2px  -0.45852     2 2py   0.45307     2 2pz  -1.02261
                                    3 1s    0.25610     6 1s    0.25612
   20.1    -0.00000     0.93754     1 2px  -0.69621     1 2py  -0.32211     1 2px   0.97330     1 2py   0.80314     2 2px  -0.69610
                                    2 2py  -0.32221     2 2px   0.97329     2 2py   0.80343     4 1s    0.84894     5 1s   -0.84908
   21.1    -0.00000     1.09954     1 1s   -0.71172     1 1s    1.25198     1 2px   0.26947     1 2py   0.37828     1 2px  -0.29740
                                    1 2py  -0.41497     2 1s   -0.71189     2 1s    1.25295     2 2px  -0.26930     2 2py  -0.37801
                                    2 2px   0.29652     2 2py   0.41486     4 1s    0.67184     4 1s   -1.16854     5 1s    0.67115
                                    5 1s   -1.16761
   22.1    -0.00000     1.12965     1 1s    0.42179     1 2py  -0.59852     1 2px   0.36061     1 2py   0.72883     2 1s   -0.42113
                                    2 2py  -0.59841     2 2px   0.36103     2 2py   0.72890     3 1s   -0.45167     4 1s   -0.73750
                                    4 1s    1.23666     5 1s    0.73806     5 1s   -1.23701     6 1s    0.45072
   23.1    -0.00000     1.14704     1 1s    1.10771     1 2px  -0.35784     1 2py   0.33477     1 2px   1.22243     1 2py  -0.84288
                                    2 1s   -1.10839     2 2px  -0.35786     2 2py   0.33422     2 2px   1.22234     2 2py  -0.84236
                                    3 1s   -0.64584     3 1s    1.16637     4 1s   -0.29982     5 1s    0.30046     6 1s    0.64521
                                    6 1s   -1.16525
   24.1    -0.00000     1.17890     1 2px   0.26467     1 2py  -0.34804     1 2py   0.27508     2 2px  -0.26499     2 2py   0.34914
                                    2 2py  -0.27727     3 1s    0.83563     3 1s   -0.85603     4 1s    0.30017     5 1s    0.30263
                                    6 1s    0.83618     6 1s   -0.85654
   25.1    -0.00000     1.22822     1 1s   -1.31547     1 1s    2.21267     1 2px  -0.32237     1 2py   0.54747     1 2pz  -0.86867
                                    2 1s   -1.32435     2 1s    2.23615     2 2px   0.31860     2 2py  -0.54504     2 2pz   0.87427
                                    3 1s   -1.03395     4 1s   -0.37076     4 1s   -0.38917     5 1s   -0.37044     5 1s   -0.39372
                                    6 1s   -1.03883
   26.1    -0.00000     1.23373     1 1s    1.62298     1 1s   -4.39821     1 2px  -0.81725     1 2py   0.54091     1 2pz   1.08883
                                    2 1s   -1.61588     2 1s    4.38621     2 2px  -0.81872     2 2py   0.54361     2 2pz   1.08378
                                    3 1s    0.75805     4 1s    0.82019     5 1s   -0.81760     6 1s   -0.75352
   27.1    -0.00000     1.72127     1 1s    0.46242     1 3d0   0.43281     1 3d2- -0.25047     1 3d1+ -0.26243     1 3d2+ -0.29992
                                    2 1s   -0.46228     2 3d0  -0.43272     2 3d2-  0.25045     2 3d1+  0.26248     2 3d2+  0.30001
   28.1    -0.00000     1.89389     1 1s    0.28392     1 1s   -1.15526     1 2px  -0.28924     1 2pz   0.32830     1 3d2-  0.37265
                                    1 3d1+ -0.36746     1 3d1- -0.38912     2 1s   -0.28368     2 1s    1.15491     2 2px  -0.28926
                                    2 2pz   0.32810     2 3d2- -0.37262     2 3d1+  0.36753     2 3d1-  0.38926     3 1s    0.27121
                                    6 1s   -0.27113
   29.1    -0.00000     1.97471     1 1s    0.40009     1 1s   -0.73576     1 2pz   0.35843     1 3d0   0.37680     1 3d1+  0.38887
                                    1 3d2+  0.28470     1 3d1-  0.30492     2 1s    0.40003     2 1s   -0.73555     2 2pz  -0.35831
                                    2 3d0   0.37672     2 3d1+  0.38869     2 3d2+  0.28451     2 3d1-  0.30480     3 1s    0.27611
                                    6 1s    0.27617
   30.1    -0.00000     2.12349     1 1s   -0.35746     1 2px   0.25552     1 3d2- -0.36948     1 3d1+ -0.33637     1 3d2+  0.41189
                                    2 1s   -0.35762     2 2px  -0.25574     2 3d2- -0.36952     2 3d1+ -0.33649     2 3d2+  0.41168
   31.1    -0.00000     2.18664     1 1s    0.34369     1 1s   -1.51361     1 2px  -0.39334     1 2py   0.26649     1 2pz   0.43837
                                    1 3d0   0.52669     1 3d2+  0.40173     2 1s   -0.34357     2 1s    1.51372     2 2px  -0.39315
                                    2 2py   0.26638     2 2pz   0.43844     2 3d0  -0.52672     2 3d2+ -0.40198     3 1s    0.33554
                                    4 1s    0.38345     5 1s   -0.38362     6 1s   -0.33566
   32.1    -0.00000     2.34230     1 2py   0.30737     1 3d0   0.54819     1 3d2- -0.31872     1 3d1- -0.29581     2 2py  -0.30746
                                    2 3d0   0.54819     2 3d2- -0.31878     2 3d1- -0.29578     3 1s   -0.27969     4 1s    0.25072
                                    5 1s    0.25076     6 1s   -0.27968
   33.1    -0.00000     2.55962     1 3d0   0.27225     1 3d2-  0.59584     1 3d1+ -0.30482     1 3d2+  0.33692     2 3d0   0.27345
                                    2 3d2-  0.58859     2 3d1+ -0.30302     2 3d2+  0.33861     3 1s    0.31868     6 1s    0.31094
   34.1    -0.00000     2.56468     1 2py  -0.31752     1 3d2-  0.47058     1 3d1-  0.61711     2 2py  -0.31507     2 3d2- -0.47969
                                    2 3d1- -0.61352     3 1s    0.51475     4 1s   -0.39811     5 1s    0.39451     6 1s   -0.51942
   35.1    -0.00000     2.63551     1 2py  -0.35987     1 3d1+ -0.34363     1 3d2+ -0.36487     1 3d1-  0.59970     2 2py   0.36015
                                    2 3d1+ -0.34372     2 3d2+ -0.36485     2 3d1-  0.60004     3 1s    0.37545     4 1s   -0.45132
                                    5 1s   -0.45153     6 1s    0.37586
   36.1    -0.00000     2.89497     1 1s   -1.61988     1 2px  -0.29815     1 2px  -0.82772     1 2pz   0.43950     1 3d2-  0.28038
                                    1 3d1+  0.67235     1 3d2+ -0.61276     2 1s    1.61984     2 2px  -0.29816     2 2px  -0.82772
                                    2 2pz   0.43949     2 3d2- -0.28036     2 3d1+ -0.67236     2 3d2+  0.61278


 Natural orbital dump (state averaged) at molpro section  2140.2    (Orbital set 2)



 **********************************************************************************************************************************
 DATASETS  * FILE   NREC   LENGTH (MB)   RECORD NAMES
              1      20       31.85       500      610      700      900      950      970     1000      129      960     1100   
                                          VAR    BASINP    GEOM    SYMINP    ZMAT    AOBASIS   BASIS     P2S    ABASIS      S 
                                         1400     1410     1200     1210     1080     1600     1650     1300     1700     1380   
                                           T        V       H0       H01     AOSYM     SMH    MOLCAS    ERIS     OPER     JKOP   

              2       5        5.42       700     1000      520     2100     2140   
                                         GEOM     BASIS   MCVARS     RHF     MCSCF   

 PROGRAMS   *        TOTAL     MULTI    HF-SCF       INT
 CPU TIMES  *         0.79      0.29      0.13      0.26
 REAL TIME  *         1.45 SEC
 DISK USED  *        39.04 MB
 **********************************************************************************************************************************
 Molecular orbitals read from record     2140.2  Type=MCSCF/NATURAL (state averaged)
 Occupation numbers read from record     2140.2  Type=MCSCF/NATURAL (state averaged)
 Orbital energies read from record       2140.2  Type=MCSCF/NATURAL (state averaged)
 Redundancy group numbers read from rec  2140.2  Type=MCSCF/NATURAL (state averaged)

 MULTI/6-31G* energy=    -77.597138733397

           MULTI          HF-SCF
    -77.59713873    -77.81266247
 **********************************************************************************************************************************
 Molpro calculation terminated
