
 Primary working directories    : /scratch.local/johan406.molpro_temp/molpro.PF9f821UQG
 Secondary working directories  : /scratch.local/johan406.molpro_temp/molpro.PF9f821UQG
 Wavefunction directory         : /home/goodpast/johan406/wfu/
 Main file repository           : /scratch.local/johan406.molpro_temp/molpro.PF9f821UQG/

 id        : roweumn

 Nodes     nprocs
 cn0391       1

 Using customized tuning parameters: mindgm=1; mindgv=20; mindgc=4; mindgr=1; noblas=0; minvec=7
 default implementation of scratch files=df  


 Variables initialized (934), CPU time= 0.00 sec
                                                                                 !leave this line blank
 
 gprint, orbitals=30
 memory, 125., m
 symmetry, nosym
 nelect=16
 basis=6-31g*
 
 geometry={
 C -0.6754 0.1452 0.3269
 C 0.6842 -0.1951 -0.3872
 H -1.2201 0.9528 -0.1738
 H -0.8701 -0.8718 -0.1224
 H 0.879 0.8219 0.062
 H 1.229 -1.0027 0.1133
 }
 
 hf
 {multi,
 closed 7
 occ 9
 wf,spin=0;STATE,3
 }
 
 Commands  initialized (763), CPU time= 0.01 sec, 617 directives.
 Default parameters read. Elapsed time= 0.07 sec

 Checking input...
 Passed
1


                                         ***  PROGRAM SYSTEM MOLPRO  ***
                                       Copyright, TTI GmbH Stuttgart, 2015
                                    Version 2019.2 linked Oct 25 2019 22:50:27


 **********************************************************************************************************************************
 LABEL *                                                                                 
  64 bit serial version                                                                  DATE: 07-Feb-23          TIME: 15:29:06  
 **********************************************************************************************************************************

 SHA1:             8dbd9ae1082e4ce945b0f27595c9eb2d4aa09004
 **********************************************************************************************************************************


 Variable memory set to  125000000 words,  buffer space 

 SETTING NELECT         =        16.00000000                                  
 SETTING BASIS          =    6-31G*
 ZSYMEL=NOSYM


Geometry recognized as XYZ



 Recomputing integrals since basis changed


 Using spherical harmonics

 Library entry C      S 6-31G                selected for orbital group  1
 Library entry C      P 6-31G                selected for orbital group  1
 Library entry C      D 6-31G*               selected for orbital group  1
 Library entry H      S 6-31G                selected for orbital group  2


 PROGRAM * SEWARD (Integral evaluation for generally contracted gaussian basis sets)     Author: Roland Lindh, 1990

 Geometry written to block  1 of record 700


 Point group  C1  



 ATOMIC COORDINATES

 NR  ATOM    CHARGE       X              Y              Z

   1  C       6.00   -1.276321025    0.274388233    0.617751470
   2  C       6.00    1.292950614   -0.368685567   -0.731701955
   3  H       1.00   -2.305654845    1.800531051   -0.328434400
   4  H       1.00   -1.644250701   -1.647463235   -0.231302478
   5  H       1.00    1.661069263    1.553165902    0.117163020
   6  H       1.00    2.322473407   -1.894828385    0.214105970

 Bond lengths in Bohr (Angstrom)

 1-2  2.972494780  1-3  2.069760304  1-4  2.133020844  2-5  2.132978236  2-6  2.069681549
     ( 1.572976497)     ( 1.095269985)     ( 1.128746021)     ( 1.128723474)     ( 1.095228310)

 Bond angles

  1-2-5   76.91327183   1-2-6  112.45876626   2-1-3  112.44783329   2-1-4   76.90666745

  3-1-4  113.36591564   5-2-6  113.37068236

 NUCLEAR CHARGE:                   16
 NUMBER OF PRIMITIVE AOS:          72
 NUMBER OF SYMMETRY AOS:           70
 NUMBER OF CONTRACTIONS:           36   (   36A   )
 NUMBER OF CORE ORBITALS:           2   (    2A   )
 NUMBER OF VALENCE ORBITALS:       12   (   12A   )


 NUCLEAR REPULSION ENERGY   31.53286930

 Eigenvalues of metric

         1 0.121E-01 0.308E-01 0.564E-01 0.676E-01 0.803E-01 0.222E+00 0.259E+00 0.294E+00


 Contracted 2-electron integrals neglected if value below      1.0D-11
 AO integral compression algorithm  1   Integral accuracy      1.0D-11

     1.573 MB (compressed) written to integral file ( 58.5%)


 NUMBER OF SORTED TWO-ELECTRON INTEGRALS:     222111.     BUFFER LENGTH:  32768
 NUMBER OF SEGMENTS:   1  SEGMENT LENGTH:     222111      RECORD LENGTH: 524288

 Memory used in sort:       0.78 MW

 SORT1 READ      284735. AND WROTE      212529. INTEGRALS IN      1 RECORDS. CPU TIME:     0.00 SEC, REAL TIME:     0.01 SEC
 SORT2 READ      212529. AND WROTE      222111. INTEGRALS IN      6 RECORDS. CPU TIME:     0.03 SEC, REAL TIME:     0.03 SEC

 FILE SIZES:   FILE 1:    31.7 MBYTE,  FILE 4:     4.2 MBYTE,   TOTAL:     35.9 MBYTE

 OPERATOR DM      FOR CENTER  0  COORDINATES:    0.000000    0.000000    0.000000


 **********************************************************************************************************************************
 DATASETS  * FILE   NREC   LENGTH (MB)   RECORD NAMES
              1      19       31.12       500      610      700      900      950      970     1000      129      960     1100   
                                          VAR    BASINP    GEOM    SYMINP    ZMAT    AOBASIS   BASIS     P2S    ABASIS      S 
                                         1400     1410     1200     1210     1080     1600     1650     1300     1700   
                                           T        V       H0       H01     AOSYM     SMH    MOLCAS    ERIS     OPER   

 PROGRAMS   *        TOTAL       INT
 CPU TIMES  *         0.38      0.29
 REAL TIME  *         0.66 SEC
 DISK USED  *        36.24 MB
 **********************************************************************************************************************************


 PROGRAM * RHF-SCF (CLOSED SHELL)       Authors: W. Meyer, H.-J. Werner


 NUMBER OF ELECTRONS:       8+    8-    SPACE SYMMETRY=1    SPIN SYMMETRY: Singlet 
 CONVERGENCE THRESHOLDS:    1.00E-05 (Density)    1.00E-07 (Energy)
 MAX. NUMBER OF ITERATIONS:       60
 INTERPOLATION TYPE:            DIIS
 INTERPOLATION STEPS:              2 (START)      1 (STEP)
 LEVEL SHIFTS:                  0.00 (CLOSED)  0.00 (OPEN) 



 Orbital guess generated from atomic densities. Full valence occupancy:    8

 Molecular orbital dump at record        2100.2

 Initial occupancy:   8

 ITERATION    DDIFF          GRAD             ENERGY        2-EL.EN.            DIPOLE MOMENTS         DIIS   ORB.
    1      0.000D+00      0.000D+00       -77.78448945    113.978930    0.00021   -0.00003   -0.00022    0    start
    2      0.000D+00      0.658D-02       -77.80128895    113.367464    0.00012    0.00002   -0.00007    1    diag
    3      0.774D-02      0.197D-02       -77.80321455    113.647291    0.00025   -0.00005   -0.00022    2    diag
    4      0.308D-02      0.679D-03       -77.80356303    113.542205    0.00014    0.00002   -0.00007    3    diag
    5      0.143D-02      0.317D-03       -77.80375156    113.557639    0.00030   -0.00007   -0.00027    4    diag
    6      0.103D-02      0.196D-03       -77.80387802    113.561497   -0.00005    0.00012    0.00018    5    diag
    7      0.959D-03      0.108D-03       -77.80393140    113.567424    0.00088   -0.00037   -0.00100    6    diag
    8      0.861D-03      0.366D-04       -77.80393504    113.569068   -0.00069    0.00046    0.00098    7    diag
    9      0.205D-03      0.235D-04       -77.80393558    113.569605    0.00029   -0.00006   -0.00025    8    diag
   10      0.746D-04      0.574D-05       -77.80393563    113.569656    0.00020   -0.00001   -0.00014    9    orth
   11      0.220D-04      0.111D-05       -77.80393564    113.569650    0.00020   -0.00001   -0.00015    9    diag
   12      0.407D-05      0.248D-06       -77.80393564    113.569647    0.00020   -0.00001   -0.00015    0    orth

 Final occupancy:   8

 !RHF STATE  1.1 Energy               -77.803935635333
 Nuclear energy                        31.53286930
 One-electron energy                 -166.12162863
 Two-electron energy                   56.78482369
 Virial quotient                       -1.00226294
 !RHF STATE  1.1 Dipole moment          0.00020095    -0.00001344    -0.00014502
 Dipole moment /Debye                   0.00051074    -0.00003416    -0.00036859

 ELECTRON ORBITALS
 =================

  Orbital  Occupation    Energy     Coefficients
    1.1     2.00000   -11.26737     1 1s    0.69671     2 1s    0.71221
    2.1     2.00000   -11.26681     1 1s    0.71224     2 1s   -0.69674
    3.1     2.00000    -1.02222     1 1s    0.27308     1 1s    0.25662     2 1s    0.27310     2 1s    0.25664
    4.1     2.00000    -0.78082     1 1s    0.30389     2 1s   -0.30387
    5.1     2.00000    -0.63404     1 2py   0.30505     2 2py   0.30513
    6.1     2.00000    -0.55267     1 2py  -0.24856
    7.1     2.00000    -0.38094     1 1s    0.25855     1 2pz   0.29661     1 2pz   0.28131     2 1s   -0.25847     2 2pz   0.29661
                                    2 2pz   0.28133
    8.1     2.00000    -0.37111     1 2px   0.32778     2 2px  -0.32777     4 1s   -0.25603     5 1s   -0.25600
    9.1     0.00000     0.04445     1 1s    0.39562     1 2pz   0.32715     1 2pz   0.43223     2 1s    0.39564     2 2pz  -0.32718
                                    2 2pz  -0.43227
   10.1     0.00000     0.22230     1 1s   -1.12578     1 2px   0.35346     1 2py   0.30467     1 2pz   0.43225     2 1s   -1.12574
                                    2 2px  -0.35353     2 2py  -0.30469     2 2pz  -0.43211     3 1s    0.56731     4 1s    1.10411
                                    5 1s    1.10415     6 1s    0.56724
   11.1     0.00000     0.28775     1 1s   -1.58626     1 2py  -0.37766     1 2pz   0.54718     2 1s    1.58643     2 2py  -0.37771
                                    2 2pz   0.54713     3 1s    1.44114     6 1s   -1.44126
   12.1     0.00000     0.30538     1 1s   -0.62664     1 2px   0.34665     1 2py  -0.99672     1 2pz   0.40409     2 1s   -0.62660
                                    2 2px  -0.34665     2 2py   0.99676     2 2pz  -0.40399     3 1s    1.49467     4 1s   -0.52745
                                    5 1s   -0.52757     6 1s    1.49471
   13.1     0.00000     0.35003     1 1s   -0.51354     1 2px   0.25441     1 2px   0.73965     1 2py   0.58474     2 1s    0.51362
                                    2 2px   0.25444     2 2px   0.73977     2 2py   0.58474     4 1s    1.58365     5 1s   -1.58362
   14.1     0.00000     0.37440     1 1s   -1.50894     1 2px  -1.19114     1 2py   0.83925     1 2pz   0.64046     2 1s    1.50873
                                    2 2px  -1.19119     2 2py   0.83945     2 2pz   0.64044     3 1s   -0.60351     4 1s    0.89277
                                    5 1s   -0.89284     6 1s    0.60387
   15.1     0.00000     0.72430     1 2px  -0.55373     1 2px   0.83420     2 2px   0.55376     2 2px  -0.83434     4 1s    0.26657
                                    4 1s   -0.40387     5 1s    0.26660     5 1s   -0.40371
   16.1     0.00000     0.76725     1 1s    0.27849     1 2px  -0.32146     1 2py   0.33490     1 2px   0.68240     1 2py  -0.81734
                                    2 1s   -0.27854     2 2px  -0.32125     2 2py   0.33421     2 2px   0.68212     2 2py  -0.81607
                                    3 1s    0.48472     6 1s   -0.48453
   17.1     0.00000     0.77551     1 1s   -0.28518     1 2py   0.56123     1 2px   0.31396     1 2py  -1.18224     2 1s   -0.28476
                                    2 2py  -0.56159     2 2px  -0.31504     2 2py   1.18333
   18.1     0.00000     0.79097     1 1s    0.45891     1 2pz   0.72336     1 2px   0.30443     1 2py  -0.31877     1 2pz  -0.80407
                                    2 1s   -0.45895     2 2pz   0.72345     2 2px   0.30428     2 2py  -0.31871     2 2pz  -0.80418
   19.1     0.00000     0.85547     1 1s   -0.29681     1 2pz  -0.70426     1 2px   0.42054     1 2py  -0.41534     1 2pz   0.96683
                                    2 1s   -0.29683     2 2pz   0.70414     2 2px  -0.42088     2 2py   0.41541     2 2pz  -0.96664
   20.1     0.00000     0.92599     1 2px  -0.68053     1 2py  -0.33975     1 2px   1.01591     1 2py   0.84281     2 2px  -0.68039
                                    2 2py  -0.33986     2 2px   1.01583     2 2py   0.84311     4 1s    0.90665     5 1s   -0.90679
   21.1     0.00000     1.12054     1 1s   -0.73604     1 1s    1.29100     1 2px   0.26478     1 2py   0.33715     1 2px  -0.28248
                                    1 2py  -0.37212     2 1s   -0.73635     2 1s    1.29241     2 2px  -0.26455     2 2py  -0.33723
                                    2 2px   0.28141     2 2py   0.37257     4 1s    0.67122     4 1s   -1.16064     5 1s    0.67074
                                    5 1s   -1.16029
   22.1     0.00000     1.14460     1 1s    0.28642     1 2px  -0.27756     1 2py   0.64359     1 2px   0.61216     1 2py  -1.07445
                                    2 1s   -0.28634     2 2px  -0.27751     2 2py   0.64320     2 2px   0.61214     2 2py  -1.07413
                                    3 1s   -0.57049     3 1s    1.20847     4 1s    0.25848     4 1s   -0.76511     5 1s   -0.25809
                                    5 1s    0.76446     6 1s    0.56998     6 1s   -1.20784
   23.1     0.00000     1.15150     1 1s   -0.36804     1 1s    1.61627     1 2px   1.13642     1 2pz  -0.35061     2 1s    0.36789
                                    2 1s   -1.61607     2 2px   1.13695     2 2pz  -0.35116     3 1s   -0.32778     3 1s    0.31774
                                    4 1s   -0.74538     4 1s    0.77716     5 1s    0.74596     5 1s   -0.77689     6 1s    0.32985
                                    6 1s   -0.31948
   24.1     0.00000     1.17471     1 2px   0.25387     1 2py  -0.38114     1 2py   0.33318     2 2px  -0.25372     2 2py   0.38210
                                    2 2py  -0.33390     3 1s    0.82033     3 1s   -0.89173     4 1s    0.38040     5 1s    0.38322
                                    6 1s    0.81986     6 1s   -0.89133
   25.1     0.00000     1.23229     1 1s   -1.29316     1 1s    2.15341     1 2px  -0.26926     1 2py   0.51096     1 2pz  -0.86375
                                    2 1s   -1.30316     2 1s    2.17891     2 2px   0.26572     2 2py  -0.50757     2 2pz   0.87006
                                    3 1s   -0.97660     4 1s   -0.38026     4 1s   -0.38153     5 1s   -0.37906     5 1s   -0.38805
                                    6 1s   -0.98185
   26.1     0.00000     1.23815     1 1s    1.58046     1 1s   -4.13589     1 2px  -0.67541     1 2py   0.57966     1 2pz   1.05793
                                    2 1s   -1.57209     2 1s    4.12195     2 2px  -0.67690     2 2py   0.58280     2 2pz   1.05219
                                    3 1s    0.75253     4 1s    0.98367     5 1s   -0.98094     6 1s   -0.74674
   27.1     0.00000     1.73604     1 1s    0.36842     1 3d0   0.45611     1 3d1+ -0.27509     1 3d2+ -0.29092     2 1s   -0.36826
                                    2 3d0  -0.45602     2 3d1+  0.27515     2 3d2+  0.29104
   28.1     0.00000     1.89602     1 1s    0.28244     1 1s   -1.12483     1 2px  -0.28655     1 2pz   0.32435     1 3d2-  0.38988
                                    1 3d1+ -0.35612     1 3d1- -0.39034     2 1s   -0.28225     2 1s    1.12456     2 2px  -0.28652
                                    2 2pz   0.32421     2 3d2- -0.38982     2 3d1+  0.35617     2 3d1-  0.39050     3 1s    0.25065
                                    6 1s   -0.25060
   29.1     0.00000     1.98644     1 1s    0.43893     1 1s   -0.75522     1 2pz   0.36055     1 3d0   0.38632     1 3d1+  0.41713
                                    1 3d1-  0.29096     2 1s    0.43890     2 1s   -0.75509     2 2pz  -0.36045     2 3d0   0.38635
                                    2 3d1+  0.41697     2 3d1-  0.29089     3 1s    0.27364     6 1s    0.27364
   30.1     0.00000     2.11375     1 1s   -0.30137     1 2px   0.25001     1 3d2- -0.37781     1 3d1+ -0.29798     1 3d2+  0.43084
                                    2 1s   -0.30144     2 2px  -0.25018     2 3d2- -0.37778     2 3d1+ -0.29808     2 3d2+  0.43074
   31.1     0.00000     2.19190     1 1s    0.34153     1 1s   -1.49713     1 2px  -0.39921     1 2py   0.26049     1 2pz   0.44214
                                    1 3d0   0.51073     1 3d2+  0.40818     2 1s   -0.34142     2 1s    1.49712     2 2px  -0.39907
                                    2 2py   0.26041     2 2pz   0.44217     2 3d0  -0.51064     2 3d2+ -0.40829     3 1s    0.33233
                                    4 1s    0.40062     5 1s   -0.40064     6 1s   -0.33239
   32.1     0.00000     2.34389     1 2py   0.29390     1 3d0   0.55381     1 3d2- -0.29346     1 3d1- -0.28531     2 2py  -0.29410
                                    2 3d0   0.55390     2 3d2- -0.29357     2 3d1- -0.28542     3 1s   -0.26799     6 1s   -0.26798
   33.1     0.00000     2.54396     1 3d0   0.28388     1 3d2-  0.60981     1 3d1+ -0.34245     1 3d2+  0.28820     2 3d0   0.28424
                                    2 3d2-  0.60845     2 3d1+ -0.34211     2 3d2+  0.28860     3 1s    0.36868     6 1s    0.36731
   34.1     0.00000     2.56466     1 2py  -0.31958     1 3d2-  0.46826     1 3d1-  0.61852     2 2py  -0.31926     2 3d2- -0.47014
                                    2 3d1- -0.61796     3 1s    0.51653     4 1s   -0.40097     5 1s    0.40045     6 1s   -0.51750
   35.1     0.00000     2.62878     1 2py  -0.37450     1 3d1+ -0.28505     1 3d2+ -0.40394     1 3d1-  0.63074     2 2py   0.37466
                                    2 3d1+ -0.28513     2 3d2+ -0.40388     2 3d1-  0.63082     3 1s    0.32856     4 1s   -0.49774
                                    5 1s   -0.49780     6 1s    0.32871
   36.1     0.00000     2.89396     1 1s   -1.56554     1 2px  -0.28124     1 2px  -0.80451     1 2pz   0.42997     1 3d2-  0.26931
                                    1 3d1+  0.66425     1 3d2+ -0.60984     2 1s    1.56550     2 2px  -0.28126     2 2px  -0.80450
                                    2 2pz   0.42996     2 3d2- -0.26930     2 3d1+ -0.66423     2 3d2+  0.60985


 HOMO      8.1    -0.371112 =     -10.0985eV
 LUMO      9.1     0.044447 =       1.2095eV
 LUMO-HOMO         0.415558 =      11.3079eV


 **********************************************************************************************************************************
 DATASETS  * FILE   NREC   LENGTH (MB)   RECORD NAMES
              1      19       31.12       500      610      700      900      950      970     1000      129      960     1100   
                                          VAR    BASINP    GEOM    SYMINP    ZMAT    AOBASIS   BASIS     P2S    ABASIS      S 
                                         1400     1410     1200     1210     1080     1600     1650     1300     1700   
                                           T        V       H0       H01     AOSYM     SMH    MOLCAS    ERIS     OPER   

              2       4        2.86       700     1000      520     2100   
                                         GEOM     BASIS   MCVARS     RHF  

 PROGRAMS   *        TOTAL    HF-SCF       INT
 CPU TIMES  *         0.54      0.16      0.29
 REAL TIME  *         0.91 SEC
 DISK USED  *        36.24 MB
 **********************************************************************************************************************************


 PROGRAM * MULTI (Direct Multiconfiguration SCF)       Authors: P.J. Knowles, H.-J. Werner (1984)


 Number of closed-shell orbitals:   7 (   7 )
 Number of active  orbitals:        2 (   2 )
 Number of external orbitals:      27 (  27 )

 State symmetry 1

 Number of electrons:     2    Spin symmetry=Singlet   Space symmetry=1
 Number of states:        3
 Number of CSFs:          3   (4 determinants, 4 intermediate states)

 Molecular orbitals read from record     2100.2  Type=RHF/CANONICAL (state 1.1)

 Wavefunction dump at record             2140.2

 Convergence thresholds  0.10E-01 (gradient)  0.10E-05 (energy)  0.10E-02 (step length)

 Weight factors for state symmetry  1:    0.33333   0.33333   0.33333

 Number of orbital rotations:      257   (    14 Core/Active    189 Core/Virtual   0 Active/Active     54 Active/Virtual)
 Total number of variables:        269

 Micro-Iterations solved by the two-step solver

 ITER. MIC  NCI  NEG     ENERGY(VAR)     ENERGY(PROJ)   ENERGY CHANGE     GRAD(0)  GRAD(ORB)   GRAD(CI)     STEP       TIME

   1    6    5    0     -77.69324923     -77.71342487   -0.02017565    0.17460970 0.00108586 0.00000000  0.15D+00      0.11
   2    6    5    0     -77.71297034     -77.71299758   -0.00002724    0.00759747 0.00000187 0.00000000  0.53D-02      0.21
   3    4    4    0     -77.71299763     -77.71299763   -0.00000000    0.00001736 0.00000000 0.00000000  0.20D-04      0.28
   4    3    3    0     -77.71299763     -77.71299763    0.00000000    0.00000000 0.00000000 0.00000000  0.19D-09      0.34

 ** WVFN ****  CONVERGENCE REACHED, FINAL GRADIENT:  0.12D-10



 Results for state 1.1
 =====================

 !MCSCF STATE  1.1 Energy             -77.797787903510
 Nuclear energy                        31.53286930
 Kinetic energy                        77.74072810
 One electron energy                 -166.27928828
 Two electron energy                   56.94863107
 Virial ratio                           2.00073398

 !MCSCF STATE  1.1 Dipole moment        0.00022186    -0.00000849    -0.00018451
 Dipole moment /Debye                   0.00056387    -0.00002158    -0.00046895

 Results for state 2.1
 =====================

 !MCSCF STATE  2.1 Energy             -77.735939448162
 Nuclear energy                        31.53286930
 Kinetic energy                        77.82955134
 One electron energy                 -165.89825952
 Two electron energy                   56.62945076
 Virial ratio                           1.99879722

 !MCSCF STATE  2.1 Dipole moment        0.00009345    -0.00002892    -0.00009502
 Dipole moment /Debye                   0.00023751    -0.00007351    -0.00024149

 Results for state 3.1
 =====================

 !MCSCF STATE  3.1 Energy             -77.605265527438
 Nuclear energy                        31.53286930
 Kinetic energy                        77.89280996
 One electron energy                 -165.54126902
 Two electron energy                   56.40313419
 Virial ratio                           1.99630846

 !MCSCF STATE  3.1 Dipole moment       -0.00002935    -0.00005227    -0.00002738
 Dipole moment /Debye                  -0.00007458    -0.00013284    -0.00006958

 State-averaged charge density matrix saved on record  2140.2 (density set 1)

 !MCSCF expec         <1.1|DMX|1.1>     0.000221857982 au =     0.000563869810 Debye
 !MCSCF trans         <2.1|DMX|1.1>    -0.000002230443 au =    -0.000005668850 Debye
 !MCSCF expec         <2.1|DMX|2.1>     0.000093449360 au =     0.000237509024 Debye
 !MCSCF trans         <3.1|DMX|1.1>     0.000020924606 au =     0.000053181561 Debye
 !MCSCF trans         <3.1|DMX|2.1>    -0.000016014893 au =    -0.000040703132 Debye
 !MCSCF expec         <3.1|DMX|3.1>    -0.000029345379 au =    -0.000074583628 Debye

 !MCSCF expec         <1.1|DMY|1.1>    -0.000008491054 au =    -0.000021580693 Debye
 !MCSCF trans         <2.1|DMY|1.1>     0.000005736116 au =     0.000014578799 Debye
 !MCSCF expec         <2.1|DMY|2.1>    -0.000028924156 au =    -0.000073513057 Debye
 !MCSCF trans         <3.1|DMY|1.1>     0.000002990152 au =     0.000007599709 Debye
 !MCSCF trans         <3.1|DMY|2.1>     0.000004395899 au =     0.000011172528 Debye
 !MCSCF expec         <3.1|DMY|3.1>    -0.000052268362 au =    -0.000132844224 Debye

 !MCSCF expec         <1.1|DMZ|1.1>    -0.000184510271 au =    -0.000468947615 Debye
 !MCSCF trans         <2.1|DMZ|1.1>     0.000030282054 au =     0.000076964263 Debye
 !MCSCF expec         <2.1|DMZ|2.1>    -0.000095015802 au =    -0.000241490262 Debye
 !MCSCF trans         <3.1|DMZ|1.1>    -0.000016184573 au =    -0.000041134388 Debye
 !MCSCF trans         <3.1|DMZ|2.1>     0.000043913332 au =     0.000111609246 Debye
 !MCSCF expec         <3.1|DMZ|3.1>    -0.000027376944 au =    -0.000069580693 Debye


 NATURAL ORBITALS (state averaged)
 =================================

  Orbital  Occupation    Energy     Coefficients
    1.1     2.00000   -11.26687     1 1s    0.70770     2 1s    0.70128
    2.1     2.00000   -11.26644     1 1s    0.70128     2 1s   -0.70770
    3.1     2.00000    -1.03665     1 1s    0.27166     1 1s    0.25243     2 1s    0.27167     2 1s    0.25242
    4.1     2.00000    -0.78389     1 1s    0.32413     2 1s   -0.32412
    5.1     2.00000    -0.64080     1 2py   0.30105     2 2py   0.30111
    6.1     2.00000    -0.55762     1 2py  -0.26712     2 2py   0.26708
    7.1     2.00000    -0.41422     1 2pz   0.31665     1 2pz   0.27623     2 2pz   0.31664     2 2pz   0.27624
    8.1     1.00000    -0.10941     1 1s    0.26276     1 2pz   0.40271     1 2pz   0.39386     2 1s    0.26277     2 2pz  -0.40273
                                    2 2pz  -0.39389
    9.1     1.00000    -0.20425     1 2px   0.34798     2 2px  -0.34797     4 1s   -0.26338     5 1s   -0.26334
   10.1    -0.00000     0.21141     1 1s   -1.14168     1 2px   0.35117     1 2py   0.30830     1 2pz   0.37806     2 1s   -1.14158
                                    2 2px  -0.35122     2 2py  -0.30831     2 2pz  -0.37790     3 1s    0.54921     4 1s    1.11152
                                    5 1s    1.11151     6 1s    0.54910
   11.1    -0.00000     0.28454     1 1s   -1.64880     1 2py  -0.31879     1 2pz   0.55537     2 1s    1.64888     2 2py  -0.31860
                                    2 2pz   0.55524     3 1s    1.43110     6 1s   -1.43090
   12.1    -0.00000     0.30597     1 1s   -0.66794     1 2px   0.34281     1 2py  -0.98985     1 2pz   0.37996     2 1s   -0.66837
                                    2 2px  -0.34276     2 2py   0.98988     2 2pz  -0.38002     3 1s    1.50688     4 1s   -0.49695
                                    5 1s   -0.49689     6 1s    1.50722
   13.1    -0.00000     0.34379     1 1s   -0.96894     1 2py   0.92022     1 2pz   0.33410     2 1s    0.96889     2 2py   0.92041
                                    2 2pz   0.33406     4 1s    1.81195     5 1s   -1.81202
   14.1    -0.00000     0.37541     1 1s   -1.08796     1 2px  -0.28083     1 2px  -1.39945     1 2py   0.45220     1 2pz   0.49370
                                    2 1s    1.08772     2 2px  -0.28085     2 2px  -1.39956     2 2py   0.45240     2 2pz   0.49369
                                    3 1s   -0.63766     6 1s    0.63809
   15.1    -0.00000     0.72038     1 2px  -0.53429     1 2px   0.80414     2 2px   0.53429     2 2px  -0.80423     4 1s    0.30729
                                    4 1s   -0.44636     5 1s    0.30732     5 1s   -0.44625
   16.1    -0.00000     0.76410     1 1s    0.29370     1 2px  -0.31248     1 2py   0.32701     1 2px   0.67651     1 2py  -0.82031
                                    2 1s   -0.29387     2 2px  -0.31209     2 2py   0.32600     2 2px   0.67593     2 2py  -0.81828
                                    3 1s    0.48346     6 1s   -0.48313
   17.1    -0.00000     0.77406     1 2py   0.53259     1 2px   0.35205     1 2py  -1.15802     2 2py  -0.53312     2 2px  -0.35345
                                    2 2py   1.15950
   18.1    -0.00000     0.78799     1 1s    0.65628     1 2pz   0.71241     1 2px   0.36663     1 2py  -0.37438     1 2pz  -0.86549
                                    2 1s   -0.65626     2 2pz   0.71251     2 2px   0.36664     2 2py  -0.37474     2 2pz  -0.86556
   19.1    -0.00000     0.84952     1 1s   -0.25077     1 2pz  -0.67689     1 2px   0.44909     1 2py  -0.43371     1 2pz   1.02213
                                    2 1s   -0.25080     2 2pz   0.67686     2 2px  -0.44941     2 2py   0.43379     2 2pz  -1.02203
                                    3 1s    0.25003     6 1s    0.25012
   20.1    -0.00000     0.92960     1 2px  -0.68322     1 2py  -0.32349     1 2px   0.93313     1 2py   0.82924     2 2px  -0.68309
                                    2 2py  -0.32362     2 2px   0.93308     2 2py   0.82957     4 1s    0.25535     4 1s    0.83318
                                    5 1s   -0.25540     5 1s   -0.83332
   21.1    -0.00000     1.09967     1 1s   -0.71760     1 1s    1.25644     1 2px   0.26860     1 2py   0.36595     1 2px  -0.28489
                                    1 2py  -0.40965     2 1s   -0.71781     2 1s    1.25756     2 2px  -0.26840     2 2py  -0.36569
                                    2 2px   0.28386     2 2py   0.40957     4 1s    0.67309     4 1s   -1.16101     5 1s    0.67234
                                    5 1s   -1.16000
   22.1    -0.00000     1.12764     1 1s    0.84615     1 2py  -0.50309     1 2px   0.69275     1 2py   0.50398     2 1s   -0.84546
                                    2 2py  -0.50307     2 2px   0.69318     2 2py   0.50411     4 1s   -0.77923     4 1s    1.18844
                                    5 1s    0.77990     5 1s   -1.18893
   23.1    -0.00000     1.14397     1 1s    1.07424     1 2px  -0.34069     1 2py   0.47208     1 2px   1.10104     1 2py  -1.00096
                                    2 1s   -1.07457     2 2px  -0.34090     2 2py   0.47187     2 2px   1.10111     2 2py  -1.00075
                                    3 1s   -0.65366     3 1s    1.20792     4 1s   -0.32455     5 1s    0.32424     6 1s    0.65375
                                    6 1s   -1.20767
   24.1    -0.00000     1.17524     1 2px   0.26179     1 2py  -0.35812     1 2py   0.28459     2 2px  -0.26174     2 2py   0.35871
                                    2 2py  -0.28547     3 1s    0.83491     3 1s   -0.83152     4 1s    0.36493     5 1s    0.36696
                                    6 1s    0.83469     6 1s   -0.83087
   25.1    -0.00000     1.22518     1 1s   -1.31168     1 1s    2.17630     1 2px  -0.28048     1 2py   0.54203     1 2pz  -0.83994
                                    2 1s   -1.33387     2 1s    2.23412     2 2px   0.27106     2 2py  -0.53545     2 2pz   0.85418
                                    3 1s   -1.03004     4 1s   -0.36758     4 1s   -0.37950     5 1s   -0.36674     5 1s   -0.39137
                                    6 1s   -1.04165
   26.1    -0.00000     1.22739     1 1s    1.61212     1 1s   -4.23804     1 2px  -0.72768     1 2py   0.50138     1 2pz   1.06217
                                    2 1s   -1.59380     2 1s    4.20749     2 2px  -0.73122     2 2py   0.50866     2 2pz   1.05017
                                    3 1s    0.80595     4 1s    0.85829     5 1s   -0.85260     6 1s   -0.79237
   27.1    -0.00000     1.72991     1 1s    0.39898     1 3d0   0.44994     1 3d1+ -0.27329     1 3d2+ -0.29376     2 1s   -0.39881
                                    2 3d0  -0.44984     2 3d1+  0.27335     2 3d2+  0.29387
   28.1    -0.00000     1.88871     1 1s    0.27937     1 1s   -1.11518     1 2px  -0.28351     1 2pz   0.32233     1 3d2-  0.38873
                                    1 3d1+ -0.35915     1 3d1- -0.38792     2 1s   -0.27921     2 1s    1.11498     2 2px  -0.28347
                                    2 2pz   0.32222     2 3d2- -0.38866     2 3d1+  0.35917     2 3d1-  0.38805     3 1s    0.25684
                                    6 1s   -0.25682
   29.1    -0.00000     1.98436     1 1s    0.42891     1 1s   -0.74700     1 2pz   0.35667     1 3d0   0.38274     1 3d1+  0.41366
                                    1 3d1-  0.29464     2 1s    0.42884     2 1s   -0.74670     2 2pz  -0.35651     2 3d0   0.38275
                                    2 3d1+  0.41352     2 3d1-  0.29460     3 1s    0.27191     6 1s    0.27190
   30.1    -0.00000     2.10156     1 1s   -0.30706     1 2px   0.25055     1 3d2- -0.37981     1 3d1+ -0.30339     1 3d2+  0.42903
                                    2 1s   -0.30712     2 2px  -0.25070     2 3d2- -0.37978     2 3d1+ -0.30346     2 3d2+  0.42894
   31.1    -0.00000     2.18930     1 1s    0.34153     1 1s   -1.48242     1 2px  -0.39458     1 2py   0.26283     1 2pz   0.43602
                                    1 3d0   0.51482     1 3d2+  0.41097     2 1s   -0.34144     2 1s    1.48244     2 2px  -0.39443
                                    2 2py   0.26274     2 2pz   0.43606     2 3d0  -0.51473     2 3d2+ -0.41107     3 1s    0.33197
                                    4 1s    0.39564     5 1s   -0.39565     6 1s   -0.33204
   32.1    -0.00000     2.33783     1 2py   0.29417     1 3d0   0.54834     1 3d2- -0.30727     1 3d2+ -0.25565     1 3d1- -0.28158
                                    2 2py  -0.29436     2 3d0   0.54844     2 3d2- -0.30736     2 3d2+ -0.25559     2 3d1- -0.28167
                                    3 1s   -0.27677     6 1s   -0.27675
   33.1    -0.00000     2.53712     1 3d0   0.29311     1 3d2-  0.59765     1 3d1+ -0.33174     1 3d2+  0.30311     2 3d0   0.29347
                                    2 3d2-  0.59634     2 3d1+ -0.33143     2 3d2+  0.30351     3 1s    0.35044     6 1s    0.34913
   34.1    -0.00000     2.55990     1 2py  -0.32149     1 3d2-  0.46953     1 3d1-  0.61924     2 2py  -0.32107     2 3d2- -0.47131
                                    2 3d1- -0.61850     3 1s    0.51853     4 1s   -0.39456     5 1s    0.39392     6 1s   -0.51937
   35.1    -0.00000     2.62487     1 2py  -0.37639     1 3d1+ -0.30297     1 3d2+ -0.38591     1 3d1-  0.62838     2 2py   0.37661
                                    2 3d1+ -0.30307     2 3d2+ -0.38586     2 3d1-  0.62855     3 1s    0.34643     4 1s   -0.48309
                                    5 1s   -0.48320     6 1s    0.34666
   36.1    -0.00000     2.88350     1 1s   -1.59005     1 2px  -0.27495     1 2px  -0.81441     1 2pz   0.43634     1 3d2-  0.26805
                                    1 3d1+  0.66659     1 3d2+ -0.60653     2 1s    1.59001     2 2px  -0.27496     2 2px  -0.81441
                                    2 2pz   0.43633     2 3d2- -0.26804     2 3d1+ -0.66658     2 3d2+  0.60654


 Natural orbital dump (state averaged) at molpro section  2140.2    (Orbital set 2)



 **********************************************************************************************************************************
 DATASETS  * FILE   NREC   LENGTH (MB)   RECORD NAMES
              1      20       31.85       500      610      700      900      950      970     1000      129      960     1100   
                                          VAR    BASINP    GEOM    SYMINP    ZMAT    AOBASIS   BASIS     P2S    ABASIS      S 
                                         1400     1410     1200     1210     1080     1600     1650     1300     1700     1380   
                                           T        V       H0       H01     AOSYM     SMH    MOLCAS    ERIS     OPER     JKOP   

              2       5        5.42       700     1000      520     2100     2140   
                                         GEOM     BASIS   MCVARS     RHF     MCSCF   

 PROGRAMS   *        TOTAL     MULTI    HF-SCF       INT
 CPU TIMES  *         0.93      0.39      0.16      0.29
 REAL TIME  *         1.37 SEC
 DISK USED  *        39.04 MB
 **********************************************************************************************************************************
 Molecular orbitals read from record     2140.2  Type=MCSCF/NATURAL (state averaged)
 Occupation numbers read from record     2140.2  Type=MCSCF/NATURAL (state averaged)
 Orbital energies read from record       2140.2  Type=MCSCF/NATURAL (state averaged)
 Redundancy group numbers read from rec  2140.2  Type=MCSCF/NATURAL (state averaged)

 MULTI/6-31G* energy=    -77.605265527438

           MULTI          HF-SCF
    -77.60526553    -77.80393564
 **********************************************************************************************************************************
 Molpro calculation terminated
