
 Primary working directories    : /scratch.local/johan406.molpro_temp/molpro.EWHGT504hA
 Secondary working directories  : /scratch.local/johan406.molpro_temp/molpro.EWHGT504hA
 Wavefunction directory         : /home/goodpast/johan406/wfu/
 Main file repository           : /scratch.local/johan406.molpro_temp/molpro.EWHGT504hA/

 id        : roweumn

 Nodes     nprocs
 cn0391       1

 Using customized tuning parameters: mindgm=1; mindgv=20; mindgc=4; mindgr=1; noblas=0; minvec=7
 default implementation of scratch files=df  


 Variables initialized (934), CPU time= 0.00 sec
                                                                                 !leave this line blank
 
 gprint, orbitals=30
 memory, 125., m
 symmetry, nosym
 nelect=16
 basis=6-31g*
 
 geometry={
 C -0.6283 0.1395 0.2954
 C 0.6372 -0.1894 -0.3558
 H -1.2783 0.9029 -0.1352
 H -0.9571 -0.8698 -0.1313
 H 0.9661 0.8199 0.0709
 H 1.2872 -0.9528 0.0747
 }
 
 hf
 {multi,
 closed 7
 occ 9
 wf,spin=0;STATE,3
 }
 
 Commands  initialized (763), CPU time= 0.01 sec, 617 directives.
 Default parameters read. Elapsed time= 0.07 sec

 Checking input...
 Passed
1


                                         ***  PROGRAM SYSTEM MOLPRO  ***
                                       Copyright, TTI GmbH Stuttgart, 2015
                                    Version 2019.2 linked Oct 25 2019 22:50:27


 **********************************************************************************************************************************
 LABEL *                                                                                 
  64 bit serial version                                                                  DATE: 07-Feb-23          TIME: 15:39:41  
 **********************************************************************************************************************************

 SHA1:             8dbd9ae1082e4ce945b0f27595c9eb2d4aa09004
 **********************************************************************************************************************************


 Variable memory set to  125000000 words,  buffer space 

 SETTING NELECT         =        16.00000000                                  
 SETTING BASIS          =    6-31G*
 ZSYMEL=NOSYM


Geometry recognized as XYZ



 Recomputing integrals since basis changed


 Using spherical harmonics

 Library entry C      S 6-31G                selected for orbital group  1
 Library entry C      P 6-31G                selected for orbital group  1
 Library entry C      D 6-31G*               selected for orbital group  1
 Library entry H      S 6-31G                selected for orbital group  2


 PROGRAM * SEWARD (Integral evaluation for generally contracted gaussian basis sets)     Author: Roland Lindh, 1990

 Geometry written to block  1 of record 700


 Point group  C1  



 ATOMIC COORDINATES

 NR  ATOM    CHARGE       X              Y              Z

   1  C       6.00   -1.187314924    0.263616794    0.558225097
   2  C       6.00    1.204133487   -0.357914128   -0.672364555
   3  H       1.00   -2.415636905    1.706233718   -0.255490972
   4  H       1.00   -1.808656874   -1.643683783   -0.248121040
   5  H       1.00    1.825664409    1.549386450    0.133981582
   6  H       1.00    2.432455468   -1.800531051    0.141162542

 Bond lengths in Bohr (Angstrom)

 1-2  2.760376257  1-3  2.062050513  1-4  2.161956384  2-5  2.162010702  2-6  2.061975949
     ( 1.460728209)     ( 1.091190139)     ( 1.144058049)     ( 1.144086793)     ( 1.091150682)

 Bond angles

  1-2-5   83.34754061   1-2-6  119.84978479   2-1-3  119.84589706   2-1-4   83.34300451

  3-1-4  107.38675470   5-2-6  107.38587878

 NUCLEAR CHARGE:                   16
 NUMBER OF PRIMITIVE AOS:          72
 NUMBER OF SYMMETRY AOS:           70
 NUMBER OF CONTRACTIONS:           36   (   36A   )
 NUMBER OF CORE ORBITALS:           2   (    2A   )
 NUMBER OF VALENCE ORBITALS:       12   (   12A   )


 NUCLEAR REPULSION ENERGY   32.33969310

 Eigenvalues of metric

         1 0.943E-02 0.273E-01 0.591E-01 0.643E-01 0.784E-01 0.218E+00 0.238E+00 0.274E+00


 Contracted 2-electron integrals neglected if value below      1.0D-11
 AO integral compression algorithm  1   Integral accuracy      1.0D-11

     1.573 MB (compressed) written to integral file ( 59.2%)


 NUMBER OF SORTED TWO-ELECTRON INTEGRALS:     222111.     BUFFER LENGTH:  32768
 NUMBER OF SEGMENTS:   1  SEGMENT LENGTH:     222111      RECORD LENGTH: 524288

 Memory used in sort:       0.78 MW

 SORT1 READ      284735. AND WROTE      212531. INTEGRALS IN      1 RECORDS. CPU TIME:     0.00 SEC, REAL TIME:     0.01 SEC
 SORT2 READ      212531. AND WROTE      222111. INTEGRALS IN      6 RECORDS. CPU TIME:     0.02 SEC, REAL TIME:     0.02 SEC

 FILE SIZES:   FILE 1:    31.7 MBYTE,  FILE 4:     4.2 MBYTE,   TOTAL:     35.9 MBYTE

 OPERATOR DM      FOR CENTER  0  COORDINATES:    0.000000    0.000000    0.000000


 **********************************************************************************************************************************
 DATASETS  * FILE   NREC   LENGTH (MB)   RECORD NAMES
              1      19       31.13       500      610      700      900      950      970     1000      129      960     1100   
                                          VAR    BASINP    GEOM    SYMINP    ZMAT    AOBASIS   BASIS     P2S    ABASIS      S 
                                         1400     1410     1200     1210     1080     1600     1650     1300     1700   
                                           T        V       H0       H01     AOSYM     SMH    MOLCAS    ERIS     OPER   

 PROGRAMS   *        TOTAL       INT
 CPU TIMES  *         0.35      0.25
 REAL TIME  *         0.59 SEC
 DISK USED  *        36.24 MB
 **********************************************************************************************************************************


 PROGRAM * RHF-SCF (CLOSED SHELL)       Authors: W. Meyer, H.-J. Werner


 NUMBER OF ELECTRONS:       8+    8-    SPACE SYMMETRY=1    SPIN SYMMETRY: Singlet 
 CONVERGENCE THRESHOLDS:    1.00E-05 (Density)    1.00E-07 (Energy)
 MAX. NUMBER OF ITERATIONS:       60
 INTERPOLATION TYPE:            DIIS
 INTERPOLATION STEPS:              2 (START)      1 (STEP)
 LEVEL SHIFTS:                  0.00 (CLOSED)  0.00 (OPEN) 



 Orbital guess generated from atomic densities. Full valence occupancy:    8

 Molecular orbital dump at record        2100.2

 Initial occupancy:   8

 ITERATION    DDIFF          GRAD             ENERGY        2-EL.EN.            DIPOLE MOMENTS         DIIS   ORB.
    1      0.000D+00      0.000D+00       -77.83062545    115.893427    0.00004   -0.00001   -0.00006    0    start
    2      0.000D+00      0.702D-02       -77.84854868    114.871504    0.00003   -0.00002   -0.00003    1    diag
    3      0.752D-02      0.227D-02       -77.85062734    115.288423    0.00005   -0.00003   -0.00006    2    diag
    4      0.295D-02      0.827D-03       -77.85107580    115.160341    0.00003   -0.00002   -0.00004    3    diag
    5      0.161D-02      0.295D-03       -77.85121575    115.167759    0.00005   -0.00003   -0.00006    4    diag
    6      0.100D-02      0.130D-03       -77.85126089    115.169271    0.00001   -0.00001    0.00000    5    diag
    7      0.610D-03      0.433D-04       -77.85126584    115.170619    0.00010   -0.00007   -0.00013    6    diag
    8      0.215D-03      0.127D-04       -77.85126619    115.171001   -0.00005    0.00003    0.00008    7    diag
    9      0.593D-04      0.430D-05       -77.85126621    115.170990    0.00011   -0.00008   -0.00015    8    diag
   10      0.952D-05      0.242D-05       -77.85126621    115.170981   -0.00002    0.00001    0.00005    0    orth

 Final occupancy:   8

 !RHF STATE  1.1 Energy               -77.851266210250
 Nuclear energy                        32.33969310
 One-electron energy                 -167.77644960
 Two-electron energy                   57.58549029
 Virial quotient                       -1.00134345
 !RHF STATE  1.1 Dipole moment         -0.00002159     0.00001398     0.00004594
 Dipole moment /Debye                  -0.00005487     0.00003553     0.00011676

 ELECTRON ORBITALS
 =================

  Orbital  Occupation    Energy     Coefficients
    1.1     2.00000   -11.25954     1 1s    0.72174     2 1s    0.68670
    2.1     2.00000   -11.25869     1 1s    0.68681     2 1s   -0.72184
    3.1     2.00000    -1.03568     1 1s    0.28341     2 1s    0.28340
    4.1     2.00000    -0.78434     1 1s   -0.29075     2 1s    0.29076
    5.1     2.00000    -0.62284     1 2py   0.30817     2 2py   0.30815
    6.1     2.00000    -0.56599     1 2px   0.29724     2 2px  -0.29724
    7.1     2.00000    -0.38948     1 2pz   0.31081     1 2pz   0.28761     2 2pz   0.31075     2 2pz   0.28758
    8.1     2.00000    -0.38617     1 2px   0.27544     2 2px  -0.27536     4 1s   -0.28542     5 1s   -0.28540
    9.1     0.00000     0.06685     1 1s    0.39807     1 2pz   0.33166     1 2pz   0.47309     2 1s    0.39805     2 2pz  -0.33166
                                    2 2pz  -0.47310
   10.1     0.00000     0.23198     1 1s   -1.09570     1 2px   0.47961     1 2py   0.37085     1 2pz   0.42130     2 1s   -1.09558
                                    2 2px  -0.47964     2 2py  -0.37083     2 2pz  -0.42122     3 1s    0.56678     4 1s    1.08931
                                    5 1s    1.08928     6 1s    0.56669
   11.1     0.00000     0.28013     1 1s   -1.53755     1 2py  -0.36614     1 2pz   0.43674     2 1s    1.53750     2 2py  -0.36582
                                    2 2pz   0.43656     3 1s    1.43359     6 1s   -1.43319
   12.1     0.00000     0.31528     1 1s   -0.76576     1 2px   0.40776     1 2py  -1.02383     1 2pz   0.44609     2 1s   -0.76623
                                    2 2px  -0.40766     2 2py   1.02411     2 2pz  -0.44617     3 1s    1.58038     4 1s   -0.42685
                                    5 1s   -0.42716     6 1s    1.58096
   13.1     0.00000     0.33622     1 1s   -1.05943     1 2px   0.28478     1 2py   0.76293     1 2pz   0.31381     2 1s    1.05950
                                    2 2px   0.28494     2 2py   0.76274     2 2pz   0.31392     4 1s    1.70141     5 1s   -1.70123
   14.1     0.00000     0.42463     1 1s    2.02418     1 2px   1.79771     1 2py  -0.64651     1 2pz  -0.78692     2 1s   -2.02403
                                    2 2px   1.79773     2 2py  -0.64663     2 2pz  -0.78691     3 1s    0.65796     6 1s   -0.65818
   15.1     0.00000     0.70512     1 2px  -0.54675     1 2px   0.92688     2 2px   0.54669     2 2px  -0.92694     4 1s   -0.43727
                                    5 1s   -0.43727
   16.1     0.00000     0.75614     1 1s   -0.32992     1 2py  -0.37049     1 2px  -0.66057     1 2py   0.78981     2 1s    0.32984
                                    2 2py  -0.37025     2 2px  -0.66056     2 2py   0.78939     3 1s   -0.49132     6 1s    0.49127
   17.1     0.00000     0.79291     1 2py  -0.57760     1 2pz  -0.29821     1 2py   1.23649     1 2pz   0.28971     2 2py   0.57762
                                    2 2pz   0.29685     2 2py  -1.23650     2 2pz  -0.28840     4 1s    0.27682     5 1s    0.27657
   18.1     0.00000     0.79945     1 2pz  -0.73509     1 2pz   0.70476     2 2pz  -0.73553     2 2pz   0.70512
   19.1     0.00000     0.86843     1 1s   -0.36805     1 2px  -0.25072     1 2pz  -0.67311     1 2px   0.47663     1 2py  -0.60291
                                    1 2pz   0.94001     2 1s   -0.36807     2 2px   0.25070     2 2pz   0.67324     2 2px  -0.47665
                                    2 2py   0.60288     2 2pz  -0.94016     3 1s    0.25905     6 1s    0.25908
   20.1     0.00000     0.97241     1 2px   0.70416     1 2py   0.38445     1 2px  -1.10338     1 2py  -0.81248     2 2px   0.70418
                                    2 2py   0.38452     2 2px  -1.10350     2 2py  -0.81260     4 1s   -1.04730     5 1s    1.04721
   21.1     0.00000     1.12132     1 1s   -0.67016     1 1s    1.23665     1 2px   0.25971     1 2py   0.39458     1 2px  -0.36559
                                    1 2py  -0.37269     2 1s   -0.67034     2 1s    1.23743     2 2px  -0.25949     2 2py  -0.39492
                                    2 2px   0.36500     2 2py   0.37332     4 1s    0.65807     4 1s   -1.18399     5 1s    0.65819
                                    5 1s   -1.18440
   22.1     0.00000     1.14118     1 2px  -0.41163     1 2py   0.59305     1 2px   0.77363     1 2py  -0.95962     2 2px  -0.41151
                                    2 2py   0.59259     2 2px   0.77368     2 2py  -0.95931     3 1s   -0.52735     3 1s    1.24235
                                    4 1s    0.28020     4 1s   -0.62836     5 1s   -0.27986     5 1s    0.62762     6 1s    0.52650
                                    6 1s   -1.24157
   23.1     0.00000     1.17719     1 1s   -0.25235     1 1s   -0.26909     1 2px  -0.82817     2 1s    0.25172     2 1s    0.27012
                                    2 2px  -0.82794     3 1s    0.35481     3 1s   -0.56297     4 1s    0.76667     4 1s   -0.91299
                                    5 1s   -0.76681     5 1s    0.91289     6 1s   -0.35447     6 1s    0.56220
   24.1     0.00000     1.18982     1 1s   -0.46557     1 1s    0.69251     1 2px   0.28839     1 2py  -0.29487     2 1s   -0.46526
                                    2 1s    0.69065     2 2px  -0.28890     2 2py   0.29536     3 1s    0.81443     3 1s   -0.95973
                                    6 1s    0.81511     6 1s   -0.96100
   25.1     0.00000     1.23768     1 1s   -1.23580     1 1s    2.22740     1 2px  -0.57753     1 2py   0.61682     1 2pz  -0.97676
                                    2 1s   -1.23597     2 1s    2.22746     2 2px   0.57779     2 2py  -0.61690     2 2pz   0.97668
                                    3 1s   -0.31305     3 1s   -1.04900     4 1s   -0.40833     4 1s   -0.34389     5 1s   -0.40809
                                    5 1s   -0.34411     6 1s   -0.31294     6 1s   -1.04926
   26.1     0.00000     1.27815     1 1s   -1.61814     1 1s    5.06820     1 2px   1.21759     1 2py  -0.77319     1 2pz  -1.18926
                                    2 1s    1.61812     2 1s   -5.06810     2 2px   1.21754     2 2py  -0.77318     2 2pz  -1.18915
                                    3 1s   -0.47544     4 1s   -0.70854     5 1s    0.70830     6 1s    0.47568
   27.1     0.00000     1.69631     1 1s    0.59103     1 3d0   0.34839     1 3d2- -0.29832     1 3d2+ -0.32513     2 1s   -0.59098
                                    2 3d0  -0.34831     2 3d2-  0.29829     2 3d2+  0.32518
   28.1     0.00000     1.92556     1 1s    0.30577     1 1s   -0.66301     1 2pz   0.34393     1 3d0   0.34903     1 3d1+  0.34294
                                    1 3d2+  0.34393     1 3d1-  0.32798     2 1s    0.30581     2 1s   -0.66317     2 2pz  -0.34394
                                    2 3d0   0.34907     2 3d1+  0.34273     2 3d2+  0.34380     2 3d1-  0.32778     3 1s    0.28584
                                    6 1s    0.28588
   29.1     0.00000     1.94126     1 1s   -0.28312     1 1s    1.25342     1 2px   0.28665     1 2pz  -0.31924     1 3d2- -0.30506
                                    1 3d1+  0.40076     1 3d1-  0.38666     2 1s    0.28294     2 1s   -1.25308     2 2px   0.28670
                                    2 2pz  -0.31907     2 3d2-  0.30505     2 3d1+ -0.40090     2 3d1- -0.38681     3 1s   -0.32389
                                    6 1s    0.32380
   30.1     0.00000     2.19237     1 1s    0.33328     1 1s   -1.58537     1 2px  -0.36342     1 2py   0.27265     1 2pz   0.41844
                                    1 3d0   0.56922     1 3d2+  0.35761     2 1s   -0.33324     2 1s    1.58539     2 2px  -0.36335
                                    2 2py   0.27267     2 2pz   0.41845     2 3d0  -0.56925     2 3d2+ -0.35767     3 1s    0.36378
                                    4 1s    0.33317     5 1s   -0.33323     6 1s   -0.36378
   31.1     0.00000     2.24585     1 1s    0.50524     1 1s   -0.33099     1 2px   0.26727     1 2px  -0.30494     1 3d2-  0.27804
                                    1 3d1+  0.38216     1 3d2+ -0.38841     2 1s    0.50528     2 1s   -0.33115     2 2px  -0.26728
                                    2 2px   0.30502     2 3d2-  0.27801     2 3d1+  0.38217     2 3d2+ -0.38837
   32.1     0.00000     2.34611     1 2py   0.36244     1 3d0   0.50751     1 3d2- -0.38187     1 3d1- -0.35022     2 2py  -0.36242
                                    2 3d0   0.50747     2 3d2- -0.38193     2 3d1- -0.35021     3 1s   -0.26154     4 1s    0.41125
                                    5 1s    0.41121     6 1s   -0.26156
   33.1     0.00000     2.57348     1 1s   -0.39592     1 2py   0.32217     1 3d2- -0.47578     1 3d1- -0.59656     2 1s    0.39595
                                    2 2py   0.32230     2 3d2-  0.47550     2 3d1-  0.59670     3 1s   -0.48055     4 1s    0.41743
                                    5 1s   -0.41755     6 1s    0.48042
   34.1     0.00000     2.64462     1 2py   0.33100     1 3d2-  0.41019     1 3d2+  0.53231     1 3d1- -0.51624     2 2py  -0.33086
                                    2 3d2-  0.41037     2 3d2+  0.53227     2 3d1- -0.51598     4 1s    0.37365     5 1s    0.37343
   35.1     0.00000     2.73585     1 3d0  -0.40736     1 3d2- -0.51924     1 3d1+  0.49441     2 3d0  -0.40740     2 3d2- -0.51941
                                    2 3d1+  0.49449     3 1s   -0.48861     6 1s   -0.48884
   36.1     0.00000     2.95863     1 1s   -1.73380     1 2px  -0.43266     1 2px  -0.88349     1 2pz   0.43980     1 3d2-  0.35853
                                    1 3d1+  0.68740     1 3d2+ -0.64673     2 1s    1.73380     2 2px  -0.43265     2 2px  -0.88350
                                    2 2pz   0.43981     2 3d2- -0.35857     2 3d1+ -0.68740     2 3d2+  0.64672


 HOMO      8.1    -0.386174 =     -10.5083eV
 LUMO      9.1     0.066853 =       1.8192eV
 LUMO-HOMO         0.453027 =      12.3275eV


 **********************************************************************************************************************************
 DATASETS  * FILE   NREC   LENGTH (MB)   RECORD NAMES
              1      19       31.13       500      610      700      900      950      970     1000      129      960     1100   
                                          VAR    BASINP    GEOM    SYMINP    ZMAT    AOBASIS   BASIS     P2S    ABASIS      S 
                                         1400     1410     1200     1210     1080     1600     1650     1300     1700   
                                           T        V       H0       H01     AOSYM     SMH    MOLCAS    ERIS     OPER   

              2       4        2.86       700     1000      520     2100   
                                         GEOM     BASIS   MCVARS     RHF  

 PROGRAMS   *        TOTAL    HF-SCF       INT
 CPU TIMES  *         0.50      0.15      0.25
 REAL TIME  *         0.84 SEC
 DISK USED  *        36.24 MB
 **********************************************************************************************************************************


 PROGRAM * MULTI (Direct Multiconfiguration SCF)       Authors: P.J. Knowles, H.-J. Werner (1984)


 Number of closed-shell orbitals:   7 (   7 )
 Number of active  orbitals:        2 (   2 )
 Number of external orbitals:      27 (  27 )

 State symmetry 1

 Number of electrons:     2    Spin symmetry=Singlet   Space symmetry=1
 Number of states:        3
 Number of CSFs:          3   (4 determinants, 4 intermediate states)

 Molecular orbitals read from record     2100.2  Type=RHF/CANONICAL (state 1.1)

 Wavefunction dump at record             2140.2

 Convergence thresholds  0.10E-01 (gradient)  0.10E-05 (energy)  0.10E-02 (step length)

 Weight factors for state symmetry  1:    0.33333   0.33333   0.33333

 Number of orbital rotations:      257   (    14 Core/Active    189 Core/Virtual   0 Active/Active     54 Active/Virtual)
 Total number of variables:        269

 Micro-Iterations solved by the two-step solver

 ITER. MIC  NCI  NEG     ENERGY(VAR)     ENERGY(PROJ)   ENERGY CHANGE     GRAD(0)  GRAD(ORB)   GRAD(CI)     STEP       TIME

   1    6    5    0     -77.69265343     -77.71225523   -0.01960180    0.16746617 0.00161510 0.00000000  0.14D+00      0.11
   2    5    5    0     -77.71194712     -77.71196628   -0.00001917    0.00645771 0.00000341 0.00000000  0.45D-02      0.20
   3    4    4    0     -77.71196631     -77.71196631   -0.00000000    0.00001238 0.00000000 0.00000000  0.17D-04      0.27

 ** WVFN ****  CONVERGENCE REACHED, FINAL GRADIENT:  0.14D-09



 Results for state 1.1
 =====================

 !MCSCF STATE  1.1 Energy             -77.844862883933
 Nuclear energy                        32.33969310
 Kinetic energy                        77.80274139
 One electron energy                 -167.85250457
 Two electron energy                   57.66794859
 Virial ratio                           2.00054139

 !MCSCF STATE  1.1 Dipole moment        0.00003127    -0.00002274    -0.00005258
 Dipole moment /Debye                   0.00007947    -0.00005780    -0.00013365

 Results for state 2.1
 =====================

 !MCSCF STATE  2.1 Energy             -77.739603238452
 Nuclear energy                        32.33969310
 Kinetic energy                        77.87595866
 One electron energy                 -167.54894920
 Two electron energy                   57.46965287
 Virial ratio                           1.99824907

 !MCSCF STATE  2.1 Dipole moment        0.00005445    -0.00003621    -0.00003616
 Dipole moment /Debye                   0.00013838    -0.00009204    -0.00009190

 Results for state 3.1
 =====================

 !MCSCF STATE  3.1 Energy             -77.551432810270
 Nuclear energy                        32.33969310
 Kinetic energy                        77.93596195
 One electron energy                 -167.28823858
 Two electron energy                   57.39711267
 Virial ratio                           1.99506609

 !MCSCF STATE  3.1 Dipole moment        0.00007654    -0.00003775    -0.00000895
 Dipole moment /Debye                   0.00019454    -0.00009593    -0.00002276

 State-averaged charge density matrix saved on record  2140.2 (density set 1)

 !MCSCF expec         <1.1|DMX|1.1>     0.000031267491 au =     0.000079468829 Debye
 !MCSCF trans         <2.1|DMX|1.1>     0.000001711138 au =     0.000004348994 Debye
 !MCSCF expec         <2.1|DMX|2.1>     0.000054446034 au =     0.000138378951 Debye
 !MCSCF trans         <3.1|DMX|1.1>    -0.000002272309 au =    -0.000005775255 Debye
 !MCSCF trans         <3.1|DMX|2.1>     0.000003498739 au =     0.000008892325 Debye
 !MCSCF expec         <3.1|DMX|3.1>     0.000076544512 au =     0.000194544000 Debye

 !MCSCF expec         <1.1|DMY|1.1>    -0.000022740092 au =    -0.000057795764 Debye
 !MCSCF trans         <2.1|DMY|1.1>    -0.000027570166 au =    -0.000070071782 Debye
 !MCSCF expec         <2.1|DMY|2.1>    -0.000036212422 au =    -0.000092036767 Debye
 !MCSCF trans         <3.1|DMY|1.1>     0.000002691550 au =     0.000006840791 Debye
 !MCSCF trans         <3.1|DMY|2.1>    -0.000030785069 au =    -0.000078242715 Debye
 !MCSCF expec         <3.1|DMY|3.1>    -0.000037745174 au =    -0.000095932380 Debye

 !MCSCF expec         <1.1|DMZ|1.1>    -0.000052584703 au =    -0.000133648230 Debye
 !MCSCF trans         <2.1|DMZ|1.1>    -0.000025906705 au =    -0.000065843964 Debye
 !MCSCF expec         <2.1|DMZ|2.1>    -0.000036157935 au =    -0.000091898285 Debye
 !MCSCF trans         <3.1|DMZ|1.1>    -0.000000211558 au =    -0.000000537691 Debye
 !MCSCF trans         <3.1|DMZ|2.1>    -0.000026860222 au =    -0.000068267403 Debye
 !MCSCF expec         <3.1|DMZ|3.1>    -0.000008953344 au =    -0.000022755641 Debye


 NATURAL ORBITALS (state averaged)
 =================================

  Orbital  Occupation    Energy     Coefficients
    1.1     2.00000   -11.25422     1 1s    0.70484     2 1s    0.70401
    2.1     2.00000   -11.25348     1 1s    0.70407     2 1s   -0.70490
    3.1     2.00000    -1.04827     1 1s    0.27831     2 1s    0.27831
    4.1     2.00000    -0.78469     1 1s   -0.31633     2 1s    0.31634
    5.1     2.00000    -0.62586     1 2py   0.30166     2 2py   0.30167
    6.1     2.00000    -0.56414     1 2px   0.25852     2 2px  -0.25851
    7.1     2.00000    -0.41723     1 2pz   0.32702     1 2pz   0.28222     2 2pz   0.32701     2 2pz   0.28222
    8.1     1.00000    -0.08352     1 1s    0.26391     1 2pz   0.40621     1 2pz   0.43355     2 1s    0.26391     2 2pz  -0.40622
                                    2 2pz  -0.43356
    9.1     1.00000    -0.22937     1 2px   0.31032     2 2px  -0.31031     4 1s   -0.29402     5 1s   -0.29401
   10.1    -0.00000     0.21975     1 1s   -1.10343     1 2px   0.47554     1 2py   0.38663     1 2pz   0.36280     2 1s   -1.10339
                                    2 2px  -0.47560     2 2py  -0.38662     2 2pz  -0.36276     3 1s    0.53445     4 1s    1.09882
                                    5 1s    1.09886     6 1s    0.53443
   11.1    -0.00000     0.27940     1 1s   -1.62072     1 2py  -0.30577     1 2pz   0.45129     2 1s    1.62073     2 2py  -0.30565
                                    2 2pz   0.45119     3 1s    1.42504     6 1s   -1.42490
   12.1    -0.00000     0.31768     1 1s   -0.82238     1 2px   0.40938     1 2py  -1.01583     1 2pz   0.42146     2 1s   -0.82088
                                    2 2px  -0.40910     2 2py   1.01735     2 2pz  -0.42093     3 1s    1.59935     4 1s   -0.38295
                                    5 1s   -0.38589     6 1s    1.59989
   13.1    -0.00000     0.32055     1 1s   -1.07197     1 2py   0.84747     1 2pz   0.32945     2 1s    1.07324     2 2py   0.84571
                                    2 2pz   0.33017     4 1s    1.71690     5 1s   -1.71608
   14.1    -0.00000     0.43053     1 1s    1.88351     1 2px   1.80857     1 2py  -0.53832     1 2pz  -0.72904     2 1s   -1.88339
                                    2 2px   1.80860     2 2py  -0.53844     2 2pz  -0.72904     3 1s    0.65809     6 1s   -0.65828
   15.1    -0.00000     0.70139     1 2px  -0.53083     1 2px   0.90222     2 2px   0.53082     2 2px  -0.90234     4 1s    0.25990
                                    4 1s   -0.49305     5 1s    0.25989     5 1s   -0.49300
   16.1    -0.00000     0.75398     1 1s   -0.43476     1 2py  -0.36135     1 2px  -0.70901     1 2py   0.80787     2 1s    0.43461
                                    2 2py  -0.36125     2 2px  -0.70901     2 2py   0.80774     3 1s   -0.48848     6 1s    0.48847
   17.1    -0.00000     0.79204     1 2py  -0.55171     1 2pz  -0.29598     1 2py   1.21351     1 2pz   0.35709     2 2py   0.55173
                                    2 2pz   0.29549     2 2py  -1.21350     2 2pz  -0.35654     4 1s    0.27828     5 1s    0.27817
   18.1    -0.00000     0.79909     1 1s   -0.36914     1 2pz  -0.73079     1 2pz   0.76951     2 1s    0.36904     2 2pz  -0.73102
                                    2 2pz   0.76978
   19.1    -0.00000     0.86630     1 1s   -0.32710     1 2px  -0.26523     1 2pz  -0.64711     1 2px   0.51421     1 2py  -0.61310
                                    1 2pz   0.99136     2 1s   -0.32709     2 2px   0.26522     2 2pz   0.64707     2 2px  -0.51423
                                    2 2py   0.61308     2 2pz  -0.99132     3 1s    0.30890     6 1s    0.30892
   20.1    -0.00000     0.97866     1 2px   0.70073     1 2py   0.38871     1 2px  -1.01815     1 2py  -0.83029     2 2px   0.70075
                                    2 2py   0.38878     2 2px  -1.01826     2 2py  -0.83040     4 1s   -1.00588     5 1s    1.00589
   21.1    -0.00000     1.09514     1 1s   -0.63046     1 1s    1.15147     1 2px   0.28602     1 2py   0.41535     1 2px  -0.36122
                                    1 2py  -0.42212     2 1s   -0.63074     2 1s    1.15219     2 2px  -0.28584     2 2py  -0.41567
                                    2 2px   0.36090     2 2py   0.42264     4 1s    0.66932     4 1s   -1.15082     5 1s    0.66967
                                    5 1s   -1.15144
   22.1    -0.00000     1.12653     1 2py   0.58622     1 2py  -0.76077     2 2py   0.58590     2 2py  -0.76055     3 1s    0.58273
                                    4 1s    0.69752     4 1s   -1.10517     5 1s   -0.69722     5 1s    1.10438     6 1s   -0.58263
   23.1    -0.00000     1.15645     1 1s   -0.37928     1 2px   0.41656     1 2px  -1.17817     1 2py   0.60860     2 1s    0.37981
                                    2 2px   0.41645     2 2px  -1.17805     2 2py   0.60849     3 1s    0.60767     3 1s   -1.21868
                                    4 1s    0.41186     4 1s   -0.33921     5 1s   -0.41197     5 1s    0.33927     6 1s   -0.60723
                                    6 1s    1.21808
   24.1    -0.00000     1.19371     1 1s   -0.32086     1 1s    0.41885     1 2px   0.27255     1 2py  -0.28728     2 1s   -0.32038
                                    2 1s    0.41698     2 2px  -0.27289     2 2py   0.28762     3 1s    0.84676     3 1s   -0.84074
                                    6 1s    0.84715     6 1s   -0.84140
   25.1    -0.00000     1.23045     1 1s   -1.31023     1 1s    2.34681     1 2px  -0.60682     1 2py   0.64224     1 2pz  -0.96557
                                    2 1s   -1.31064     2 1s    2.34771     2 2px   0.60686     2 2py  -0.64222     2 2pz   0.96568
                                    3 1s   -1.14373     4 1s   -0.36468     4 1s   -0.39553     5 1s   -0.36454     5 1s   -0.39577
                                    6 1s   -1.14408
   26.1    -0.00000     1.27224     1 1s   -1.62213     1 1s    5.07076     1 2px   1.22711     1 2py  -0.72927     1 2pz  -1.17162
                                    2 1s    1.62188     2 1s   -5.07024     2 2px   1.22716     2 2py  -0.72936     2 2pz  -1.17134
                                    3 1s   -0.49954     4 1s   -0.65962     5 1s    0.65932     6 1s    0.49959
   27.1    -0.00000     1.69096     1 1s    0.61599     1 3d0   0.34212     1 3d2- -0.30232     1 3d2+ -0.32717     2 1s   -0.61594
                                    2 3d0  -0.34206     2 3d2-  0.30230     2 3d2+  0.32723
   28.1    -0.00000     1.92274     1 1s    0.29591     1 1s   -0.65234     1 2pz   0.33836     1 3d0   0.34675     1 3d1+  0.33812
                                    1 3d2+  0.35106     1 3d1-  0.32714     2 1s    0.29575     2 1s   -0.65161     2 2pz  -0.33814
                                    2 3d0   0.34675     2 3d1+  0.33824     2 3d2+  0.35109     2 3d1-  0.32726     3 1s    0.28320
                                    6 1s    0.28324
   29.1    -0.00000     1.93820     1 1s   -0.27585     1 1s    1.22168     1 2px   0.27617     1 2pz  -0.31059     1 3d2- -0.30252
                                    1 3d1+  0.40388     1 3d1-  0.38534     2 1s    0.27590     2 1s   -1.22186     2 2px   0.27607
                                    2 2pz  -0.31068     2 3d2-  0.30247     2 3d1+ -0.40376     2 3d1- -0.38524     3 1s   -0.32556
                                    6 1s    0.32566
   30.1    -0.00000     2.19236     1 1s    0.33688     1 1s   -1.57303     1 2px  -0.35760     1 2py   0.27478     1 2pz   0.41260
                                    1 3d0   0.57233     1 3d2+  0.36046     2 1s   -0.33684     2 1s    1.57302     2 2px  -0.35754
                                    2 2py   0.27482     2 2pz   0.41258     2 3d0  -0.57236     2 3d2+ -0.36050     3 1s    0.36268
                                    4 1s    0.32798     5 1s   -0.32805     6 1s   -0.36267
   31.1    -0.00000     2.24184     1 1s    0.50076     1 1s   -0.33584     1 2px   0.27363     1 2px  -0.29701     1 3d2-  0.29190
                                    1 3d1+  0.39183     1 3d2+ -0.38807     2 1s    0.50079     2 1s   -0.33602     2 2px  -0.27362
                                    2 2px   0.29710     2 3d2-  0.29188     2 3d1+  0.39186     2 3d2+ -0.38803
   32.1    -0.00000     2.33957     1 2py   0.38016     1 3d0   0.50850     1 3d2- -0.37672     1 3d1- -0.36521     2 2py  -0.38016
                                    2 3d0   0.50843     2 3d2- -0.37682     2 3d1- -0.36524     3 1s   -0.27541     4 1s    0.40081
                                    5 1s    0.40078     6 1s   -0.27548
   33.1    -0.00000     2.56787     1 1s   -0.38177     1 2py   0.32239     1 3d2- -0.47863     1 3d1- -0.59769     2 1s    0.38181
                                    2 2py   0.32254     2 3d2-  0.47834     2 3d1-  0.59787     3 1s   -0.48420     4 1s    0.40802
                                    5 1s   -0.40816     6 1s    0.48409
   34.1    -0.00000     2.63626     1 2py   0.33537     1 3d2-  0.42042     1 3d2+  0.52682     1 3d1- -0.51629     2 2py  -0.33519
                                    2 3d2-  0.42064     2 3d2+  0.52677     2 3d1- -0.51596     4 1s    0.36301     5 1s    0.36276
   35.1    -0.00000     2.74040     1 3d0  -0.41558     1 3d2- -0.50605     1 3d1+  0.49928     2 3d0  -0.41562     2 3d2- -0.50617
                                    2 3d1+  0.49933     3 1s   -0.48657     6 1s   -0.48675
   36.1    -0.00000     2.95410     1 1s   -1.76488     1 2px  -0.42649     1 2px  -0.89601     1 2py   0.25503     1 2pz   0.44788
                                    1 3d2-  0.35643     1 3d1+  0.69037     1 3d2+ -0.64389     2 1s    1.76487     2 2px  -0.42649
                                    2 2px  -0.89601     2 2py   0.25503     2 2pz   0.44788     2 3d2- -0.35646     2 3d1+ -0.69034
                                    2 3d2+  0.64388


 Natural orbital dump (state averaged) at molpro section  2140.2    (Orbital set 2)



 **********************************************************************************************************************************
 DATASETS  * FILE   NREC   LENGTH (MB)   RECORD NAMES
              1      20       31.86       500      610      700      900      950      970     1000      129      960     1100   
                                          VAR    BASINP    GEOM    SYMINP    ZMAT    AOBASIS   BASIS     P2S    ABASIS      S 
                                         1400     1410     1200     1210     1080     1600     1650     1300     1700     1380   
                                           T        V       H0       H01     AOSYM     SMH    MOLCAS    ERIS     OPER     JKOP   

              2       5        5.42       700     1000      520     2100     2140   
                                         GEOM     BASIS   MCVARS     RHF     MCSCF   

 PROGRAMS   *        TOTAL     MULTI    HF-SCF       INT
 CPU TIMES  *         0.84      0.34      0.15      0.25
 REAL TIME  *         1.31 SEC
 DISK USED  *        39.04 MB
 **********************************************************************************************************************************
 Molecular orbitals read from record     2140.2  Type=MCSCF/NATURAL (state averaged)
 Occupation numbers read from record     2140.2  Type=MCSCF/NATURAL (state averaged)
 Orbital energies read from record       2140.2  Type=MCSCF/NATURAL (state averaged)
 Redundancy group numbers read from rec  2140.2  Type=MCSCF/NATURAL (state averaged)

 MULTI/6-31G* energy=    -77.551432810270

           MULTI          HF-SCF
    -77.55143281    -77.85126621
 **********************************************************************************************************************************
 Molpro calculation terminated
