
 Primary working directories    : /scratch.local/johan406.molpro_temp/molpro.g6JlCndxiV
 Secondary working directories  : /scratch.local/johan406.molpro_temp/molpro.g6JlCndxiV
 Wavefunction directory         : /home/goodpast/johan406/wfu/
 Main file repository           : /scratch.local/johan406.molpro_temp/molpro.g6JlCndxiV/

 id        : roweumn

 Nodes     nprocs
 cn0391       1

 Using customized tuning parameters: mindgm=1; mindgv=20; mindgc=4; mindgr=1; noblas=0; minvec=7
 default implementation of scratch files=df  


 Variables initialized (934), CPU time= 0.00 sec
                                                                                 !leave this line blank
 
 gprint, orbitals=30
 memory, 125., m
 symmetry, nosym
 nelect=16
 basis=6-31g*
 
 geometry={
 C -0.6329 0.1441 0.2871
 C 0.6418 -0.194 -0.3475
 H -1.3068 0.9195 -0.0846
 H -0.9443 -0.879 -0.1157
 H 0.9532 0.8291 0.0553
 H 1.3157 -0.9694 0.0241
 }
 
 hf
 {multi,
 closed 7
 occ 9
 wf,spin=0;STATE,3
 }
 
 Commands  initialized (763), CPU time= 0.01 sec, 617 directives.
 Default parameters read. Elapsed time= 0.07 sec

 Checking input...
 Passed
1


                                         ***  PROGRAM SYSTEM MOLPRO  ***
                                       Copyright, TTI GmbH Stuttgart, 2015
                                    Version 2019.2 linked Oct 25 2019 22:50:27


 **********************************************************************************************************************************
 LABEL *                                                                                 
  64 bit serial version                                                                  DATE: 07-Feb-23          TIME: 15:43:24  
 **********************************************************************************************************************************

 SHA1:             8dbd9ae1082e4ce945b0f27595c9eb2d4aa09004
 **********************************************************************************************************************************


 Variable memory set to  125000000 words,  buffer space 

 SETTING NELECT         =        16.00000000                                  
 SETTING BASIS          =    6-31G*
 ZSYMEL=NOSYM


Geometry recognized as XYZ



 Recomputing integrals since basis changed


 Using spherical harmonics

 Library entry C      S 6-31G                selected for orbital group  1
 Library entry C      P 6-31G                selected for orbital group  1
 Library entry C      D 6-31G*               selected for orbital group  1
 Library entry H      S 6-31G                selected for orbital group  2


 PROGRAM * SEWARD (Integral evaluation for generally contracted gaussian basis sets)     Author: Roland Lindh, 1990

 Geometry written to block  1 of record 700


 Point group  C1  



 ATOMIC COORDINATES

 NR  ATOM    CHARGE       X              Y              Z

   1  C       6.00   -1.196007664    0.272309535    0.542540370
   2  C       6.00    1.212826227   -0.366606868   -0.656679828
   3  H       1.00   -2.469494100    1.737603172   -0.159870830
   4  H       1.00   -1.784468379   -1.661069263   -0.218641313
   5  H       1.00    1.801286942    1.566771930    0.104501855
   6  H       1.00    2.486312662   -1.831900505    0.045542400

 Bond lengths in Bohr (Angstrom)

 1-2  2.765650732  1-3  2.064518016  1-4  2.159545588  2-5  2.159545588  2-6  2.064453729
     ( 1.463519340)     ( 1.092495886)     ( 1.142782311)     ( 1.142782311)     ( 1.092461867)

 Bond angles

  1-2-5   82.97373731   1-2-6  123.62503001   2-1-3  123.62111257   2-1-4   82.97373731

  3-1-4  110.32909602   5-2-6  110.33172845

 NUCLEAR CHARGE:                   16
 NUMBER OF PRIMITIVE AOS:          72
 NUMBER OF SYMMETRY AOS:           70
 NUMBER OF CONTRACTIONS:           36   (   36A   )
 NUMBER OF CORE ORBITALS:           2   (    2A   )
 NUMBER OF VALENCE ORBITALS:       12   (   12A   )


 NUCLEAR REPULSION ENERGY   32.25345744

 Eigenvalues of metric

         1 0.981E-02 0.274E-01 0.581E-01 0.640E-01 0.745E-01 0.219E+00 0.240E+00 0.279E+00


 Contracted 2-electron integrals neglected if value below      1.0D-11
 AO integral compression algorithm  1   Integral accuracy      1.0D-11

     1.573 MB (compressed) written to integral file ( 58.9%)


 NUMBER OF SORTED TWO-ELECTRON INTEGRALS:     222111.     BUFFER LENGTH:  32768
 NUMBER OF SEGMENTS:   1  SEGMENT LENGTH:     222111      RECORD LENGTH: 524288

 Memory used in sort:       0.78 MW

 SORT1 READ      284735. AND WROTE      212531. INTEGRALS IN      1 RECORDS. CPU TIME:     0.00 SEC, REAL TIME:     0.01 SEC
 SORT2 READ      212531. AND WROTE      222111. INTEGRALS IN      6 RECORDS. CPU TIME:     0.02 SEC, REAL TIME:     0.02 SEC

 FILE SIZES:   FILE 1:    31.7 MBYTE,  FILE 4:     4.2 MBYTE,   TOTAL:     35.9 MBYTE

 OPERATOR DM      FOR CENTER  0  COORDINATES:    0.000000    0.000000    0.000000


 **********************************************************************************************************************************
 DATASETS  * FILE   NREC   LENGTH (MB)   RECORD NAMES
              1      19       31.13       500      610      700      900      950      970     1000      129      960     1100   
                                          VAR    BASINP    GEOM    SYMINP    ZMAT    AOBASIS   BASIS     P2S    ABASIS      S 
                                         1400     1410     1200     1210     1080     1600     1650     1300     1700   
                                           T        V       H0       H01     AOSYM     SMH    MOLCAS    ERIS     OPER   

 PROGRAMS   *        TOTAL       INT
 CPU TIMES  *         0.37      0.27
 REAL TIME  *         0.60 SEC
 DISK USED  *        36.24 MB
 **********************************************************************************************************************************


 PROGRAM * RHF-SCF (CLOSED SHELL)       Authors: W. Meyer, H.-J. Werner


 NUMBER OF ELECTRONS:       8+    8-    SPACE SYMMETRY=1    SPIN SYMMETRY: Singlet 
 CONVERGENCE THRESHOLDS:    1.00E-05 (Density)    1.00E-07 (Energy)
 MAX. NUMBER OF ITERATIONS:       60
 INTERPOLATION TYPE:            DIIS
 INTERPOLATION STEPS:              2 (START)      1 (STEP)
 LEVEL SHIFTS:                  0.00 (CLOSED)  0.00 (OPEN) 



 Orbital guess generated from atomic densities. Full valence occupancy:    8

 Molecular orbital dump at record        2100.2

 Initial occupancy:   8

 ITERATION    DDIFF          GRAD             ENERGY        2-EL.EN.            DIPOLE MOMENTS         DIIS   ORB.
    1      0.000D+00      0.000D+00       -77.83623828    115.737617    0.00001    0.00001   -0.00004    0    start
    2      0.000D+00      0.696D-02       -77.85390803    114.719124    0.00004   -0.00001   -0.00005    1    diag
    3      0.747D-02      0.226D-02       -77.85596939    115.134016    0.00004   -0.00001   -0.00004    2    diag
    4      0.296D-02      0.823D-03       -77.85642052    115.007358    0.00005   -0.00002   -0.00005    3    diag
    5      0.163D-02      0.295D-03       -77.85655937    115.014288    0.00004   -0.00001   -0.00005    4    diag
    6      0.102D-02      0.126D-03       -77.85660061    115.015434    0.00006   -0.00002   -0.00007    5    diag
    7      0.583D-03      0.415D-04       -77.85660504    115.016697    0.00003   -0.00000   -0.00002    6    diag
    8      0.204D-03      0.116D-04       -77.85660532    115.017044    0.00008   -0.00004   -0.00010    7    diag
    9      0.538D-04      0.310D-05       -77.85660533    115.017021    0.00001    0.00001    0.00001    8    diag
   10      0.801D-05      0.142D-05       -77.85660533    115.017024    0.00008   -0.00004   -0.00010    0    orth

 Final occupancy:   8

 !RHF STATE  1.1 Energy               -77.856605329064
 Nuclear energy                        32.25345744
 One-electron energy                 -167.61857460
 Two-electron energy                   57.50851183
 Virial quotient                       -1.00175445
 !RHF STATE  1.1 Dipole moment          0.00008399    -0.00003971    -0.00010263
 Dipole moment /Debye                   0.00021346    -0.00010092    -0.00026085

 ELECTRON ORBITALS
 =================

  Orbital  Occupation    Energy     Coefficients
    1.1     2.00000   -11.25918     1 1s    0.69195     2 1s    0.71669
    2.1     2.00000   -11.25834     1 1s    0.71679     2 1s   -0.69206
    3.1     2.00000    -1.03194     1 1s    0.28428     2 1s    0.28429
    4.1     2.00000    -0.78368     1 1s   -0.28680     2 1s    0.28679
    5.1     2.00000    -0.62482     1 2py   0.30772     2 2py   0.30780
    6.1     2.00000    -0.57585     1 2px   0.29318     2 2px  -0.29318
    7.1     2.00000    -0.38363     1 2pz   0.31520     1 2pz   0.29142     2 2pz   0.31456     2 2pz   0.29105
    8.1     2.00000    -0.38334     1 2px   0.27864     2 2px  -0.27777     4 1s   -0.28425     5 1s   -0.28411
    9.1     0.00000     0.07580     1 1s    0.39764     1 2pz   0.33417     1 2pz   0.48455     2 1s    0.39761     2 2pz  -0.33419
                                    2 2pz  -0.48457
   10.1     0.00000     0.23287     1 1s   -1.08678     1 2px   0.46858     1 2py   0.38199     1 2pz   0.39009     2 1s   -1.08676
                                    2 2px  -0.46865     2 2py  -0.38200     2 2pz  -0.39006     3 1s    0.54492     4 1s    1.09256
                                    5 1s    1.09262     6 1s    0.54495
   11.1     0.00000     0.27378     1 1s   -1.45585     1 2py  -0.38079     1 2pz   0.37495     2 1s    1.45593     2 2py  -0.38083
                                    2 2pz   0.37488     3 1s    1.39684     6 1s   -1.39691
   12.1     0.00000     0.31976     1 1s   -0.79422     1 2px   0.42737     1 2py  -1.03958     1 2pz   0.42114     2 1s   -0.79402
                                    2 2px  -0.42734     2 2py   1.03977     2 2pz  -0.42103     3 1s    1.61884     4 1s   -0.42761
                                    5 1s   -0.42798     6 1s    1.61890
   13.1     0.00000     0.33815     1 1s    1.06527     1 2px  -0.28121     1 2py  -0.77402     1 2pz  -0.29785     2 1s   -1.06538
                                    2 2px  -0.28127     2 2py  -0.77379     2 2pz  -0.29791     4 1s   -1.70981     5 1s    1.70967
   14.1     0.00000     0.42699     1 1s    2.01302     1 2px   1.84180     1 2py  -0.67914     1 2pz  -0.78313     2 1s   -2.01293
                                    2 2px   1.84184     2 2py  -0.67922     2 2pz  -0.78315     3 1s    0.73436     6 1s   -0.73452
   15.1     0.00000     0.71081     1 2px  -0.53507     1 2px   0.91123     2 2px   0.53510     2 2px  -0.91132     3 1s    0.27068
                                    4 1s   -0.45656     5 1s   -0.45651     6 1s    0.27074
   16.1     0.00000     0.75155     1 1s   -0.38146     1 2px   0.26620     1 2py  -0.35444     1 2px  -0.76643     1 2py   0.78506
                                    2 1s    0.38125     2 2px   0.26619     2 2py  -0.35445     2 2px  -0.76650     2 2py   0.78520
                                    3 1s   -0.50406     6 1s    0.50409
   17.1     0.00000     0.79836     1 2pz  -0.73811     1 2pz   0.69258     2 2pz  -0.73884     2 2pz   0.69339
   18.1     0.00000     0.80365     1 2py  -0.54015     1 2pz  -0.40112     1 2py   1.20332     1 2pz   0.43123     2 2py   0.54010
                                    2 2pz   0.39997     2 2py  -1.20323     2 2pz  -0.43017     3 1s   -0.30605     4 1s    0.25422
                                    5 1s    0.25395     6 1s   -0.30639
   19.1     0.00000     0.87905     1 1s   -0.41400     1 2px  -0.28542     1 2py   0.26821     1 2pz  -0.62152     1 2px   0.53692
                                    1 2py  -0.78095     1 2pz   0.86031     2 1s   -0.41399     2 2px   0.28544     2 2py  -0.26822
                                    2 2pz   0.62140     2 2px  -0.53702     2 2py   0.78102     2 2pz  -0.86015     3 1s    0.35318
                                    6 1s    0.35322
   20.1     0.00000     0.96872     1 2px   0.66904     1 2py   0.41893     1 2px  -0.97329     1 2py  -0.91361     2 2px   0.66902
                                    2 2py   0.41895     2 2px  -0.97328     2 2py  -0.91361     4 1s   -1.04553     5 1s    1.04563
   21.1     0.00000     1.12522     1 1s   -0.61214     1 1s    1.14543     1 2px   0.29199     1 2py   0.37284     1 2px  -0.35769
                                    1 2py  -0.35882     2 1s   -0.61218     2 1s    1.14545     2 2px  -0.29193     2 2py  -0.37291
                                    2 2px   0.35768     2 2py   0.35888     4 1s    0.69328     4 1s   -1.14085     5 1s    0.69341
                                    5 1s   -1.14101
   22.1     0.00000     1.14851     1 1s   -0.52363     1 2px   0.47803     1 2py  -0.49513     1 2px  -1.10982     1 2py   0.93093
                                    2 1s    0.52384     2 2px   0.47797     2 2py  -0.49499     2 2px  -1.10979     2 2py   0.93085
                                    3 1s    0.60975     3 1s   -1.32766     4 1s    0.28637     5 1s   -0.28627     6 1s   -0.60946
                                    6 1s    1.32732
   23.1     0.00000     1.16551     1 1s   -0.72287     1 2py   0.34947     1 2px  -0.72852     2 1s    0.73317     2 2py   0.34872
                                    2 2px  -0.72552     4 1s    0.83596     4 1s   -1.01673     5 1s   -0.83771     5 1s    1.01334
   24.1     0.00000     1.16924     1 1s    0.48499     1 1s   -1.05617     1 2px   0.30695     1 2py  -0.30784     1 2pz   0.62553
                                    2 1s    0.48604     2 1s   -1.05179     2 2px  -0.31276     2 2py   0.30576     2 2pz  -0.62472
                                    3 1s    0.83204     4 1s    0.34204     5 1s    0.35154     6 1s    0.83089
   25.1     0.00000     1.20400     1 1s   -1.21448     1 1s    2.10139     1 2py  -0.37488     1 2px  -0.58669     1 2py   0.66254
                                    1 2pz  -0.68758     2 1s   -1.21491     2 1s    2.10217     2 2py   0.37489     2 2px   0.58698
                                    2 2py  -0.66260     2 2pz   0.68765     3 1s    0.30645     3 1s   -1.41380     4 1s   -0.26010
                                    5 1s   -0.25987     6 1s    0.30671     6 1s   -1.41437
   26.1     0.00000     1.26311     1 1s   -1.62994     1 1s    4.90437     1 2px   1.14389     1 2py  -0.79735     1 2pz  -1.09200
                                    2 1s    1.62938     2 1s   -4.90331     2 2px   1.14419     2 2py  -0.79764     2 2pz  -1.09149
                                    3 1s   -0.48545     4 1s   -0.79367     5 1s    0.79342     6 1s    0.48508
   27.1     0.00000     1.69813     1 1s    0.59562     1 3d0   0.34715     1 3d2- -0.29932     1 3d2+ -0.32140     2 1s   -0.59564
                                    2 3d0  -0.34716     2 3d2-  0.29933     2 3d2+  0.32140
   28.1     0.00000     1.93807     1 1s    0.26712     1 1s   -0.64058     1 2pz   0.31780     1 3d0   0.33071     1 3d1+  0.34039
                                    1 3d2+  0.34232     1 3d1-  0.35659     2 1s    0.26628     2 1s   -0.63696     2 2pz  -0.31690
                                    2 3d0   0.33046     2 3d1+  0.34184     2 3d2+  0.34291     2 3d1-  0.35795     3 1s    0.29614
                                    6 1s    0.29622
   29.1     0.00000     1.94325     1 1s    0.95996     1 3d2- -0.30387     1 3d1+  0.41451     1 3d1-  0.39083     2 1s   -0.96214
                                    2 3d2-  0.30366     2 3d1+ -0.41331     2 3d1- -0.38957     3 1s   -0.31512     6 1s    0.31596
   30.1     0.00000     2.21585     1 1s    0.29350     1 1s   -1.37536     1 2px  -0.29833     1 2pz   0.34686     1 3d0   0.56914
                                    1 3d2+  0.36698     2 1s   -0.29305     2 1s    1.37506     2 2px  -0.29807     2 2pz   0.34674
                                    2 3d0  -0.56898     2 3d2+ -0.36728     3 1s    0.38891     4 1s    0.32605     5 1s   -0.32612
                                    6 1s   -0.38897
   31.1     0.00000     2.23408     1 1s    0.52587     1 1s   -0.35278     1 2px   0.28106     1 2px  -0.32040     1 2py   0.26137
                                    1 3d1+  0.37927     1 3d2+ -0.37698     2 1s    0.52613     2 1s   -0.35410     2 2px  -0.28104
                                    2 2px   0.32075     2 2py  -0.26165     2 3d1+  0.37939     2 3d2+ -0.37670
   32.1     0.00000     2.33956     1 2py   0.35977     1 3d0   0.49063     1 3d2- -0.40894     1 3d1- -0.31629     2 2py  -0.35983
                                    2 3d0   0.49058     2 3d2- -0.40900     2 3d1- -0.31635     4 1s    0.43405     5 1s    0.43407
   33.1     0.00000     2.54416     1 1s    0.68295     1 2px   0.36598     1 2py  -0.39538     1 3d2-  0.45637     1 3d1-  0.59147
                                    2 1s   -0.68297     2 2px   0.36592     2 2py  -0.39544     2 3d2- -0.45625     2 3d1- -0.59153
                                    3 1s    0.44677     4 1s   -0.43625     5 1s    0.43631     6 1s   -0.44672
   34.1     0.00000     2.64297     1 2py   0.35241     1 3d2-  0.34241     1 3d2+  0.55397     1 3d1- -0.52504     2 2py  -0.35234
                                    2 3d2-  0.34251     2 3d2+  0.55396     2 3d1- -0.52490     4 1s    0.39266     5 1s    0.39257
   35.1     0.00000     2.76871     1 3d0   0.40978     1 3d2-  0.57637     1 3d1+ -0.47865     2 3d0   0.40980     2 3d2-  0.57639
                                    2 3d1+ -0.47872     3 1s    0.50959     6 1s    0.50969
   36.1     0.00000     2.95698     1 1s   -1.75779     1 2px  -0.42294     1 2px  -0.90483     1 2py   0.26134     1 2pz   0.43649
                                    1 3d2-  0.38638     1 3d1+  0.66437     1 3d2+ -0.65009     2 1s    1.75779     2 2px  -0.42294
                                    2 2px  -0.90481     2 2py   0.26134     2 2pz   0.43649     2 3d2- -0.38644     2 3d1+ -0.66432
                                    2 3d2+  0.65007


 HOMO      8.1    -0.383343 =     -10.4313eV
 LUMO      9.1     0.075804 =       2.0627eV
 LUMO-HOMO         0.459148 =      12.4940eV


 **********************************************************************************************************************************
 DATASETS  * FILE   NREC   LENGTH (MB)   RECORD NAMES
              1      19       31.13       500      610      700      900      950      970     1000      129      960     1100   
                                          VAR    BASINP    GEOM    SYMINP    ZMAT    AOBASIS   BASIS     P2S    ABASIS      S 
                                         1400     1410     1200     1210     1080     1600     1650     1300     1700   
                                           T        V       H0       H01     AOSYM     SMH    MOLCAS    ERIS     OPER   

              2       4        2.86       700     1000      520     2100   
                                         GEOM     BASIS   MCVARS     RHF  

 PROGRAMS   *        TOTAL    HF-SCF       INT
 CPU TIMES  *         0.51      0.14      0.27
 REAL TIME  *         0.82 SEC
 DISK USED  *        36.24 MB
 **********************************************************************************************************************************


 PROGRAM * MULTI (Direct Multiconfiguration SCF)       Authors: P.J. Knowles, H.-J. Werner (1984)


 Number of closed-shell orbitals:   7 (   7 )
 Number of active  orbitals:        2 (   2 )
 Number of external orbitals:      27 (  27 )

 State symmetry 1

 Number of electrons:     2    Spin symmetry=Singlet   Space symmetry=1
 Number of states:        3
 Number of CSFs:          3   (4 determinants, 4 intermediate states)

 Molecular orbitals read from record     2100.2  Type=RHF/CANONICAL (state 1.1)

 Wavefunction dump at record             2140.2

 Convergence thresholds  0.10E-01 (gradient)  0.10E-05 (energy)  0.10E-02 (step length)

 Weight factors for state symmetry  1:    0.33333   0.33333   0.33333

 Number of orbital rotations:      257   (    14 Core/Active    189 Core/Virtual   0 Active/Active     54 Active/Virtual)
 Total number of variables:        269

 Micro-Iterations solved by the two-step solver

 ITER. MIC  NCI  NEG     ENERGY(VAR)     ENERGY(PROJ)   ENERGY CHANGE     GRAD(0)  GRAD(ORB)   GRAD(CI)     STEP       TIME

   1    8    5    0     -77.69296776     -77.71280998   -0.01984221    0.16753156 0.00136472 0.00000000  0.15D+00      0.12
   2    6    5    0     -77.71248422     -77.71250431   -0.00002010    0.00658260 0.00000304 0.00000000  0.47D-02      0.21
   3    4    4    0     -77.71250434     -77.71250434   -0.00000000    0.00001296 0.00000000 0.00000000  0.19D-04      0.28

 ** WVFN ****  CONVERGENCE REACHED, FINAL GRADIENT:  0.15D-09



 Results for state 1.1
 =====================

 !MCSCF STATE  1.1 Energy             -77.850183039780
 Nuclear energy                        32.25345744
 Kinetic energy                        77.77618305
 One electron energy                 -167.69312558
 Two electron energy                   57.58948509
 Virial ratio                           2.00095145

 !MCSCF STATE  1.1 Dipole moment        0.00004843    -0.00001190    -0.00005370
 Dipole moment /Debye                   0.00012308    -0.00003024    -0.00013648

 Results for state 2.1
 =====================

 !MCSCF STATE  2.1 Energy             -77.739892392176
 Nuclear energy                        32.25345744
 Kinetic energy                        77.84382899
 One electron energy                 -167.39410141
 Two electron energy                   57.40075157
 Virial ratio                           1.99866481

 !MCSCF STATE  2.1 Dipole moment        0.00004775    -0.00002798    -0.00004764
 Dipole moment /Debye                   0.00012136    -0.00007110    -0.00012108

 Results for state 3.1
 =====================

 !MCSCF STATE  3.1 Energy             -77.547437599431
 Nuclear energy                        32.25345744
 Kinetic energy                        77.90062014
 One electron energy                 -167.12908421
 Two electron energy                   57.32818917
 Virial ratio                           1.99546624

 !MCSCF STATE  3.1 Dipole moment        0.00004186    -0.00004176    -0.00003409
 Dipole moment /Debye                   0.00010639    -0.00010613    -0.00008664

 State-averaged charge density matrix saved on record  2140.2 (density set 1)

 !MCSCF expec         <1.1|DMX|1.1>     0.000048426452 au =     0.000123079701 Debye
 !MCSCF trans         <2.1|DMX|1.1>     0.000014772474 au =     0.000037545424 Debye
 !MCSCF expec         <2.1|DMX|2.1>     0.000047751714 au =     0.000121364801 Debye
 !MCSCF trans         <3.1|DMX|1.1>    -0.000000586324 au =    -0.000001490188 Debye
 !MCSCF trans         <3.1|DMX|2.1>     0.000015926737 au =     0.000040479076 Debye
 !MCSCF expec         <3.1|DMX|3.1>     0.000041860704 au =     0.000106392329 Debye

 !MCSCF expec         <1.1|DMY|1.1>    -0.000011899453 au =    -0.000030243411 Debye
 !MCSCF trans         <2.1|DMY|1.1>    -0.000006016048 au =    -0.000015290267 Debye
 !MCSCF expec         <2.1|DMY|2.1>    -0.000027975383 au =    -0.000071101675 Debye
 !MCSCF trans         <3.1|DMY|1.1>     0.000001686151 au =     0.000004285487 Debye
 !MCSCF trans         <3.1|DMY|2.1>    -0.000007451794 au =    -0.000018939331 Debye
 !MCSCF expec         <3.1|DMY|3.1>    -0.000041756056 au =    -0.000106126357 Debye

 !MCSCF expec         <1.1|DMZ|1.1>    -0.000053698016 au =    -0.000136477803 Debye
 !MCSCF trans         <2.1|DMZ|1.1>    -0.000021356508 au =    -0.000054279273 Debye
 !MCSCF expec         <2.1|DMZ|2.1>    -0.000047638324 au =    -0.000121076611 Debye
 !MCSCF trans         <3.1|DMZ|1.1>     0.000000397588 au =     0.000001010502 Debye
 !MCSCF trans         <3.1|DMZ|2.1>    -0.000022724946 au =    -0.000057757269 Debye
 !MCSCF expec         <3.1|DMZ|3.1>    -0.000034090643 au =    -0.000086644098 Debye


 NATURAL ORBITALS (state averaged)
 =================================

  Orbital  Occupation    Energy     Coefficients
    1.1     2.00000   -11.25364     1 1s    0.70504     2 1s    0.70379
    2.1     2.00000   -11.25291     1 1s    0.70384     2 1s   -0.70510
    3.1     2.00000    -1.04404     1 1s    0.27911     2 1s    0.27911
    4.1     2.00000    -0.78272     1 1s   -0.31324     2 1s    0.31323
    5.1     2.00000    -0.62784     1 2py   0.30106     2 2py   0.30111
    6.1     2.00000    -0.57331     1 2px   0.25690     2 2px  -0.25690
    7.1     2.00000    -0.41194     1 2pz   0.33189     1 2pz   0.28590     2 2pz   0.33188     2 2pz   0.28589
    8.1     1.00000    -0.07512     1 1s    0.25468     1 2pz   0.41037     1 2pz   0.44320     2 1s    0.25466     2 2pz  -0.41038
                                    2 2pz  -0.44322
    9.1     1.00000    -0.22575     1 2px   0.31037     2 2px  -0.31037     4 1s   -0.29354     5 1s   -0.29353
   10.1    -0.00000     0.22015     1 1s   -1.09416     1 2px   0.46465     1 2py   0.39943     1 2pz   0.33087     2 1s   -1.09409
                                    2 2px  -0.46469     2 2py  -0.39942     2 2pz  -0.33082     3 1s    0.51246     4 1s    1.10165
                                    5 1s    1.10165     6 1s    0.51245
   11.1    -0.00000     0.27365     1 1s   -1.52437     1 2py  -0.33231     1 2pz   0.38412     2 1s    1.52438     2 2py  -0.33223
                                    2 2pz   0.38402     3 1s    1.39177     6 1s   -1.39167
   12.1    -0.00000     0.32203     1 1s   -0.85479     1 2px   0.43033     1 2py  -1.03022     1 2pz   0.39401     2 1s   -0.85091
                                    2 2px  -0.42984     2 2py   1.03346     2 2pz  -0.39279     3 1s    1.63888     4 1s   -0.38114
                                    5 1s   -0.38753     6 1s    1.63954
   13.1    -0.00000     0.32256     1 1s    1.11025     1 2py  -0.86097     1 2pz  -0.32585     2 1s   -1.11337     2 2py  -0.85718
                                    2 2pz  -0.32729     4 1s   -1.73200     5 1s    1.73058
   14.1    -0.00000     0.43219     1 1s    1.86730     1 2px   1.85030     1 2py  -0.56662     1 2pz  -0.72526     2 1s   -1.86720
                                    2 2px   1.85034     2 2py  -0.56671     2 2pz  -0.72527     3 1s    0.73280     6 1s   -0.73297
   15.1    -0.00000     0.70630     1 2px  -0.51766     1 2px   0.88527     2 2px   0.51766     2 2px  -0.88530     3 1s    0.26764
                                    4 1s    0.28353     4 1s   -0.50873     5 1s    0.28354     5 1s   -0.50872     6 1s    0.26770
   16.1    -0.00000     0.75138     1 1s   -0.47378     1 2px   0.26366     1 2py  -0.34832     1 2px  -0.81192     1 2py   0.80470
                                    2 1s    0.47361     2 2px   0.26365     2 2py  -0.34825     2 2px  -0.81197     2 2py   0.80466
                                    3 1s   -0.50213     6 1s    0.50214
   17.1    -0.00000     0.79704     1 1s   -0.36906     1 2pz  -0.73290     1 2pz   0.75638     2 1s    0.36898     2 2pz  -0.73315
                                    2 2pz   0.75669
   18.1    -0.00000     0.80238     1 2py  -0.51226     1 2pz  -0.39776     1 2py   1.16709     1 2pz   0.51135     2 2py   0.51227
                                    2 2pz   0.39735     2 2py  -1.16714     2 2pz  -0.51097     3 1s   -0.25985     4 1s    0.25166
                                    5 1s    0.25158     6 1s   -0.26005
   19.1    -0.00000     0.87651     1 1s   -0.37930     1 2px  -0.30144     1 2py   0.26964     1 2pz  -0.59194     1 2px   0.57568
                                    1 2py  -0.79821     1 2pz   0.89868     2 1s   -0.37931     2 2px   0.30146     2 2py  -0.26965
                                    2 2pz   0.59191     2 2px  -0.57579     2 2py   0.79826     2 2pz  -0.89861     3 1s    0.40149
                                    6 1s    0.40153
   20.1    -0.00000     0.97388     1 2px   0.66312     1 2py   0.41810     1 2px  -0.87244     1 2py  -0.93084     2 2px   0.66309
                                    2 2py   0.41812     2 2px  -0.87244     2 2py  -0.93086     4 1s   -0.99165     5 1s    0.99172
   21.1    -0.00000     1.09769     1 1s   -0.54191     1 1s    1.00265     1 2px   0.30851     1 2py   0.40544     1 2px  -0.33340
                                    1 2py  -0.43283     2 1s   -0.54189     2 1s    1.00253     2 2px  -0.30850     2 2py  -0.40548
                                    2 2px   0.33347     2 2py   0.43283     4 1s    0.70258     4 1s   -1.09716     5 1s    0.70264
                                    5 1s   -1.09723
   22.1    -0.00000     1.12774     1 1s   -0.39181     1 2py   0.43690     1 2px  -0.56894     1 2py  -0.36583     2 1s    0.39304
                                    2 2py   0.43683     2 2px  -0.56859     2 2py  -0.36609     4 1s    0.82195     4 1s   -1.12669
                                    5 1s   -0.82205     5 1s    1.12624
   23.1    -0.00000     1.15236     1 1s   -0.75896     1 2px   0.50273     1 2py  -0.43431     1 2px  -1.25076     1 2py   0.90146
                                    2 1s    0.75963     2 2px   0.50264     2 2py  -0.43414     2 2px  -1.25062     2 2py   0.90129
                                    3 1s    0.61614     3 1s   -1.30965     6 1s   -0.61584     6 1s    1.30909
   24.1    -0.00000     1.16667     1 1s    0.67650     1 1s   -1.39564     1 2px   0.41195     1 2py  -0.39419     1 2pz   0.71576
                                    2 1s    0.67739     2 1s   -1.39765     2 2px  -0.41170     2 2py   0.39357     2 2pz  -0.71617
                                    3 1s    0.78470     4 1s    0.44020     5 1s    0.44135     6 1s    0.78466
   25.1    -0.00000     1.20693     1 1s   -1.16482     1 1s    1.98109     1 2py  -0.38215     1 2px  -0.53958     1 2py   0.61381
                                    1 2pz  -0.57505     2 1s   -1.16484     2 1s    1.98072     2 2py   0.38235     2 2px   0.54019
                                    2 2py  -0.61424     2 2pz   0.57486     3 1s    0.41385     3 1s   -1.39925     6 1s    0.41416
                                    6 1s   -1.39989
   26.1    -0.00000     1.25745     1 1s   -1.63271     1 1s    4.91485     1 2px   1.15248     1 2py  -0.73586     1 2pz  -1.07326
                                    2 1s    1.63236     2 1s   -4.91413     2 2px   1.15270     2 2py  -0.73608     2 2pz  -1.07285
                                    3 1s   -0.52710     4 1s   -0.71449     5 1s    0.71428     6 1s    0.52697
   27.1    -0.00000     1.69275     1 1s    0.61433     1 3d0   0.34104     1 3d2- -0.30326     1 3d2+ -0.32363     2 1s   -0.61434
                                    2 3d0  -0.34105     2 3d2-  0.30325     2 3d2+  0.32363
   28.1    -0.00000     1.93513     1 1s    0.25747     1 1s   -0.62999     1 2pz   0.31255     1 3d0   0.32829     1 3d1+  0.33550
                                    1 3d2+  0.34973     1 3d1-  0.35649     2 1s    0.25706     2 1s   -0.62822     2 2py   0.25008
                                    2 2pz  -0.31210     2 3d0   0.32815     2 3d1+  0.33615     2 3d2+  0.35000     2 3d1-  0.35709
                                    3 1s    0.29528     6 1s    0.29534
   29.1    -0.00000     1.94041     1 1s    0.93214     1 3d2- -0.30131     1 3d1+  0.41704     1 3d1-  0.38860     2 1s   -0.93308
                                    2 3d2-  0.30119     2 3d1+ -0.41652     2 3d1- -0.38803     3 1s   -0.31767     6 1s    0.31805
   30.1    -0.00000     2.21537     1 1s    0.29726     1 1s   -1.36307     1 2px  -0.29189     1 2pz   0.34131     1 3d0   0.57188
                                    1 3d2+  0.37043     2 1s   -0.29668     2 1s    1.36270     2 2px  -0.29155     2 2pz   0.34117
                                    2 3d0  -0.57166     2 3d2+ -0.37084     3 1s    0.38774     4 1s    0.32116     5 1s   -0.32124
                                    6 1s   -0.38781
   31.1    -0.00000     2.23178     1 1s    0.52292     1 1s   -0.35789     1 2px   0.28729     1 2px  -0.31346     1 3d1+  0.39021
                                    1 3d2+ -0.37919     2 1s    0.52326     2 1s   -0.35951     2 2px  -0.28729     2 2px   0.31386
                                    2 3d1+  0.39033     2 3d2+ -0.37880
   32.1    -0.00000     2.33186     1 2py   0.38024     1 3d0   0.49247     1 3d2- -0.40593     1 3d1- -0.33395     2 2py  -0.38029
                                    2 3d0   0.49243     2 3d2- -0.40596     2 3d1- -0.33397     4 1s    0.42670     5 1s    0.42671
   33.1    -0.00000     2.53812     1 1s    0.67139     1 2px   0.35906     1 2py  -0.39604     1 3d2-  0.45969     1 3d1-  0.59292
                                    2 1s   -0.67141     2 2px   0.35901     2 2py  -0.39610     2 3d2- -0.45958     2 3d1- -0.59298
                                    3 1s    0.45074     4 1s   -0.42668     5 1s    0.42674     6 1s   -0.45069
   34.1    -0.00000     2.63475     1 2py   0.35480     1 3d2-  0.35912     1 3d2+  0.54863     1 3d1- -0.52388     2 2py  -0.35474
                                    2 3d2-  0.35922     2 3d2+  0.54863     2 3d1- -0.52376     4 1s    0.38011     5 1s    0.38003
   35.1    -0.00000     2.77226     1 3d0   0.41880     1 3d2-  0.56204     1 3d1+ -0.48452     2 3d0   0.41882     2 3d2-  0.56208
                                    2 3d1+ -0.48461     3 1s    0.50848     6 1s    0.50860
   36.1    -0.00000     2.95229     1 1s   -1.79001     1 2px  -0.41697     1 2px  -0.91799     1 2py   0.27030     1 2pz   0.44460
                                    1 3d2-  0.38449     1 3d1+  0.66746     1 3d2+ -0.64690     2 1s    1.79000     2 2px  -0.41697
                                    2 2px  -0.91798     2 2py   0.27029     2 2pz   0.44460     2 3d2- -0.38455     2 3d1+ -0.66741
                                    2 3d2+  0.64690


 Natural orbital dump (state averaged) at molpro section  2140.2    (Orbital set 2)



 **********************************************************************************************************************************
 DATASETS  * FILE   NREC   LENGTH (MB)   RECORD NAMES
              1      20       31.86       500      610      700      900      950      970     1000      129      960     1100   
                                          VAR    BASINP    GEOM    SYMINP    ZMAT    AOBASIS   BASIS     P2S    ABASIS      S 
                                         1400     1410     1200     1210     1080     1600     1650     1300     1700     1380   
                                           T        V       H0       H01     AOSYM     SMH    MOLCAS    ERIS     OPER     JKOP   

              2       5        5.42       700     1000      520     2100     2140   
                                         GEOM     BASIS   MCVARS     RHF     MCSCF   

 PROGRAMS   *        TOTAL     MULTI    HF-SCF       INT
 CPU TIMES  *         0.85      0.34      0.14      0.27
 REAL TIME  *         1.27 SEC
 DISK USED  *        39.04 MB
 **********************************************************************************************************************************
 Molecular orbitals read from record     2140.2  Type=MCSCF/NATURAL (state averaged)
 Occupation numbers read from record     2140.2  Type=MCSCF/NATURAL (state averaged)
 Orbital energies read from record       2140.2  Type=MCSCF/NATURAL (state averaged)
 Redundancy group numbers read from rec  2140.2  Type=MCSCF/NATURAL (state averaged)

 MULTI/6-31G* energy=    -77.547437599431

           MULTI          HF-SCF
    -77.54743760    -77.85660533
 **********************************************************************************************************************************
 Molpro calculation terminated
