
 Primary working directories    : /scratch.local/johan406.molpro_temp/molpro.MKQayKBiVU
 Secondary working directories  : /scratch.local/johan406.molpro_temp/molpro.MKQayKBiVU
 Wavefunction directory         : /home/goodpast/johan406/wfu/
 Main file repository           : /scratch.local/johan406.molpro_temp/molpro.MKQayKBiVU/

 id        : roweumn

 Nodes     nprocs
 acn09        1

 Using customized tuning parameters: mindgm=1; mindgv=20; mindgc=4; mindgr=1; noblas=0; minvec=7
 default implementation of scratch files=df  


 Variables initialized (934), CPU time= 0.00 sec
                                                                                 !leave this line blank
 
 gprint, orbitals=30
 memory, 125., m
 symmetry, nosym
 nelect=16
 basis=6-31g*
 
 geometry={
 C -0.6304 0.143 0.3013
 C 0.6314 -0.1823 -0.3564
 H -1.2935 0.8634 -0.184
 H -0.8883 -0.8886 -0.1427
 H 1.045 0.7938 0.0718
 H 1.2496 -0.9793 0.0655
 }
 
 hf
 {multi,
 closed 7
 occ 9
 wf,spin=0;STATE,3
 }
 
 Commands  initialized (763), CPU time= 0.01 sec, 617 directives.
 Default parameters read. Elapsed time= 0.07 sec

 Checking input...
 Passed
1


                                         ***  PROGRAM SYSTEM MOLPRO  ***
                                       Copyright, TTI GmbH Stuttgart, 2015
                                    Version 2019.2 linked Oct 25 2019 22:50:27


 **********************************************************************************************************************************
 LABEL *                                                                                 
  64 bit serial version                                                                  DATE: 07-Feb-23          TIME: 14:50:00  
 **********************************************************************************************************************************

 SHA1:             8dbd9ae1082e4ce945b0f27595c9eb2d4aa09004
 **********************************************************************************************************************************


 Variable memory set to  125000000 words,  buffer space 

 SETTING NELECT         =        16.00000000                                  
 SETTING BASIS          =    6-31G*
 ZSYMEL=NOSYM


Geometry recognized as XYZ



 Recomputing integrals since basis changed


 Using spherical harmonics

 Library entry C      S 6-31G                selected for orbital group  1
 Library entry C      P 6-31G                selected for orbital group  1
 Library entry C      D 6-31G*               selected for orbital group  1
 Library entry H      S 6-31G                selected for orbital group  2


 PROGRAM * SEWARD (Integral evaluation for generally contracted gaussian basis sets)     Author: Roland Lindh, 1990

 Geometry written to block  1 of record 700


 Point group  C1  



 ATOMIC COORDINATES

 NR  ATOM    CHARGE       X              Y              Z

   1  C       6.00   -1.191283349    0.270230836    0.569374481
   2  C       6.00    1.193173075   -0.344497073   -0.673498391
   3  H       1.00   -2.444360742    1.631589536   -0.347709607
   4  H       1.00   -1.678643716   -1.679210634   -0.269663918
   5  H       1.00    1.974763800    1.500064598    0.135682336
   6  H       1.00    2.361401765   -1.850608794    0.123777061

 Bond lengths in Bohr (Angstrom)

 1-2  2.758306693  1-3  2.065077163  1-4  2.177573789  2-5  2.160570588  2-6  2.066102354
     ( 1.459633043)     ( 1.092791773)     ( 1.152322424)     ( 1.143324718)     ( 1.093334281)

 Bond angles

  1-2-5   87.34608654   1-2-6  118.51402937   2-1-3  118.12299403   2-1-4   79.65012292

  3-1-4  106.45407281   5-2-6  105.85938388

 NUCLEAR CHARGE:                   16
 NUMBER OF PRIMITIVE AOS:          72
 NUMBER OF SYMMETRY AOS:           70
 NUMBER OF CONTRACTIONS:           36   (   36A   )
 NUMBER OF CORE ORBITALS:           2   (    2A   )
 NUMBER OF VALENCE ORBITALS:       12   (   12A   )


 NUCLEAR REPULSION ENERGY   32.34719417

 Eigenvalues of metric

         1 0.930E-02 0.275E-01 0.596E-01 0.644E-01 0.804E-01 0.218E+00 0.237E+00 0.272E+00


 Contracted 2-electron integrals neglected if value below      1.0D-11
 AO integral compression algorithm  1   Integral accuracy      1.0D-11

     1.573 MB (compressed) written to integral file ( 59.2%)


 NUMBER OF SORTED TWO-ELECTRON INTEGRALS:     222111.     BUFFER LENGTH:  32768
 NUMBER OF SEGMENTS:   1  SEGMENT LENGTH:     222111      RECORD LENGTH: 524288

 Memory used in sort:       0.78 MW

 SORT1 READ      284735. AND WROTE      212531. INTEGRALS IN      1 RECORDS. CPU TIME:     0.00 SEC, REAL TIME:     0.00 SEC
 SORT2 READ      212531. AND WROTE      222111. INTEGRALS IN      6 RECORDS. CPU TIME:     0.02 SEC, REAL TIME:     0.03 SEC

 FILE SIZES:   FILE 1:    31.7 MBYTE,  FILE 4:     4.2 MBYTE,   TOTAL:     35.9 MBYTE

 OPERATOR DM      FOR CENTER  0  COORDINATES:    0.000000    0.000000    0.000000


 **********************************************************************************************************************************
 DATASETS  * FILE   NREC   LENGTH (MB)   RECORD NAMES
              1      19       31.13       500      610      700      900      950      970     1000      129      960     1100   
                                          VAR    BASINP    GEOM    SYMINP    ZMAT    AOBASIS   BASIS     P2S    ABASIS      S 
                                         1400     1410     1200     1210     1080     1600     1650     1300     1700   
                                           T        V       H0       H01     AOSYM     SMH    MOLCAS    ERIS     OPER   

 PROGRAMS   *        TOTAL       INT
 CPU TIMES  *         0.29      0.19
 REAL TIME  *         0.45 SEC
 DISK USED  *        36.24 MB
 **********************************************************************************************************************************


 PROGRAM * RHF-SCF (CLOSED SHELL)       Authors: W. Meyer, H.-J. Werner


 NUMBER OF ELECTRONS:       8+    8-    SPACE SYMMETRY=1    SPIN SYMMETRY: Singlet 
 CONVERGENCE THRESHOLDS:    1.00E-05 (Density)    1.00E-07 (Energy)
 MAX. NUMBER OF ITERATIONS:       60
 INTERPOLATION TYPE:            DIIS
 INTERPOLATION STEPS:              2 (START)      1 (STEP)
 LEVEL SHIFTS:                  0.00 (CLOSED)  0.00 (OPEN) 



 Orbital guess generated from atomic densities. Full valence occupancy:    8

 Molecular orbital dump at record        2100.2

 Initial occupancy:   8

 ITERATION    DDIFF          GRAD             ENERGY        2-EL.EN.            DIPOLE MOMENTS         DIIS   ORB.
    1      0.000D+00      0.000D+00       -77.82651483    115.894014    0.03855   -0.04884   -0.06514    0    start
    2      0.000D+00      0.705D-02       -77.84451960    114.879162    0.01048    0.00422   -0.01172    1    diag
    3      0.760D-02      0.231D-02       -77.84660033    115.290846    0.04292   -0.01697   -0.05827    2    diag
    4      0.298D-02      0.912D-03       -77.84705946    115.174393    0.02089   -0.00007   -0.02381    3    diag
    5      0.163D-02      0.388D-03       -77.84716135    115.165560    0.03495   -0.00875   -0.04410    4    diag
    6      0.605D-03      0.235D-03       -77.84723806    115.174144    0.03137   -0.00633   -0.03804    5    diag
    7      0.671D-03      0.101D-03       -77.84726690    115.175166    0.03196   -0.00749   -0.03888    6    diag
    8      0.509D-03      0.306D-04       -77.84726928    115.176233    0.03181   -0.00760   -0.03877    7    diag
    9      0.151D-03      0.944D-05       -77.84726946    115.176438    0.03168   -0.00776   -0.03876    8    diag
   10      0.406D-04      0.280D-05       -77.84726947    115.176426    0.03163   -0.00776   -0.03875    9    orth
   11      0.889D-05      0.624D-06       -77.84726947    115.176426    0.03163   -0.00777   -0.03875    0    orth

 Final occupancy:   8

 !RHF STATE  1.1 Energy               -77.847269473277
 Nuclear energy                        32.34719417
 One-electron energy                 -167.78267688
 Two-electron energy                   57.58821324
 Virial quotient                       -1.00132896
 !RHF STATE  1.1 Dipole moment          0.03162976    -0.00777015    -0.03875272
 Dipole moment /Debye                   0.08038956    -0.01974846    -0.09849314

 ELECTRON ORBITALS
 =================

  Orbital  Occupation    Energy     Coefficients
    1.1     2.00000   -11.26319     2 1s    0.99373
    2.1     2.00000   -11.25724     1 1s    0.99374
    3.1     2.00000    -1.03741     1 1s    0.28080     2 1s    0.28506     2 1s    0.25208
    4.1     2.00000    -0.78374     1 1s   -0.29378     2 1s    0.29316
    5.1     2.00000    -0.62184     1 2py   0.30219     2 2py   0.31197
    6.1     2.00000    -0.56143     1 2px   0.30799     2 2px  -0.29079
    7.1     2.00000    -0.39224     1 2pz   0.31441     1 2pz   0.28618     2 2pz   0.29953     2 2pz   0.28101
    8.1     2.00000    -0.38602     1 2px   0.28163     2 2px  -0.25701     4 1s   -0.29744     5 1s   -0.27447
    9.1     0.00000     0.06302     1 1s   -0.40201     1 2pz  -0.32708     1 2pz  -0.46193     2 1s   -0.39473     2 2pz   0.33392
                                    2 2pz   0.47363
   10.1     0.00000     0.23081     1 1s   -1.00621     1 2px   0.46706     1 2py   0.43655     1 2pz   0.42319     2 1s   -1.17224
                                    2 2px  -0.48810     2 2py  -0.28819     2 2pz  -0.43259     3 1s    0.49479     4 1s    1.11464
                                    5 1s    1.04919     6 1s    0.64147
   11.1     0.00000     0.28198     1 1s   -1.61798     1 2py  -0.29384     1 2pz   0.51805     2 1s    1.50445     2 2py  -0.41352
                                    2 2pz   0.40271     3 1s    1.47295     6 1s   -1.41342
   12.1     0.00000     0.31255     1 1s   -0.88692     1 2px   0.42897     1 2py  -0.91141     1 2pz   0.50357     2 1s   -0.60312
                                    2 2px  -0.34328     2 2py   1.10777     2 2pz  -0.39066     3 1s    1.54749     5 1s   -0.61236
                                    6 1s    1.54668
   13.1     0.00000     0.33483     1 1s   -0.93162     1 2py   0.82053     2 1s    1.14357     2 2px   0.40411     2 2py   0.68188
                                    2 2pz   0.39676     4 1s    1.69674     5 1s   -1.67089
   14.1     0.00000     0.42375     1 1s    2.03941     1 2px   1.79514     1 2py  -0.60984     1 2pz  -0.77463     2 1s   -2.02593
                                    2 2px   1.77154     2 2py  -0.64807     2 2pz  -0.80614     3 1s    0.62635     6 1s   -0.61647
   15.1     0.00000     0.70330     1 2px  -0.55331     1 2px   0.92225     2 2px   0.54748     2 2px  -0.94202     4 1s   -0.48482
                                    5 1s   -0.36565
   16.1     0.00000     0.75984     1 1s   -0.26794     1 2py  -0.42133     1 2px  -0.66752     1 2py   0.84514     2 1s    0.34017
                                    2 2py  -0.33656     2 2px  -0.55760     2 2py   0.73196     3 1s   -0.49860     4 1s    0.25825
                                    6 1s    0.46879
   17.1     0.00000     0.78882     1 2py   0.57228     1 2pz   0.39727     1 2py  -1.19115     1 2pz  -0.38942     2 1s   -0.32262
                                    2 2py  -0.57085     2 2py   1.20884     4 1s   -0.31989
   18.1     0.00000     0.80040     1 2pz  -0.63035     1 2pz   0.59364     2 2pz  -0.80255     2 2py   0.38106     2 2pz   0.77886
   19.1     0.00000     0.86432     1 1s   -0.37154     1 2pz  -0.71962     1 2px   0.48703     1 2py  -0.51944     1 2pz   0.98737
                                    2 1s   -0.33806     2 2pz   0.65474     2 2px  -0.42038     2 2py   0.53717     2 2pz  -0.93098
   20.1     0.00000     0.97347     1 1s    0.25073     1 2px  -0.70867     1 2py  -0.36158     1 2px   1.08096     1 2py   0.71405
                                    2 1s   -0.25293     2 2px  -0.72222     2 2py  -0.37943     2 2px   1.23383     2 2py   0.82197
                                    4 1s    1.05848     5 1s   -1.02919
   21.1     0.00000     1.11303     1 1s   -0.55655     1 1s    0.82097     1 2py   0.46232     1 2px  -0.45717     1 2py  -0.41272
                                    2 1s   -0.73241     2 1s    1.53646     2 2px  -0.26348     2 2py  -0.35467     2 2py   0.41655
                                    2 2pz   0.26282     4 1s    0.76299     4 1s   -1.26984     5 1s    0.52176     5 1s   -1.08282
   22.1     0.00000     1.13480     1 1s   -0.33258     1 2px   0.42046     1 2py  -0.53709     1 2px  -0.74137     1 2py   0.85363
                                    2 2px   0.35775     2 2py  -0.66310     2 2px  -0.69963     2 2py   1.07298     3 1s    0.49473
                                    3 1s   -1.11466     4 1s   -0.25758     4 1s    0.64649     5 1s    0.37040     5 1s   -0.71371
                                    6 1s   -0.51712     6 1s    1.30657
   23.1     0.00000     1.17961     1 1s    0.36203     1 2pz  -0.26247     1 2px   0.70871     2 1s   -0.40345     2 2pz  -0.25763
                                    2 2px   0.76733     3 1s   -0.37793     3 1s    0.66669     4 1s   -0.61621     4 1s    0.80307
                                    5 1s    0.82980     5 1s   -1.01444     6 1s    0.39165     6 1s   -0.63720
   24.1     0.00000     1.18877     1 1s   -0.67410     1 1s    1.09894     1 2px   0.31087     1 2py  -0.32233     1 2px  -0.30470
                                    1 2py   0.33160     2 1s   -0.58746     2 1s    0.90648     2 2px  -0.28178     2 2py   0.29283
                                    2 2px   0.30853     2 2py  -0.27738     3 1s    0.78359     3 1s   -1.15443     6 1s    0.73767
                                    6 1s   -1.02247
   25.1     0.00000     1.25561     1 1s   -1.45778     1 1s    3.07324     1 2px  -0.31260     1 2py   0.36639     1 2pz  -1.22895
                                    2 1s   -0.87843     2 1s    1.12725     2 2px   0.71980     2 2py  -0.70290     2 2pz   0.70556
                                    3 1s   -0.40677     3 1s   -1.02746     4 1s   -0.50608     4 1s   -0.46326     5 1s   -0.27340
                                    5 1s   -0.28117     6 1s   -0.42216     6 1s   -0.74663
   26.1     0.00000     1.29015     1 1s    1.35651     1 1s   -4.61776     1 2px  -1.36838     1 2py   0.83157     1 2pz   0.99753
                                    2 1s   -1.77243     2 1s    5.36923     2 2px  -1.09563     2 2py   0.64828     2 2pz   1.38425
                                    4 1s    0.64953     5 1s   -0.38955     5 1s   -0.64480     6 1s   -0.64059
   27.1     0.00000     1.69791     1 1s    0.56158     1 3d0   0.39124     1 3d2- -0.31457     1 3d2+ -0.28502     2 1s   -0.51565
                                    2 3d0  -0.30207     2 3d2-  0.26798     2 3d2+  0.36777
   28.1     0.00000     1.92149     1 1s    0.36086     1 1s   -0.88900     1 2pz   0.42133     1 3d0   0.34735     1 3d1+  0.31876
                                    1 3d2+  0.35159     1 3d1-  0.31152     2 1s    0.27482     2 1s   -0.44241     2 2py   0.28343
                                    2 2pz  -0.27916     2 3d0   0.35044     2 3d1+  0.35913     2 3d2+  0.33227     2 3d1-  0.33098
                                    3 1s    0.25850     3 1s    0.26811     6 1s    0.29563
   29.1     0.00000     1.94092     1 1s   -0.31390     1 1s    1.37502     1 2px   0.32895     1 2pz  -0.36268     1 3d2- -0.28440
                                    1 3d1+  0.42055     1 3d1-  0.42158     2 1s    0.30481     2 1s   -1.36807     2 2px   0.30506
                                    2 2pz  -0.35018     2 3d2-  0.32459     2 3d1+ -0.36282     2 3d1- -0.35041     3 1s   -0.32448
                                    6 1s    0.33142
   30.1     0.00000     2.17624     1 1s    1.47370     1 2px   0.34698     1 2pz  -0.38174     1 3d0  -0.49537     1 3d2+ -0.40228
                                    2 1s    0.44278     2 1s   -1.69903     2 2px   0.38218     2 2py  -0.31610     2 2pz  -0.46768
                                    2 3d0   0.62398     2 3d2+  0.29615     3 1s   -0.33897     4 1s   -0.30737     5 1s    0.33355
                                    6 1s    0.33598
   31.1     0.00000     2.25240     1 1s   -0.56359     1 1s    0.67912     1 2px  -0.25810     1 2px   0.38042     1 3d2- -0.35982
                                    1 3d1+ -0.39122     1 3d2+  0.33879     2 1s   -0.40290     2 2px   0.25560     2 3d2- -0.25146
                                    2 3d1+ -0.36572     2 3d2+  0.43578
   32.1     0.00000     2.35089     1 2py   0.37331     1 3d0   0.54031     1 3d2- -0.34345     1 3d1- -0.37669     2 2py  -0.34809
                                    2 3d0   0.48981     2 3d2- -0.37712     2 3d1- -0.34713     3 1s   -0.28613     4 1s    0.41262
                                    5 1s    0.38773     6 1s   -0.26574
   33.1     0.00000     2.57803     1 1s   -0.28078     1 3d2- -0.50816     1 3d1- -0.50605     2 1s    0.27962     2 2py   0.37117
                                    2 3d2-  0.45334     2 3d1-  0.66891     3 1s   -0.48834     4 1s    0.31126     5 1s   -0.48990
                                    6 1s    0.47424
   34.1     0.00000     2.64149     1 2py  -0.34883     1 3d2- -0.39499     1 3d2+ -0.54200     1 3d1-  0.58906     2 2py   0.27436
                                    2 3d2- -0.48428     2 3d2+ -0.48731     2 3d1-  0.41103     4 1s   -0.42383     5 1s   -0.27113
   35.1     0.00000     2.71935     1 3d0  -0.39511     1 3d2- -0.48240     1 3d1+  0.51487     1 3d1- -0.25844     2 3d0  -0.41918
                                    2 3d2- -0.49892     2 3d1+  0.47990     2 3d1- -0.26615     3 1s   -0.47869     6 1s   -0.46880
   36.1     0.00000     2.95937     1 1s   -1.72032     1 2px  -0.43564     1 2px  -0.87569     1 2pz   0.44015     1 3d2-  0.33710
                                    1 3d1+  0.69891     1 3d2+ -0.64146     2 1s    1.72658     2 2px  -0.43716     2 2px  -0.87702
                                    2 2pz   0.44165     2 3d2- -0.35590     2 3d1+ -0.69591     2 3d2+  0.64466


 HOMO      8.1    -0.386021 =     -10.5042eV
 LUMO      9.1     0.063021 =       1.7149eV
 LUMO-HOMO         0.449042 =      12.2191eV


 **********************************************************************************************************************************
 DATASETS  * FILE   NREC   LENGTH (MB)   RECORD NAMES
              1      19       31.13       500      610      700      900      950      970     1000      129      960     1100   
                                          VAR    BASINP    GEOM    SYMINP    ZMAT    AOBASIS   BASIS     P2S    ABASIS      S 
                                         1400     1410     1200     1210     1080     1600     1650     1300     1700   
                                           T        V       H0       H01     AOSYM     SMH    MOLCAS    ERIS     OPER   

              2       4        2.86       700     1000      520     2100   
                                         GEOM     BASIS   MCVARS     RHF  

 PROGRAMS   *        TOTAL    HF-SCF       INT
 CPU TIMES  *         0.39      0.10      0.19
 REAL TIME  *         0.64 SEC
 DISK USED  *        36.24 MB
 **********************************************************************************************************************************


 PROGRAM * MULTI (Direct Multiconfiguration SCF)       Authors: P.J. Knowles, H.-J. Werner (1984)


 Number of closed-shell orbitals:   7 (   7 )
 Number of active  orbitals:        2 (   2 )
 Number of external orbitals:      27 (  27 )

 State symmetry 1

 Number of electrons:     2    Spin symmetry=Singlet   Space symmetry=1
 Number of states:        3
 Number of CSFs:          3   (4 determinants, 4 intermediate states)

 Molecular orbitals read from record     2100.2  Type=RHF/CANONICAL (state 1.1)

 Wavefunction dump at record             2140.2

 Convergence thresholds  0.10E-01 (gradient)  0.10E-05 (energy)  0.10E-02 (step length)

 Weight factors for state symmetry  1:    0.33333   0.33333   0.33333

 Number of orbital rotations:      257   (    14 Core/Active    189 Core/Virtual   0 Active/Active     54 Active/Virtual)
 Total number of variables:        269

 Micro-Iterations solved by the two-step solver

 ITER. MIC  NCI  NEG     ENERGY(VAR)     ENERGY(PROJ)   ENERGY CHANGE     GRAD(0)  GRAD(ORB)   GRAD(CI)     STEP       TIME

   1   12    6    0     -77.69097068     -77.71110187   -0.02013119    0.16630293 0.00162375 0.00000000  0.15D+00      0.16
   2    7    5    0     -77.71075793     -77.71079295   -0.00003502    0.00872114 0.00001532 0.00000000  0.61D-02      0.26
   3    7    5    0     -77.71079302     -77.71079302   -0.00000000    0.00002440 0.00000000 0.00000000  0.32D-04      0.36

 ** WVFN ****  CONVERGENCE REACHED, FINAL GRADIENT:  0.38D-09



 Results for state 1.1
 =====================

 !MCSCF STATE  1.1 Energy             -77.840892779322
 Nuclear energy                        32.34719417
 Kinetic energy                        77.79683973
 One electron energy                 -167.85458593
 Two electron energy                   57.66649898
 Virial ratio                           2.00056626

 !MCSCF STATE  1.1 Dipole moment        0.03510618     0.00895710    -0.04867278
 Dipole moment /Debye                   0.08922518     0.02276519    -0.12370576

 Results for state 2.1
 =====================

 !MCSCF STATE  2.1 Energy             -77.738534389896
 Nuclear energy                        32.34719417
 Kinetic energy                        77.87472177
 One electron energy                 -167.55842090
 Two electron energy                   57.47269234
 Virial ratio                           1.99825120

 !MCSCF STATE  2.1 Dipole moment        0.00478647    -0.04645795    -0.01828842
 Dipole moment /Debye                   0.01216519    -0.11807659    -0.04648149

 Results for state 3.1
 =====================

 !MCSCF STATE  3.1 Energy             -77.552951885038
 Nuclear energy                        32.34719417
 Kinetic energy                        77.93879443
 One electron energy                 -167.31022675
 Two electron energy                   57.41008070
 Virial ratio                           1.99504942

 !MCSCF STATE  3.1 Dipole moment       -0.01741543    -0.08592966     0.01215667
 Dipole moment /Debye                  -0.04426272    -0.21839709     0.03089714

 State-averaged charge density matrix saved on record  2140.2 (density set 1)

 !MCSCF expec         <1.1|DMX|1.1>     0.035106183988 au =     0.089225175100 Debye
 !MCSCF trans         <2.1|DMX|1.1>     0.016342718252 au =     0.041536325854 Debye
 !MCSCF expec         <2.1|DMX|2.1>     0.004786468309 au =     0.012165192126 Debye
 !MCSCF trans         <3.1|DMX|1.1>     0.003858091166 au =     0.009805647345 Debye
 !MCSCF trans         <3.1|DMX|2.1>     0.020031117684 au =     0.050910688083 Debye
 !MCSCF expec         <3.1|DMX|3.1>    -0.017415432589 au =    -0.044262715159 Debye

 !MCSCF expec         <1.1|DMY|1.1>     0.008957102894 au =     0.022765193574 Debye
 !MCSCF trans         <2.1|DMY|1.1>     0.032257542968 au =     0.081985126056 Debye
 !MCSCF expec         <2.1|DMY|2.1>    -0.046457948977 au =    -0.118076593960 Debye
 !MCSCF trans         <3.1|DMY|1.1>     0.007183997047 au =     0.018258703215 Debye
 !MCSCF trans         <3.1|DMY|2.1>     0.039195027859 au =     0.099617298906 Debye
 !MCSCF expec         <3.1|DMY|3.1>    -0.085929655938 au =    -0.218397094938 Debye

 !MCSCF expec         <1.1|DMZ|1.1>    -0.048672776606 au =    -0.123705755566 Debye
 !MCSCF trans         <2.1|DMZ|1.1>     0.001311332326 au =     0.003332856014 Debye
 !MCSCF expec         <2.1|DMZ|2.1>    -0.018288421721 au =    -0.046481486879 Debye
 !MCSCF trans         <3.1|DMZ|1.1>    -0.002884133293 au =    -0.007330255494 Debye
 !MCSCF trans         <3.1|DMZ|2.1>    -0.000931423393 au =    -0.002367287068 Debye
 !MCSCF expec         <3.1|DMZ|3.1>     0.012156665908 au =     0.030897138937 Debye


 NATURAL ORBITALS (state averaged)
 =================================

  Orbital  Occupation    Energy     Coefficients
    1.1     2.00000   -11.25629     1 1s    0.98994
    2.1     2.00000   -11.25296     2 1s    0.98994
    3.1     2.00000    -1.04998     1 1s    0.27886     2 1s    0.27680
    4.1     2.00000    -0.78442     1 1s   -0.31753     2 1s    0.31995
    5.1     2.00000    -0.62458     1 2py   0.30157     2 2py   0.29875
    6.1     2.00000    -0.55954     1 2px   0.26813     2 2px  -0.25092     2 2py   0.25455
    7.1     2.00000    -0.41944     1 2pz   0.32644     1 2pz   0.27858     2 2pz   0.32319     2 2pz   0.28236
    8.1     1.00000    -0.08693     1 1s   -0.26791     1 2pz  -0.40366     1 2pz  -0.42386     2 1s   -0.26785     2 2pz   0.40445
                                    2 2pz   0.43460
    9.1     1.00000    -0.22997     1 2px   0.31167     2 2px  -0.30406     4 1s   -0.30598     5 1s   -0.28505
   10.1    -0.00000     0.21883     1 1s   -1.05565     1 2px   0.46104     1 2py   0.45621     1 2pz   0.37832     2 1s   -1.14123
                                    2 2px  -0.48621     2 2py  -0.29830     2 2pz  -0.36249     3 1s    0.48548     4 1s    1.14226
                                    5 1s    1.04129     6 1s    0.58936
   11.1    -0.00000     0.28095     1 1s   -1.71300     1 2py  -0.26197     1 2pz   0.53269     2 1s    1.59905     2 2py  -0.30894
                                    2 2pz   0.42559     3 1s    1.49173     6 1s   -1.37330
   12.1    -0.00000     0.31423     1 1s   -1.13023     1 2px   0.40192     1 2py  -0.54504     1 2pz   0.51369     2 1s   -0.28309
                                    2 2py   0.28838     2 2py   1.31391     3 1s    1.30107     4 1s    0.37633     5 1s   -1.10556
                                    6 1s    1.51489
   13.1    -0.00000     0.32018     1 1s   -0.55922     1 2py   0.29094     1 2py   1.13400     2 1s    1.33243     2 2px   0.38802
                                    2 2py   0.35894     2 2pz   0.51342     3 1s   -0.83539     4 1s    1.65690     5 1s   -1.41258
                                    6 1s   -0.57737
   14.1    -0.00000     0.43010     1 1s    1.90754     1 2px   1.79778     1 2py  -0.50297     1 2pz  -0.72278     2 1s   -1.89103
                                    2 2px   1.79277     2 2py  -0.54692     2 2pz  -0.74551     3 1s    0.62013     6 1s   -0.62345
   15.1    -0.00000     0.70007     1 2px  -0.54245     1 2px   0.89219     2 2px   0.52841     2 2px  -0.92347     4 1s    0.25340
                                    4 1s   -0.53852     5 1s   -0.42940
   16.1    -0.00000     0.75682     1 1s   -0.37174     1 2py  -0.42718     1 2px  -0.72865     1 2py   0.90194     2 1s    0.45854
                                    2 2py  -0.30925     2 2px  -0.59171     2 2py   0.70775     3 1s   -0.49949     4 1s    0.28564
                                    6 1s    0.45676
   17.1    -0.00000     0.78763     1 2py   0.52452     1 2pz   0.41694     1 2py  -1.14640     1 2pz  -0.49017     2 1s   -0.33543
                                    2 2py  -0.55464     2 2py   1.18555     4 1s   -0.31731
   18.1    -0.00000     0.80099     1 1s   -0.35137     1 2pz  -0.63683     1 2pz   0.66097     2 1s    0.30346     2 2pz  -0.78068
                                    2 2py   0.44307     2 2pz   0.82650
   19.1    -0.00000     0.86244     1 1s   -0.32222     1 2px  -0.26074     1 2pz  -0.67348     1 2px   0.52265     1 2py  -0.51998
                                    1 2pz   1.02040     2 1s   -0.30011     2 2pz   0.65358     2 2px  -0.45974     2 2py   0.54073
                                    2 2pz  -1.01039     3 1s    0.27564     6 1s    0.26939
   20.1    -0.00000     0.98026     1 2px  -0.70614     1 2py  -0.37060     1 2px   1.00086     1 2py   0.73107     2 2px  -0.71843
                                    2 2py  -0.38385     2 2px   1.15709     2 2py   0.84037     4 1s    1.02851     5 1s   -0.98591
   21.1    -0.00000     1.08659     1 1s   -0.57970     1 1s    0.86277     1 2py   0.51974     1 2px  -0.44253     1 2py  -0.50697
                                    2 1s   -0.65758     2 1s    1.37413     2 2px  -0.29711     2 2py  -0.31932     2 2py   0.39123
                                    4 1s    0.82100     4 1s   -1.33239     5 1s    0.45665     5 1s   -0.93796
   22.1    -0.00000     1.12198     1 1s   -0.30354     1 2px   0.32643     1 2py  -0.49758     1 2px  -0.35012     1 2py   0.71286
                                    2 1s    0.39289     2 2py  -0.69510     2 2py   0.97419     3 1s   -0.65283     4 1s   -0.47212
                                    4 1s    0.88125     5 1s    0.76688     5 1s   -1.22397     6 1s    0.77425
   23.1    -0.00000     1.15819     1 1s    0.26788     1 2px  -0.34640     1 2px   1.01842     1 2py  -0.45748     2 1s   -0.40455
                                    2 2px  -0.40744     2 2px   1.07374     2 2py  -0.50482     3 1s   -0.60432     3 1s    1.15002
                                    4 1s   -0.38379     4 1s    0.35672     5 1s    0.54593     5 1s   -0.58544     6 1s    0.56708
                                    6 1s   -1.17898
   24.1    -0.00000     1.19320     1 1s   -0.63368     1 1s    1.06405     1 2px   0.28268     1 2py  -0.32053     1 2py   0.28995
                                    2 1s   -0.51407     2 1s    0.71107     2 2px  -0.28439     2 2py   0.31935     2 2px   0.32003
                                    2 2py  -0.30742     3 1s    0.77987     3 1s   -1.07377     6 1s    0.78051     6 1s   -1.02393
   25.1    -0.00000     1.24668     1 1s   -1.51820     1 1s    3.18088     1 2px  -0.33455     1 2py   0.38254     1 2pz  -1.23294
                                    2 1s   -0.91158     2 1s    1.18307     2 2px   0.73453     2 2py  -0.72096     2 2pz   0.70090
                                    3 1s   -0.38054     3 1s   -1.08031     4 1s   -0.46224     4 1s   -0.52661     5 1s   -0.25545
                                    5 1s   -0.31151     6 1s   -0.40869     6 1s   -0.77140
   26.1    -0.00000     1.28431     1 1s    1.33010     1 1s   -4.56508     1 2px  -1.38881     1 2py   0.80003     1 2pz   0.97235
                                    2 1s   -1.81105     2 1s    5.42680     2 2px  -1.09335     2 2py   0.60855     2 2pz   1.37641
                                    4 1s    0.58947     5 1s   -0.38352     5 1s   -0.63677     6 1s   -0.68415
   27.1    -0.00000     1.69284     1 1s    0.59099     1 3d0   0.38560     1 3d2- -0.32062     1 3d2+ -0.28891     2 1s   -0.54011
                                    2 3d0  -0.29554     2 3d2-  0.27076     2 3d2+  0.36758
   28.1    -0.00000     1.91877     1 1s    0.33077     1 1s   -0.79423     1 2pz   0.39291     1 3d0   0.34655     1 3d1+  0.34276
                                    1 3d2+  0.37538     1 3d1-  0.33880     2 1s    0.28176     2 1s   -0.50881     2 2py   0.27605
                                    2 2pz  -0.29244     2 3d0   0.34850     2 3d1+  0.32817     2 3d2+  0.32504     2 3d1-  0.30544
                                    3 1s    0.26136     6 1s    0.29342
   29.1    -0.00000     1.93777     1 1s   -0.32899     1 1s    1.39524     1 2px   0.30930     1 2pz  -0.37895     1 3d2- -0.28369
                                    1 3d1+  0.40194     1 3d1-  0.40118     2 1s    0.27869     2 1s   -1.30306     2 2px   0.30751
                                    2 2pz  -0.32290     2 3d2-  0.32782     2 3d1+ -0.38868     2 3d1- -0.36783     3 1s   -0.34128
                                    6 1s    0.32004
   30.1    -0.00000     2.17681     1 1s    1.45032     1 2px   0.34208     1 2pz  -0.37016     1 3d0  -0.49731     1 3d2+ -0.40489
                                    2 1s    0.44943     2 1s   -1.68940     2 2px   0.37370     2 2py  -0.31230     2 2pz  -0.46491
                                    2 3d0   0.62743     2 3d2+  0.29913     3 1s   -0.33274     4 1s   -0.30449     5 1s    0.32507
                                    6 1s    0.33908
   31.1    -0.00000     2.24784     1 1s   -0.55962     1 1s    0.69612     1 2px  -0.26341     1 2px   0.37584     1 3d2- -0.37265
                                    1 3d1+ -0.39797     1 3d2+  0.33992     2 1s   -0.39395     2 2px   0.26200     2 3d2- -0.26650
                                    2 3d1+ -0.37323     2 3d2+  0.43150
   32.1    -0.00000     2.34505     1 2py   0.39111     1 3d0   0.54000     1 3d2- -0.34019     1 3d1- -0.39173     2 2py  -0.36178
                                    2 3d0   0.49015     2 3d2- -0.36798     2 3d1- -0.35866     3 1s   -0.30258     4 1s    0.40302
                                    5 1s    0.37346     6 1s   -0.27612
   33.1    -0.00000     2.57284     1 1s   -0.26693     1 3d2- -0.51433     1 3d1- -0.50155     2 1s    0.26818     2 2py   0.37569
                                    2 3d2-  0.45068     2 3d1-  0.67457     3 1s   -0.49252     4 1s    0.30008     5 1s   -0.48208
                                    6 1s    0.47497
   34.1    -0.00000     2.63338     1 2py  -0.35439     1 3d2- -0.39505     1 3d2+ -0.53723     1 3d1-  0.59227     2 2py   0.27794
                                    2 3d2- -0.49632     2 3d2+ -0.48183     2 3d1-  0.40949     4 1s   -0.41400     5 1s   -0.26137
   35.1    -0.00000     2.72442     1 3d0  -0.40324     1 3d2- -0.46804     1 3d1+  0.51701     1 3d1- -0.25511     2 3d0  -0.42758
                                    2 3d2- -0.49097     2 3d1+  0.48687     2 3d1- -0.26993     3 1s   -0.47279     6 1s   -0.47027
   36.1    -0.00000     2.95533     1 1s   -1.74930     1 2px  -0.42956     1 2px  -0.88778     1 2py   0.25283     1 2pz   0.44768
                                    1 3d2-  0.33506     1 3d1+  0.70092     1 3d2+ -0.63672     2 1s    1.75619     2 2px  -0.43073
                                    2 2px  -0.88851     2 2pz   0.44955     2 3d2- -0.35377     2 3d1+ -0.69955     2 3d2+  0.64389


 Natural orbital dump (state averaged) at molpro section  2140.2    (Orbital set 2)



 **********************************************************************************************************************************
 DATASETS  * FILE   NREC   LENGTH (MB)   RECORD NAMES
              1      20       31.86       500      610      700      900      950      970     1000      129      960     1100   
                                          VAR    BASINP    GEOM    SYMINP    ZMAT    AOBASIS   BASIS     P2S    ABASIS      S 
                                         1400     1410     1200     1210     1080     1600     1650     1300     1700     1380   
                                           T        V       H0       H01     AOSYM     SMH    MOLCAS    ERIS     OPER     JKOP   

              2       5        5.42       700     1000      520     2100     2140   
                                         GEOM     BASIS   MCVARS     RHF     MCSCF   

 PROGRAMS   *        TOTAL     MULTI    HF-SCF       INT
 CPU TIMES  *         0.79      0.40      0.10      0.19
 REAL TIME  *         1.12 SEC
 DISK USED  *        39.04 MB
 **********************************************************************************************************************************
 Molecular orbitals read from record     2140.2  Type=MCSCF/NATURAL (state averaged)
 Occupation numbers read from record     2140.2  Type=MCSCF/NATURAL (state averaged)
 Orbital energies read from record       2140.2  Type=MCSCF/NATURAL (state averaged)
 Redundancy group numbers read from rec  2140.2  Type=MCSCF/NATURAL (state averaged)

 MULTI/6-31G* energy=    -77.552951885038

           MULTI          HF-SCF
    -77.55295189    -77.84726947
 **********************************************************************************************************************************
 Molpro calculation terminated
