
 Primary working directories    : /scratch.local/johan406.molpro_temp/molpro.lnZv7rSr3l
 Secondary working directories  : /scratch.local/johan406.molpro_temp/molpro.lnZv7rSr3l
 Wavefunction directory         : /home/goodpast/johan406/wfu/
 Main file repository           : /scratch.local/johan406.molpro_temp/molpro.lnZv7rSr3l/

 id        : roweumn

 Nodes     nprocs
 acn09        1

 Using customized tuning parameters: mindgm=1; mindgv=20; mindgc=4; mindgr=1; noblas=0; minvec=7
 default implementation of scratch files=df  


 Variables initialized (934), CPU time= 0.01 sec
                                                                                 !leave this line blank
 
 gprint, orbitals=30
 memory, 125., m
 symmetry, nosym
 nelect=16
 basis=6-31g*
 
 geometry={
 C -0.6413 0.1525 0.272
 C 0.6502 -0.2024 -0.3324
 H -1.3589 0.9497 0.0078
 H -0.9207 -0.8958 -0.0871
 H 0.9297 0.8459 0.0267
 H 1.3678 -0.9996 -0.0683
 }
 
 hf
 {multi,
 closed 7
 occ 9
 wf,spin=0;STATE,3
 }
 
 Commands  initialized (763), CPU time= 0.01 sec, 617 directives.
 Default parameters read. Elapsed time= 0.07 sec

 Checking input...
 Passed
1


                                         ***  PROGRAM SYSTEM MOLPRO  ***
                                       Copyright, TTI GmbH Stuttgart, 2015
                                    Version 2019.2 linked Oct 25 2019 22:50:27


 **********************************************************************************************************************************
 LABEL *                                                                                 
  64 bit serial version                                                                  DATE: 07-Feb-23          TIME: 15:15:07  
 **********************************************************************************************************************************

 SHA1:             8dbd9ae1082e4ce945b0f27595c9eb2d4aa09004
 **********************************************************************************************************************************


 Variable memory set to  125000000 words,  buffer space 

 SETTING NELECT         =        16.00000000                                  
 SETTING BASIS          =    6-31G*
 ZSYMEL=NOSYM


Geometry recognized as XYZ



 Recomputing integrals since basis changed


 Using spherical harmonics

 Library entry C      S 6-31G                selected for orbital group  1
 Library entry C      P 6-31G                selected for orbital group  1
 Library entry C      D 6-31G*               selected for orbital group  1
 Library entry H      S 6-31G                selected for orbital group  2


 PROGRAM * SEWARD (Integral evaluation for generally contracted gaussian basis sets)     Author: Roland Lindh, 1990

 Geometry written to block  1 of record 700


 Point group  C1  



 ATOMIC COORDINATES

 NR  ATOM    CHARGE       X              Y              Z

   1  C       6.00   -1.211881364    0.288183234    0.514005506
   2  C       6.00    1.228699926   -0.382480568   -0.628144964
   3  H       1.00   -2.567948831    1.794672900    0.014739864
   4  H       1.00   -1.739870843   -1.692816662   -0.164595145
   5  H       1.00    1.756878378    1.598519329    0.050455688
   6  H       1.00    2.584767393   -1.888970234   -0.129068294

 Bond lengths in Bohr (Angstrom)

 1-2  2.776820963  1-3  2.087509586  1-4  2.159544471  2-5  2.159590681  2-6  2.087464398
     ( 1.469430373)     ( 1.104662500)     ( 1.142781720)     ( 1.142806173)     ( 1.104638588)

 Bond angles

  1-2-5   82.19298099   1-2-6  130.31028785   2-1-3  130.30643806   2-1-4   82.18836503

  3-1-4  115.34225811   5-2-6  115.34046452

 NUCLEAR CHARGE:                   16
 NUMBER OF PRIMITIVE AOS:          72
 NUMBER OF SYMMETRY AOS:           70
 NUMBER OF CONTRACTIONS:           36   (   36A   )
 NUMBER OF CORE ORBITALS:           2   (    2A   )
 NUMBER OF VALENCE ORBITALS:       12   (   12A   )


 NUCLEAR REPULSION ENERGY   32.02836753

 Eigenvalues of metric

         1 0.101E-01 0.282E-01 0.572E-01 0.639E-01 0.692E-01 0.223E+00 0.245E+00 0.281E+00


 Contracted 2-electron integrals neglected if value below      1.0D-11
 AO integral compression algorithm  1   Integral accuracy      1.0D-11

     1.573 MB (compressed) written to integral file ( 58.5%)


 NUMBER OF SORTED TWO-ELECTRON INTEGRALS:     222111.     BUFFER LENGTH:  32768
 NUMBER OF SEGMENTS:   1  SEGMENT LENGTH:     222111      RECORD LENGTH: 524288

 Memory used in sort:       0.78 MW

 SORT1 READ      284735. AND WROTE      212528. INTEGRALS IN      1 RECORDS. CPU TIME:     0.01 SEC, REAL TIME:     0.01 SEC
 SORT2 READ      212528. AND WROTE      222111. INTEGRALS IN      6 RECORDS. CPU TIME:     0.02 SEC, REAL TIME:     0.02 SEC

 FILE SIZES:   FILE 1:    31.7 MBYTE,  FILE 4:     4.2 MBYTE,   TOTAL:     35.9 MBYTE

 OPERATOR DM      FOR CENTER  0  COORDINATES:    0.000000    0.000000    0.000000


 **********************************************************************************************************************************
 DATASETS  * FILE   NREC   LENGTH (MB)   RECORD NAMES
              1      19       31.12       500      610      700      900      950      970     1000      129      960     1100   
                                          VAR    BASINP    GEOM    SYMINP    ZMAT    AOBASIS   BASIS     P2S    ABASIS      S 
                                         1400     1410     1200     1210     1080     1600     1650     1300     1700   
                                           T        V       H0       H01     AOSYM     SMH    MOLCAS    ERIS     OPER   

 PROGRAMS   *        TOTAL       INT
 CPU TIMES  *         0.30      0.20
 REAL TIME  *         0.54 SEC
 DISK USED  *        36.24 MB
 **********************************************************************************************************************************


 PROGRAM * RHF-SCF (CLOSED SHELL)       Authors: W. Meyer, H.-J. Werner


 NUMBER OF ELECTRONS:       8+    8-    SPACE SYMMETRY=1    SPIN SYMMETRY: Singlet 
 CONVERGENCE THRESHOLDS:    1.00E-05 (Density)    1.00E-07 (Energy)
 MAX. NUMBER OF ITERATIONS:       60
 INTERPOLATION TYPE:            DIIS
 INTERPOLATION STEPS:              2 (START)      1 (STEP)
 LEVEL SHIFTS:                  0.00 (CLOSED)  0.00 (OPEN) 



 Orbital guess generated from atomic densities. Full valence occupancy:    8

 Molecular orbital dump at record        2100.2

 Initial occupancy:   8

 ITERATION    DDIFF          GRAD             ENERGY        2-EL.EN.            DIPOLE MOMENTS         DIIS   ORB.
    1      0.000D+00      0.000D+00       -77.84051394    115.323770    0.00004   -0.00002   -0.00006    0    start
    2      0.000D+00      0.682D-02       -77.85748494    114.319510    0.00002   -0.00001   -0.00003    1    diag
    3      0.732D-02      0.221D-02       -77.85946408    114.730220    0.00004   -0.00003   -0.00006    2    diag
    4      0.293D-02      0.805D-03       -77.85990005    114.605721    0.00002   -0.00001   -0.00004    3    diag
    5      0.161D-02      0.288D-03       -77.86002758    114.611642    0.00005   -0.00003   -0.00006    4    diag
    6      0.103D-02      0.116D-03       -77.86006056    114.612139   -0.00000    0.00000   -0.00000    5    diag
    7      0.520D-03      0.384D-04       -77.86006419    114.613265    0.00010   -0.00007   -0.00013    6    diag
    8      0.185D-03      0.103D-04       -77.86006439    114.613546   -0.00006    0.00005    0.00007    7    diag
    9      0.455D-04      0.355D-05       -77.86006440    114.613546    0.00008   -0.00005   -0.00010    8    diag
   10      0.612D-05      0.166D-05       -77.86006440    114.613536   -0.00001    0.00001    0.00000    0    orth

 Final occupancy:   8

 !RHF STATE  1.1 Energy               -77.860064398224
 Nuclear energy                        32.02836753
 One-electron energy                 -167.19520004
 Two-electron energy                   57.30676811
 Virial quotient                       -1.00288255
 !RHF STATE  1.1 Dipole moment         -0.00000691     0.00000660     0.00000194
 Dipole moment /Debye                  -0.00001756     0.00001677     0.00000492

 ELECTRON ORBITALS
 =================

  Orbital  Occupation    Energy     Coefficients
    1.1     2.00000   -11.26023     1 1s    0.71442     2 1s    0.69428
    2.1     2.00000   -11.25941     1 1s    0.69437     2 1s   -0.71451
    3.1     2.00000    -1.02503     1 1s    0.28523     2 1s    0.28523
    4.1     2.00000    -0.77963     1 1s   -0.28294     2 1s    0.28295
    5.1     2.00000    -0.62655     1 2py   0.30678     2 2py   0.30674
    6.1     2.00000    -0.58861     1 2px   0.28685     2 2px  -0.28683
    7.1     2.00000    -0.37758     1 2px   0.28105     2 2px  -0.28115     4 1s   -0.28306     5 1s   -0.28307
    8.1     2.00000    -0.37378     1 2pz   0.32175     1 2pz   0.29737     2 2pz   0.32181     2 2pz   0.29741
    9.1     0.00000     0.09145     1 1s    0.39292     1 2pz   0.33805     1 2pz   0.50733     2 1s    0.39288     2 2pz  -0.33805
                                    2 2pz  -0.50735
   10.1     0.00000     0.23346     1 1s   -1.06168     1 2px   0.44333     1 2py   0.40314     1 2pz   0.33331     2 1s   -1.06152
                                    2 2px  -0.44337     2 2py  -0.40313     2 2pz  -0.33325     3 1s    0.49964     4 1s    1.09296
                                    5 1s    1.09295     6 1s    0.49950
   11.1     0.00000     0.25832     1 1s   -1.30207     1 2py  -0.39616     1 2pz   0.27059     2 1s    1.30224     2 2py  -0.39607
                                    2 2pz   0.27051     3 1s    1.32259     6 1s   -1.32259
   12.1     0.00000     0.32399     1 1s   -0.81174     1 2px   0.44437     1 2py  -1.04368     1 2pz   0.35746     2 1s   -0.81160
                                    2 2px  -0.44429     2 2py   1.04393     2 2pz  -0.35737     3 1s    1.63756     4 1s   -0.42992
                                    5 1s   -0.43037     6 1s    1.63768
   13.1     0.00000     0.34057     1 1s    1.05969     1 2px  -0.25809     1 2py  -0.80501     1 2pz  -0.26617     2 1s   -1.05982
                                    2 2px  -0.25828     2 2py  -0.80475     2 2pz  -0.26627     4 1s   -1.72147     5 1s    1.72126
   14.1     0.00000     0.42962     1 1s    2.01177     1 2px   1.92833     1 2py  -0.73435     1 2pz  -0.78305     2 1s   -2.01165
                                    2 2px   1.92834     2 2py  -0.73445     2 2pz  -0.78307     3 1s    0.86656     4 1s   -0.25753
                                    5 1s    0.25753     6 1s   -0.86675
   15.1     0.00000     0.71853     1 2px  -0.50824     1 2py  -0.25310     1 2px   0.86490     2 2px   0.50817     2 2py   0.25309
                                    2 2px  -0.86494     3 1s    0.26865     4 1s    0.27998     4 1s   -0.46907     5 1s    0.27998
                                    5 1s   -0.46906     6 1s    0.26874
   16.1     0.00000     0.74894     1 1s    0.48861     1 2px  -0.31365     1 2py   0.32183     1 2px   0.95734     1 2py  -0.77049
                                    2 1s   -0.48850     2 2px  -0.31366     2 2py   0.32175     2 2px   0.95737     2 2py  -0.77035
                                    3 1s    0.52279     6 1s   -0.52280
   17.1     0.00000     0.79622     1 2pz   0.74328     1 2pz  -0.67249     2 2pz   0.74306     2 2pz  -0.67220
   18.1     0.00000     0.82418     1 2py  -0.42844     1 2pz  -0.58104     1 2py   1.00574     1 2pz   0.69972     2 2py   0.42842
                                    2 2pz   0.58135     2 2py  -1.00573     2 2pz  -0.70001     3 1s   -0.36175     6 1s   -0.36172
   19.1     0.00000     0.90064     1 1s    0.55211     1 1s   -0.30723     1 2px   0.35460     1 2py  -0.37605     1 2pz   0.46765
                                    1 2px  -0.61600     1 2py   1.03663     1 2pz  -0.59056     2 1s    0.55207     2 1s   -0.30703
                                    2 2px  -0.35462     2 2py   0.37603     2 2pz  -0.46762     2 2px   0.61600     2 2py  -1.03649
                                    2 2pz   0.59057     3 1s   -0.53266     4 1s    0.33664     5 1s    0.33652     6 1s   -0.53262
   20.1     0.00000     0.96435     1 2px  -0.59776     1 2py  -0.48200     1 2px   0.72481     1 2py   1.09595     2 2px  -0.59775
                                    2 2py  -0.48209     2 2px   0.72491     2 2py   1.09613     3 1s   -0.29609     4 1s    1.04941
                                    5 1s   -1.04939     6 1s    0.29614
   21.1     0.00000     1.08943     1 1s    0.35885     1 1s   -0.86565     1 2py   0.33117     1 2px   0.37435     1 2py  -0.89528
                                    1 2pz   0.59265     2 1s    0.35896     2 1s   -0.86584     2 2py  -0.33136     2 2px  -0.37439
                                    2 2py   0.89562     2 2pz  -0.59260     3 1s    0.57283     3 1s    0.43374     4 1s    0.50494
                                    4 1s   -0.28419     5 1s    0.50514     5 1s   -0.28458     6 1s    0.57272     6 1s    0.43410
   22.1     0.00000     1.13202     1 1s    1.32068     1 2px  -0.46142     1 2px   1.56743     1 2py  -0.67399     1 2pz  -0.36017
                                    2 1s   -1.32521     2 2px  -0.46080     2 2px   1.56592     2 2py  -0.67368     2 2pz  -0.36136
                                    3 1s   -0.51087     3 1s    1.07421     4 1s   -0.54273     4 1s    0.43511     5 1s    0.54170
                                    5 1s   -0.43258     6 1s    0.51136     6 1s   -1.07289
   23.1     0.00000     1.14060     1 1s   -0.98131     1 1s    1.97732     1 2px   0.28830     1 2px  -0.69416     1 2pz  -0.50584
                                    2 1s   -0.98146     2 1s    1.97529     2 2px  -0.28930     2 2px   0.69746     2 2pz   0.50516
                                    3 1s   -0.27410     3 1s   -0.56882     4 1s    0.50022     4 1s   -1.12452     5 1s    0.50143
                                    5 1s   -1.12558     6 1s   -0.27293     6 1s   -0.57135
   24.1     0.00000     1.17088     1 1s   -0.48715     1 2px  -0.28213     1 2py   0.55480     1 2py  -0.61196     2 1s    0.48556
                                    2 2px  -0.28198     2 2py   0.55429     2 2py  -0.61121     3 1s   -0.32785     3 1s    0.72738
                                    4 1s    0.65179     4 1s   -0.88685     5 1s   -0.65140     5 1s    0.88669     6 1s    0.32742
                                    6 1s   -0.72602
   25.1     0.00000     1.18860     1 1s   -0.86729     1 1s    1.34150     1 2py  -0.39323     1 2px  -0.32683     1 2py   0.44720
                                    1 2pz  -0.27405     2 1s   -0.86674     2 1s    1.33997     2 2py   0.39386     2 2px   0.32756
                                    2 2py  -0.44824     2 2pz   0.27359     3 1s    0.62416     3 1s   -1.20411     6 1s    0.62454
                                    6 1s   -1.20482
   26.1     0.00000     1.24717     1 1s   -1.60583     1 1s    4.64059     1 2px   1.09909     1 2py  -0.87245     1 2pz  -0.94146
                                    2 1s    1.60594     2 1s   -4.64058     2 2px   1.09910     2 2py  -0.87247     2 2pz  -0.94140
                                    3 1s   -0.42320     4 1s   -0.88337     5 1s    0.88309     6 1s    0.42348
   27.1     0.00000     1.70200     1 1s    0.60142     1 3d0   0.34960     1 3d2- -0.29513     1 3d2+ -0.31234     2 1s   -0.60145
                                    2 3d0  -0.34955     2 3d2-  0.29509     2 3d2+  0.31238
   28.1     0.00000     1.94564     1 1s    0.51671     1 3d2- -0.30907     1 3d1+  0.43267     1 3d1-  0.39070     2 1s   -0.51931
                                    2 3d2-  0.30876     2 3d1+ -0.43115     2 3d1- -0.38870     3 1s   -0.31418     6 1s    0.31530
   29.1     0.00000     1.94721     1 1s   -0.55344     1 2px   0.27070     1 2py  -0.31754     1 3d0   0.28896     1 3d1+  0.32125
                                    1 3d2+  0.33932     1 3d1-  0.41869     2 1s   -0.55064     2 2px  -0.27105     2 2py   0.31783
                                    2 3d0   0.28866     2 3d1+  0.32330     2 3d2+  0.33994     2 3d1-  0.42053     3 1s    0.29868
                                    6 1s    0.29884
   30.1     0.00000     2.21918     1 1s    0.54555     1 1s   -0.38755     1 2px   0.29914     1 2px  -0.33212     1 2py   0.29890
                                    1 3d0   0.31306     1 3d1+  0.39582     1 3d2+ -0.34061     2 1s    0.54543     2 1s   -0.38703
                                    2 2px  -0.29912     2 2px   0.33212     2 2py  -0.29884     2 3d0   0.31269     2 3d1+  0.39576
                                    2 3d2+ -0.34090
   31.1     0.00000     2.24058     1 1s    0.84865     1 3d0  -0.53787     1 3d2+ -0.39066     2 1s   -0.84894     2 3d0   0.53817
                                    2 3d2+  0.39042     3 1s   -0.43409     4 1s   -0.27145     5 1s    0.27153     6 1s    0.43404
   32.1     0.00000     2.33123     1 2py   0.35973     1 3d0   0.46454     1 3d2- -0.43569     1 3d1+ -0.26216     1 3d1- -0.26054
                                    2 2py  -0.35971     2 3d0   0.46446     2 3d2- -0.43577     2 3d1+ -0.26219     2 3d1- -0.26053
                                    4 1s    0.45926     5 1s    0.45919
   33.1     0.00000     2.48287     1 1s    1.17574     1 2px   0.58424     1 2py  -0.54163     1 2pz  -0.31374     1 3d2-  0.40611
                                    1 3d1-  0.56825     2 1s   -1.17569     2 2px   0.58415     2 2py  -0.54168     2 2pz  -0.31378
                                    2 3d2- -0.40609     2 3d1- -0.56828     3 1s    0.33899     4 1s   -0.48831     5 1s    0.48837
                                    6 1s   -0.33896
   34.1     0.00000     2.63449     1 2py   0.38372     1 3d2-  0.25058     1 3d2+  0.57289     1 3d1- -0.50877     2 2py  -0.38366
                                    2 3d2-  0.25059     2 3d2+  0.57287     2 3d1- -0.50869     4 1s    0.40371     5 1s    0.40361
   35.1     0.00000     2.80339     1 3d0   0.41463     1 3d2-  0.63160     1 3d1+ -0.43502     2 3d0   0.41462     2 3d2-  0.63158
                                    2 3d1+ -0.43513     3 1s    0.51363     6 1s    0.51369
   36.1     0.00000     2.96099     1 1s    1.76973     1 2px   0.40386     1 2px   0.93815     1 2py  -0.28988     1 2pz  -0.42372
                                    1 3d2- -0.42541     1 3d1+ -0.62634     1 3d2+  0.65063     2 1s   -1.76976     2 2px   0.40385
                                    2 2px   0.93814     2 2py  -0.28988     2 2pz  -0.42373     2 3d2-  0.42554     2 3d1+  0.62628
                                    2 3d2+ -0.65061


 HOMO      8.1    -0.373782 =     -10.1711eV
 LUMO      9.1     0.091448 =       2.4884eV
 LUMO-HOMO         0.465230 =      12.6596eV


 **********************************************************************************************************************************
 DATASETS  * FILE   NREC   LENGTH (MB)   RECORD NAMES
              1      19       31.12       500      610      700      900      950      970     1000      129      960     1100   
                                          VAR    BASINP    GEOM    SYMINP    ZMAT    AOBASIS   BASIS     P2S    ABASIS      S 
                                         1400     1410     1200     1210     1080     1600     1650     1300     1700   
                                           T        V       H0       H01     AOSYM     SMH    MOLCAS    ERIS     OPER   

              2       4        2.86       700     1000      520     2100   
                                         GEOM     BASIS   MCVARS     RHF  

 PROGRAMS   *        TOTAL    HF-SCF       INT
 CPU TIMES  *         0.40      0.10      0.20
 REAL TIME  *         0.68 SEC
 DISK USED  *        36.24 MB
 **********************************************************************************************************************************


 PROGRAM * MULTI (Direct Multiconfiguration SCF)       Authors: P.J. Knowles, H.-J. Werner (1984)


 Number of closed-shell orbitals:   7 (   7 )
 Number of active  orbitals:        2 (   2 )
 Number of external orbitals:      27 (  27 )

 State symmetry 1

 Number of electrons:     2    Spin symmetry=Singlet   Space symmetry=1
 Number of states:        3
 Number of CSFs:          3   (4 determinants, 4 intermediate states)

 Molecular orbitals read from record     2100.2  Type=RHF/CANONICAL (state 1.1)

 Wavefunction dump at record             2140.2

 Convergence thresholds  0.10E-01 (gradient)  0.10E-05 (energy)  0.10E-02 (step length)

 Weight factors for state symmetry  1:    0.33333   0.33333   0.33333

 Number of orbital rotations:      257   (    14 Core/Active    189 Core/Virtual   0 Active/Active     54 Active/Virtual)
 Total number of variables:        269

 Micro-Iterations solved by the two-step solver

 ITER. MIC  NCI  NEG     ENERGY(VAR)     ENERGY(PROJ)   ENERGY CHANGE     GRAD(0)  GRAD(ORB)   GRAD(CI)     STEP       TIME

   1   10    6    1     -77.61487787     -77.64323587   -0.02835800    0.11322896 0.00072128 0.00000000  0.32D+00      0.27
   2    9    6    0     -77.69688390     -77.70789689   -0.01101299    0.12763213 0.00118737 0.00000000  0.12D+00      0.38
   3    8    5    0     -77.70814536     -77.70817650   -0.00003115    0.00691347 0.00002775 0.00000000  0.71D-02      0.48
   4    9    5    0     -77.70817658     -77.70817658   -0.00000000    0.00002558 0.00000000 0.00000000  0.32D-04      0.59

 ** WVFN ****  CONVERGENCE REACHED, FINAL GRADIENT:  0.50D-09



 Results for state 1.1
 =====================

 !MCSCF STATE  1.1 Energy             -77.853694122038
 Nuclear energy                        32.02836753
 Kinetic energy                        77.69176308
 One electron energy                 -167.26628115
 Two electron energy                   57.38421950
 Virial ratio                           2.00208428

 !MCSCF STATE  1.1 Dipole moment        0.00002349    -0.00001829    -0.00004768
 Dipole moment /Debye                   0.00005970    -0.00004648    -0.00012119

 Results for state 2.1
 =====================

 !MCSCF STATE  2.1 Energy             -77.734854513422
 Nuclear energy                        32.02836753
 Kinetic energy                        77.75231983
 One electron energy                 -166.97946034
 Two electron energy                   57.21623830
 Virial ratio                           1.99977537

 !MCSCF STATE  2.1 Dipole moment        0.00004569    -0.00003068    -0.00004485
 Dipole moment /Debye                   0.00011613    -0.00007796    -0.00011398

 Results for state 3.1
 =====================

 !MCSCF STATE  3.1 Energy             -77.535981096775
 Nuclear energy                        32.02836753
 Kinetic energy                        77.80561031
 One electron energy                 -166.71412794
 Two electron energy                   57.14977931
 Virial ratio                           1.99653458

 !MCSCF STATE  3.1 Dipole moment        0.00006336    -0.00003515    -0.00003539
 Dipole moment /Debye                   0.00016103    -0.00008934    -0.00008996

 State-averaged charge density matrix saved on record  2140.2 (density set 1)

 !MCSCF expec         <1.1|DMX|1.1>     0.000023489256 au =     0.000059699824 Debye
 !MCSCF trans         <2.1|DMX|1.1>     0.000017658394 au =     0.000044880220 Debye
 !MCSCF expec         <2.1|DMX|2.1>     0.000045693074 au =     0.000116132602 Debye
 !MCSCF trans         <3.1|DMX|1.1>    -0.000002349974 au =    -0.000005972647 Debye
 !MCSCF trans         <3.1|DMX|2.1>     0.000019962734 au =     0.000050736886 Debye
 !MCSCF expec         <3.1|DMX|3.1>     0.000063357570 au =     0.000161028334 Debye

 !MCSCF expec         <1.1|DMY|1.1>    -0.000018289196 au =    -0.000046483454 Debye
 !MCSCF trans         <2.1|DMY|1.1>    -0.000031317548 au =    -0.000079596054 Debye
 !MCSCF expec         <2.1|DMY|2.1>    -0.000030675798 au =    -0.000077964996 Debye
 !MCSCF trans         <3.1|DMY|1.1>     0.000001995382 au =     0.000005071422 Debye
 !MCSCF trans         <3.1|DMY|2.1>    -0.000034274844 au =    -0.000087112257 Debye
 !MCSCF expec         <3.1|DMY|3.1>    -0.000035153186 au =    -0.000089344635 Debye

 !MCSCF expec         <1.1|DMZ|1.1>    -0.000047683063 au =    -0.000121190318 Debye
 !MCSCF trans         <2.1|DMZ|1.1>    -0.000026465602 au =    -0.000067264444 Debye
 !MCSCF expec         <2.1|DMZ|2.1>    -0.000044845499 au =    -0.000113978423 Debye
 !MCSCF trans         <3.1|DMZ|1.1>     0.000000615442 au =     0.000001564195 Debye
 !MCSCF trans         <3.1|DMZ|2.1>    -0.000028407973 au =    -0.000072201137 Debye
 !MCSCF expec         <3.1|DMZ|3.1>    -0.000035393758 au =    -0.000089956068 Debye


 NATURAL ORBITALS (state averaged)
 =================================

  Orbital  Occupation    Energy     Coefficients
    1.1     2.00000   -11.25393     1 1s    0.70464     2 1s    0.70417
    2.1     2.00000   -11.25323     1 1s    0.70422     2 1s   -0.70469
    3.1     2.00000    -1.03604     1 1s    0.27992     2 1s    0.27992
    4.1     2.00000    -0.77636     1 1s   -0.31068     2 1s    0.31068
    5.1     2.00000    -0.62922     1 2py   0.29964     2 2py   0.29963
    6.1     2.00000    -0.58454     1 2px   0.25377     2 2px  -0.25376
    7.1     2.00000    -0.40291     1 2pz  -0.34004     1 2pz  -0.29210     2 2pz  -0.34004     2 2pz  -0.29209
    8.1     1.00000    -0.06040     1 2pz   0.41797     1 2pz   0.46086     2 2pz  -0.41798     2 2pz  -0.46087
    9.1     1.00000    -0.21868     1 2px   0.31019     2 2px  -0.31018     4 1s   -0.29391     5 1s   -0.29391
   10.1    -0.00000     0.22009     1 1s   -1.06739     1 2px   0.43860     1 2py   0.42505     1 2pz   0.27176     2 1s   -1.06731
                                    2 2px  -0.43866     2 2py  -0.42504     2 2pz  -0.27171     3 1s    0.46560     4 1s    1.10180
                                    5 1s    1.10182     6 1s    0.46555
   11.1    -0.00000     0.25921     1 1s   -1.35580     1 2py  -0.35870     1 2pz   0.27448     2 1s    1.35593     2 2py  -0.35869
                                    2 2pz   0.27441     3 1s    1.31880     6 1s   -1.31884
   12.1    -0.00000     0.32534     1 1s    1.14964     1 2py  -0.89227     1 2pz  -0.31145     2 1s   -1.14503     2 2py  -0.89757
                                    2 2pz  -0.30980     4 1s   -1.74818     5 1s    1.75002
   13.1    -0.00000     0.32622     1 1s   -0.87366     1 2px   0.44924     1 2py  -1.03677     1 2pz   0.32376     2 1s   -0.87958
                                    2 2px  -0.44973     2 2py   1.03220     2 2pz  -0.32530     3 1s    1.66163     4 1s   -0.38884
                                    5 1s   -0.37990     6 1s    1.66104
   14.1    -0.00000     0.43363     1 1s    1.85882     1 2px   1.93247     1 2py  -0.61496     1 2pz  -0.72640     2 1s   -1.85871
                                    2 2px   1.93250     2 2py  -0.61506     2 2pz  -0.72643     3 1s    0.85960     6 1s   -0.85979
   15.1    -0.00000     0.71299     1 2px  -0.49041     1 2px   0.84108     2 2px   0.49039     2 2px  -0.84120     3 1s    0.26513
                                    4 1s    0.32140     4 1s   -0.51690     5 1s    0.32139     5 1s   -0.51687     6 1s    0.26522
   16.1    -0.00000     0.75201     1 1s    0.55026     1 2px  -0.31480     1 2py   0.32018     1 2px   0.99264     1 2py  -0.78488
                                    2 1s   -0.55012     2 2px  -0.31479     2 2py   0.32014     2 2px   0.99264     2 2py  -0.78482
                                    3 1s    0.52249     6 1s   -0.52250
   17.1    -0.00000     0.79371     1 1s    0.35903     1 2pz   0.73765     1 2pz  -0.73645     2 1s   -0.35905     2 2pz   0.73760
                                    2 2pz  -0.73636
   18.1    -0.00000     0.82070     1 2py  -0.39980     1 2pz  -0.56818     1 2py   0.95067     1 2pz   0.78644     2 2py   0.39979
                                    2 2pz   0.56831     2 2py  -0.95064     2 2pz  -0.78654     3 1s   -0.29770     6 1s   -0.29770
   19.1    -0.00000     0.89780     1 1s    0.53032     1 1s   -0.26958     1 2px   0.36903     1 2py  -0.36944     1 2pz   0.43569
                                    1 2px  -0.64785     1 2py   1.04355     1 2pz  -0.60458     2 1s    0.53028     2 1s   -0.26945
                                    2 2px  -0.36904     2 2py   0.36943     2 2pz  -0.43561     2 2px   0.64785     2 2py  -1.04346
                                    2 2pz   0.60454     3 1s   -0.56891     4 1s    0.31741     5 1s    0.31733     6 1s   -0.56888
   20.1    -0.00000     0.96819     1 2px  -0.58500     1 2py  -0.47789     1 2px   0.59226     1 2py   1.12143     2 2px  -0.58500
                                    2 2py  -0.47797     2 2px   0.59237     2 2py   1.12158     3 1s   -0.34927     4 1s    0.98289
                                    5 1s   -0.98291     6 1s    0.34931
   21.1    -0.00000     1.07518     1 1s   -0.38292     1 2py   0.41844     1 2py  -0.87869     1 2pz   0.46483     2 1s   -0.38306
                                    2 2py  -0.41865     2 2py   0.87900     2 2pz  -0.46480     3 1s    0.44614     3 1s    0.34194
                                    4 1s    0.61288     4 1s   -0.56313     5 1s    0.61321     5 1s   -0.56370     6 1s    0.44609
                                    6 1s    0.34213
   22.1    -0.00000     1.11335     1 1s    1.15177     1 2px  -0.31273     1 2px   1.35224     1 2pz  -0.27719     2 1s   -1.15391
                                    2 2px  -0.31243     2 2px   1.35154     2 2pz  -0.27771     3 1s   -0.29836     3 1s    0.61558
                                    4 1s   -0.77403     4 1s    0.90611     5 1s    0.77347     5 1s   -0.90478     6 1s    0.29868
                                    6 1s   -0.61513
   23.1    -0.00000     1.12741     1 1s   -1.00789     1 1s    2.08315     1 2px  -0.76887     1 2py   0.43068     1 2pz  -0.60116
                                    2 1s   -1.00826     2 1s    2.08300     2 2px   0.77001     2 2py  -0.43072     2 2pz   0.60101
                                    3 1s   -0.44160     3 1s   -0.61806     4 1s    0.35903     4 1s   -1.00070     5 1s    0.35994
                                    5 1s   -1.00186     6 1s   -0.44130     6 1s   -0.61875
   24.1    -0.00000     1.15823     1 1s    0.67827     1 2px  -0.46889     1 2py   0.56734     1 2px   0.89575     1 2py  -0.93517
                                    2 1s   -0.67837     2 2px  -0.46893     2 2py   0.56712     2 2px   0.89574     2 2py  -0.93496
                                    3 1s   -0.51577     3 1s    1.09206     4 1s    0.31832     4 1s   -0.66109     5 1s   -0.31801
                                    5 1s    0.66075     6 1s    0.51562     6 1s   -1.09176
   25.1    -0.00000     1.19485     1 1s   -0.91169     1 1s    1.41538     1 2py  -0.37758     1 2px  -0.33641     1 2py   0.42818
                                    1 2pz  -0.25568     2 1s   -0.91099     2 1s    1.41329     2 2py   0.37777     2 2px   0.33714
                                    2 2py  -0.42875     2 2pz   0.25518     3 1s    0.62867     3 1s   -1.20930     6 1s    0.62877
                                    6 1s   -1.20941
   26.1    -0.00000     1.24235     1 1s   -1.61010     1 1s    4.65934     1 2px   1.09037     1 2py  -0.77909     1 2pz  -0.91911
                                    2 1s    1.61022     2 1s   -4.65933     2 2px   1.09039     2 2py  -0.77914     2 2pz  -0.91903
                                    3 1s   -0.50775     4 1s   -0.76450     5 1s    0.76425     6 1s    0.50803
   27.1    -0.00000     1.69698     1 1s    0.61064     1 3d0   0.34363     1 3d2- -0.29931     1 3d2+ -0.31503     2 1s   -0.61067
                                    2 3d0  -0.34358     2 3d2-  0.29927     2 3d2+  0.31507
   28.1    -0.00000     1.94323     1 1s    0.49201     1 3d2- -0.30642     1 3d1+  0.43495     1 3d1-  0.38691     2 1s   -0.49197
                                    2 3d2-  0.30639     2 3d1+ -0.43497     2 3d1- -0.38691     3 1s   -0.31809     6 1s    0.31810
   29.1    -0.00000     1.94437     1 1s   -0.54557     1 2px   0.27585     1 2py  -0.32319     1 3d0   0.28670     1 3d1+  0.31691
                                    1 3d2+  0.34613     1 3d1-  0.41888     2 1s   -0.54526     2 2px  -0.27599     2 2py   0.32331
                                    2 3d0   0.28673     2 3d1+  0.31690     2 3d2+  0.34613     2 3d1-  0.41887     3 1s    0.30062
                                    6 1s    0.30066
   30.1    -0.00000     2.21957     1 1s    0.54372     1 1s   -0.39171     1 2px   0.30432     1 2px  -0.32695     1 2py   0.28094
                                    1 3d0   0.30413     1 3d1+  0.40490     1 3d2+ -0.34631     2 1s    0.54359     2 1s   -0.39120
                                    2 2px  -0.30428     2 2px   0.32697     2 2py  -0.28089     2 3d0   0.30374     2 3d1+  0.40485
                                    2 3d2+ -0.34662
   31.1    -0.00000     2.23924     1 1s    0.83537     1 3d0  -0.54017     1 3d2+ -0.39465     2 1s   -0.83567     2 3d0   0.54050
                                    2 3d2+  0.39439     3 1s   -0.43333     4 1s   -0.26732     5 1s    0.26741     6 1s    0.43328
   32.1    -0.00000     2.32195     1 2py   0.38129     1 3d0   0.46559     1 3d2- -0.43646     1 3d1- -0.27904     2 2py  -0.38129
                                    2 3d0   0.46550     2 3d2- -0.43657     2 3d1- -0.27907     4 1s    0.45601     5 1s    0.45596
   33.1    -0.00000     2.47645     1 1s    1.16726     1 2px   0.57746     1 2py  -0.54302     1 2pz  -0.31162     1 3d2-  0.41083
                                    1 3d1-  0.56999     2 1s   -1.16721     2 2px   0.57735     2 2py  -0.54307     2 2pz  -0.31167
                                    2 3d2- -0.41079     2 3d1- -0.57003     3 1s    0.34289     4 1s   -0.47837     5 1s    0.47842
                                    6 1s   -0.34285
   34.1    -0.00000     2.62717     1 2py   0.38400     1 3d2-  0.27286     1 3d2+  0.56839     1 3d1- -0.50857     2 2py  -0.38391
                                    2 3d2-  0.27288     2 3d2+  0.56837     2 3d1- -0.50847     4 1s    0.39030     5 1s    0.39019
   35.1    -0.00000     2.80512     1 3d0   0.42469     1 3d2-  0.61888     1 3d1+ -0.44292     2 3d0   0.42468     2 3d2-  0.61884
                                    2 3d1+ -0.44303     3 1s    0.51415     6 1s    0.51420
   36.1    -0.00000     2.95648     1 1s    1.80235     1 2px   0.39822     1 2px   0.95193     1 2py  -0.30004     1 2pz  -0.43151
                                    1 3d2- -0.42366     1 3d1+ -0.62951     1 3d2+  0.64670     2 1s   -1.80237     2 2px   0.39821
                                    2 2px   0.95191     2 2py  -0.30004     2 2pz  -0.43152     2 3d2-  0.42379     2 3d1+  0.62944
                                    2 3d2+ -0.64667


 Natural orbital dump (state averaged) at molpro section  2140.2    (Orbital set 2)



 **********************************************************************************************************************************
 DATASETS  * FILE   NREC   LENGTH (MB)   RECORD NAMES
              1      20       31.85       500      610      700      900      950      970     1000      129      960     1100   
                                          VAR    BASINP    GEOM    SYMINP    ZMAT    AOBASIS   BASIS     P2S    ABASIS      S 
                                         1400     1410     1200     1210     1080     1600     1650     1300     1700     1380   
                                           T        V       H0       H01     AOSYM     SMH    MOLCAS    ERIS     OPER     JKOP   

              2       5        5.42       700     1000      520     2100     2140   
                                         GEOM     BASIS   MCVARS     RHF     MCSCF   

 PROGRAMS   *        TOTAL     MULTI    HF-SCF       INT
 CPU TIMES  *         1.03      0.63      0.10      0.20
 REAL TIME  *         1.41 SEC
 DISK USED  *        39.04 MB
 **********************************************************************************************************************************
 Molecular orbitals read from record     2140.2  Type=MCSCF/NATURAL (state averaged)
 Occupation numbers read from record     2140.2  Type=MCSCF/NATURAL (state averaged)
 Orbital energies read from record       2140.2  Type=MCSCF/NATURAL (state averaged)
 Redundancy group numbers read from rec  2140.2  Type=MCSCF/NATURAL (state averaged)

 MULTI/6-31G* energy=    -77.535981096775

           MULTI          HF-SCF
    -77.53598110    -77.86006440
 **********************************************************************************************************************************
 Molpro calculation terminated
