
 Primary working directories    : /scratch.local/johan406.molpro_temp/molpro.IqdGRm7BsJ
 Secondary working directories  : /scratch.local/johan406.molpro_temp/molpro.IqdGRm7BsJ
 Wavefunction directory         : /home/goodpast/johan406/wfu/
 Main file repository           : /scratch.local/johan406.molpro_temp/molpro.IqdGRm7BsJ/

 id        : roweumn

 Nodes     nprocs
 acn09        1

 Using customized tuning parameters: mindgm=1; mindgv=20; mindgc=4; mindgr=1; noblas=0; minvec=7
 default implementation of scratch files=df  


 Variables initialized (934), CPU time= 0.01 sec
                                                                                 !leave this line blank
 
 gprint, orbitals=30
 memory, 125., m
 symmetry, nosym
 nelect=16
 basis=6-31g*
 
 geometry={
 C -0.6445 0.1557 0.2663
 C 0.6534 -0.2056 -0.3266
 H -1.3787 0.9612 0.043
 H -0.9118 -0.9022 -0.0762
 H 0.9207 0.8523 0.0158
 H 1.3876 -1.0111 -0.1035
 }
 
 hf
 {multi,
 closed 7
 occ 9
 wf,spin=0;STATE,3
 }
 
 Commands  initialized (763), CPU time= 0.01 sec, 617 directives.
 Default parameters read. Elapsed time= 0.08 sec

 Checking input...
 Passed
1


                                         ***  PROGRAM SYSTEM MOLPRO  ***
                                       Copyright, TTI GmbH Stuttgart, 2015
                                    Version 2019.2 linked Oct 25 2019 22:50:27


 **********************************************************************************************************************************
 LABEL *                                                                                 
  64 bit serial version                                                                  DATE: 07-Feb-23          TIME: 15:16:23  
 **********************************************************************************************************************************

 SHA1:             8dbd9ae1082e4ce945b0f27595c9eb2d4aa09004
 **********************************************************************************************************************************


 Variable memory set to  125000000 words,  buffer space 

 SETTING NELECT         =        16.00000000                                  
 SETTING BASIS          =    6-31G*
 ZSYMEL=NOSYM


Geometry recognized as XYZ



 Recomputing integrals since basis changed


 Using spherical harmonics

 Library entry C      S 6-31G                selected for orbital group  1
 Library entry C      P 6-31G                selected for orbital group  1
 Library entry C      D 6-31G*               selected for orbital group  1
 Library entry H      S 6-31G                selected for orbital group  2


 PROGRAM * SEWARD (Integral evaluation for generally contracted gaussian basis sets)     Author: Roland Lindh, 1990

 Geometry written to block  1 of record 700


 Point group  C1  



 ATOMIC COORDINATES

 NR  ATOM    CHARGE       X              Y              Z

   1  C       6.00   -1.217928487    0.294230358    0.503234067
   2  C       6.00    1.234747050   -0.388527691   -0.617184552
   3  H       1.00   -2.605365408    1.816404751    0.081258223
   4  H       1.00   -1.723052280   -1.704910910   -0.143997131
   5  H       1.00    1.739870843    1.610613576    0.029857673
   6  H       1.00    2.622183970   -1.910702085   -0.195586654

 Bond lengths in Bohr (Angstrom)

 1-2  2.781566775  1-3  2.102393804  1-4  2.161162668  2-5  2.161106081  2-6  2.102317978
     ( 1.471941748)     ( 1.112538889)     ( 1.143638033)     ( 1.143608088)     ( 1.112498764)

 Bond angles

  1-2-5   81.86159315   1-2-6  132.75526362   2-1-3  132.74770313   2-1-4   81.85976913

  3-1-4  117.08976800   5-2-6  117.09618613

 NUCLEAR CHARGE:                   16
 NUMBER OF PRIMITIVE AOS:          72
 NUMBER OF SYMMETRY AOS:           70
 NUMBER OF CONTRACTIONS:           36   (   36A   )
 NUMBER OF CORE ORBITALS:           2   (    2A   )
 NUMBER OF VALENCE ORBITALS:       12   (   12A   )


 NUCLEAR REPULSION ENERGY   31.92095793

 Eigenvalues of metric

         1 0.101E-01 0.288E-01 0.572E-01 0.641E-01 0.677E-01 0.225E+00 0.247E+00 0.280E+00


 Contracted 2-electron integrals neglected if value below      1.0D-11
 AO integral compression algorithm  1   Integral accuracy      1.0D-11

     1.573 MB (compressed) written to integral file ( 58.3%)


 NUMBER OF SORTED TWO-ELECTRON INTEGRALS:     222111.     BUFFER LENGTH:  32768
 NUMBER OF SEGMENTS:   1  SEGMENT LENGTH:     222111      RECORD LENGTH: 524288

 Memory used in sort:       0.78 MW

 SORT1 READ      284735. AND WROTE      212526. INTEGRALS IN      1 RECORDS. CPU TIME:     0.00 SEC, REAL TIME:     0.00 SEC
 SORT2 READ      212526. AND WROTE      222111. INTEGRALS IN      6 RECORDS. CPU TIME:     0.02 SEC, REAL TIME:     0.02 SEC

 FILE SIZES:   FILE 1:    31.7 MBYTE,  FILE 4:     4.2 MBYTE,   TOTAL:     35.9 MBYTE

 OPERATOR DM      FOR CENTER  0  COORDINATES:    0.000000    0.000000    0.000000


 **********************************************************************************************************************************
 DATASETS  * FILE   NREC   LENGTH (MB)   RECORD NAMES
              1      19       31.12       500      610      700      900      950      970     1000      129      960     1100   
                                          VAR    BASINP    GEOM    SYMINP    ZMAT    AOBASIS   BASIS     P2S    ABASIS      S 
                                         1400     1410     1200     1210     1080     1600     1650     1300     1700   
                                           T        V       H0       H01     AOSYM     SMH    MOLCAS    ERIS     OPER   

 PROGRAMS   *        TOTAL       INT
 CPU TIMES  *         0.31      0.21
 REAL TIME  *         0.55 SEC
 DISK USED  *        36.24 MB
 **********************************************************************************************************************************


 PROGRAM * RHF-SCF (CLOSED SHELL)       Authors: W. Meyer, H.-J. Werner


 NUMBER OF ELECTRONS:       8+    8-    SPACE SYMMETRY=1    SPIN SYMMETRY: Singlet 
 CONVERGENCE THRESHOLDS:    1.00E-05 (Density)    1.00E-07 (Energy)
 MAX. NUMBER OF ITERATIONS:       60
 INTERPOLATION TYPE:            DIIS
 INTERPOLATION STEPS:              2 (START)      1 (STEP)
 LEVEL SHIFTS:                  0.00 (CLOSED)  0.00 (OPEN) 



 Orbital guess generated from atomic densities. Full valence occupancy:    8

 Molecular orbital dump at record        2100.2

 Initial occupancy:   8

 ITERATION    DDIFF          GRAD             ENERGY        2-EL.EN.            DIPOLE MOMENTS         DIIS   ORB.
    1      0.000D+00      0.000D+00       -77.84005055    115.126288    0.00006    0.00000   -0.00014    0    start
    2      0.000D+00      0.675D-02       -77.85668640    114.128798    0.00009    0.00000   -0.00012    1    diag
    3      0.725D-02      0.218D-02       -77.85861823    114.538130    0.00011   -0.00000   -0.00014    2    diag
    4      0.291D-02      0.795D-03       -77.85904237    114.414312    0.00011    0.00000   -0.00013    3    diag
    5      0.159D-02      0.282D-03       -77.85916328    114.419817    0.00013   -0.00001   -0.00015    4    diag
    6      0.102D-02      0.112D-03       -77.85919309    114.420077    0.00010    0.00001   -0.00012    5    diag
    7      0.493D-03      0.373D-04       -77.85919648    114.421156    0.00016   -0.00002   -0.00018    6    diag
    8      0.179D-03      0.974D-05       -77.85919666    114.421421    0.00007    0.00004   -0.00008    7    diag
    9      0.444D-04      0.251D-05       -77.85919667    114.421414    0.00017   -0.00003   -0.00019    8    diag
   10      0.531D-05      0.141D-05       -77.85919667    114.421411    0.00008    0.00003   -0.00010    0    orth

 Final occupancy:   8

 !RHF STATE  1.1 Energy               -77.859196669114
 Nuclear energy                        31.92095793
 One-electron energy                 -166.99086031
 Two-electron energy                   57.21070571
 Virial quotient                       -1.00342918
 !RHF STATE  1.1 Dipole moment          0.00008418     0.00002561    -0.00009867
 Dipole moment /Debye                   0.00021394     0.00006509    -0.00025079

 ELECTRON ORBITALS
 =================

  Orbital  Occupation    Energy     Coefficients
    1.1     2.00000   -11.26117     1 1s    0.71326     2 1s    0.69547
    2.1     2.00000   -11.26035     1 1s    0.69556     2 1s   -0.71335
    3.1     2.00000    -1.02237     1 1s    0.28536     2 1s    0.28537
    4.1     2.00000    -0.77714     1 1s    0.28230     2 1s   -0.28230
    5.1     2.00000    -0.62655     1 2py   0.30624     2 2py   0.30636
    6.1     2.00000    -0.59163     1 2px   0.28460     2 2px  -0.28461
    7.1     2.00000    -0.37519     1 2px   0.28174     2 2px  -0.28160     4 1s   -0.28302     5 1s   -0.28298
    8.1     2.00000    -0.37033     1 2pz   0.32428     1 2pz   0.29966     2 2pz   0.32418     2 2pz   0.29960
    9.1     0.00000     0.09707     1 1s    0.38878     1 2pz   0.33932     1 2pz   0.51673     2 1s    0.38869     2 2pz  -0.33934
                                    2 2pz  -0.51679
   10.1     0.00000     0.23329     1 1s   -1.05103     1 2px   0.43298     1 2py   0.40983     1 2pz   0.31268     2 1s   -1.05102
                                    2 2px  -0.43302     2 2py  -0.40979     2 2pz  -0.31258     3 1s    0.48327     4 1s    1.09094
                                    5 1s    1.09091     6 1s    0.48331
   11.1     0.00000     0.25116     1 1s   -1.24320     1 2py  -0.39856     2 1s    1.24325     2 2py  -0.39858     3 1s    1.29261
                                    6 1s   -1.29259
   12.1     0.00000     0.32405     1 1s   -0.80675     1 2px   0.44414     1 2py  -1.03756     1 2pz   0.32861     2 1s   -0.80681
                                    2 2px  -0.44430     2 2py   1.03762     2 2pz  -0.32852     3 1s    1.62700     4 1s   -0.43180
                                    5 1s   -0.43172     6 1s    1.62722
   13.1     0.00000     0.34113     1 1s   -1.05552     1 2py   0.81961     1 2pz   0.25481     2 1s    1.05553     2 2py   0.81982
                                    2 2pz   0.25473     4 1s    1.72457     5 1s   -1.72475
   14.1     0.00000     0.43009     1 1s    2.01744     1 2px   1.96243     1 2py  -0.75413     1 2pz  -0.78438     2 1s   -2.01729
                                    2 2px   1.96248     2 2py  -0.75422     2 2pz  -0.78445     3 1s    0.91335     4 1s   -0.26239
                                    5 1s    0.26243     6 1s   -0.91359
   15.1     0.00000     0.72065     1 2px  -0.49841     1 2py  -0.27632     1 2px   0.84623     1 2py   0.28109     2 2px   0.49840
                                    2 2py   0.27636     2 2px  -0.84618     2 2py  -0.28119     3 1s    0.25749     4 1s    0.29191
                                    4 1s   -0.46837     5 1s    0.29195     5 1s   -0.46832     6 1s    0.25752
   16.1     0.00000     0.75036     1 1s    0.52790     1 2px  -0.33004     1 2py   0.30802     1 2px   1.02581     1 2py  -0.76089
                                    1 2pz  -0.26557     2 1s   -0.52766     2 2px  -0.33000     2 2py   0.30788     2 2px   1.02583
                                    2 2py  -0.76070     2 2pz  -0.26551     3 1s    0.52818     6 1s   -0.52821
   17.1     0.00000     0.79543     1 2pz   0.74454     1 2pz  -0.66489     2 2pz   0.74450     2 2pz  -0.66480
   18.1     0.00000     0.83092     1 2py  -0.37896     1 2pz  -0.63344     1 2py   0.90165     1 2pz   0.78232     2 2py   0.37896
                                    2 2pz   0.63356     2 2py  -0.90183     2 2pz  -0.78252     3 1s   -0.35613     6 1s   -0.35628
   19.1     0.00000     0.90685     1 1s    0.61820     1 1s   -0.40577     1 2px   0.37325     1 2py  -0.38471     1 2pz   0.39747
                                    1 2px  -0.60805     1 2py   1.04489     1 2pz  -0.45436     2 1s    0.61821     2 1s   -0.40604
                                    2 2px  -0.37338     2 2py   0.38469     2 2pz  -0.39744     2 2px   0.60848     2 2py  -1.04500
                                    2 2pz   0.45424     3 1s   -0.57330     4 1s    0.39329     5 1s    0.39323     6 1s   -0.57340
   20.1     0.00000     0.96381     1 2px  -0.56962     1 2py  -0.50621     1 2px   0.63194     1 2py   1.16248     2 2px  -0.56954
                                    2 2py  -0.50616     2 2px   0.63209     2 2py   1.16235     3 1s   -0.34688     4 1s    1.05504
                                    5 1s   -1.05521     6 1s    0.34686
   21.1     0.00000     1.06939     1 1s    0.34830     1 1s   -0.92215     1 2py   0.39742     1 2px   0.48016     1 2py  -1.06815
                                    1 2pz   0.59023     2 1s    0.34907     2 1s   -0.92462     2 2py  -0.39766     2 2px  -0.47846
                                    2 2py   1.06822     2 2pz  -0.59059     3 1s    0.55330     3 1s    0.53960     4 1s    0.45403
                                    4 1s   -0.29763     5 1s    0.45455     5 1s   -0.29857     6 1s    0.55341     6 1s    0.53948
   22.1     0.00000     1.12336     1 1s   -1.38293     1 2px   0.47736     1 2px  -1.62911     1 2py   0.68011     1 2pz   0.38715
                                    2 1s    1.38647     2 2px   0.47664     2 2px  -1.62800     2 2py   0.68044     2 2pz   0.38781
                                    3 1s    0.49159     3 1s   -1.07151     4 1s    0.55325     4 1s   -0.45908     5 1s   -0.55187
                                    5 1s    0.45652     6 1s   -0.49149     6 1s    1.07055
   23.1     0.00000     1.14362     1 1s   -1.04557     1 1s    2.09327     1 2px   0.33943     1 2px  -0.75450     1 2py   0.32538
                                    1 2pz  -0.47717     2 1s   -1.04589     2 1s    2.09183     2 2px  -0.34065     2 2px   0.75779
                                    2 2py  -0.32747     2 2pz   0.47635     3 1s   -0.76001     4 1s    0.50054     4 1s   -1.08571
                                    5 1s    0.50110     5 1s   -1.08579     6 1s   -0.76327
   24.1     0.00000     1.17514     1 1s   -0.49053     1 2px  -0.29382     1 2py   0.54447     1 2py  -0.57877     2 1s    0.48210
                                    2 2px  -0.29282     2 2py   0.54216     2 2py  -0.57610     3 1s   -0.35152     3 1s    0.71498
                                    4 1s    0.64685     4 1s   -0.85966     5 1s   -0.64536     5 1s    0.85958     6 1s    0.34789
                                    6 1s   -0.70774
   25.1     0.00000     1.18353     1 1s   -0.71867     1 1s    0.99546     1 2py  -0.38855     1 2py   0.32967     2 1s   -0.71852
                                    2 1s    0.99651     2 2py   0.39183     2 2py  -0.33331     3 1s    0.67058     3 1s   -1.04517
                                    4 1s   -0.30294     5 1s   -0.30682     6 1s    0.67263     6 1s   -1.04909
   26.1     0.00000     1.24348     1 1s   -1.59587     1 1s    4.58983     1 2px   1.12177     1 2py  -0.91391     1 2pz  -0.90170
                                    2 1s    1.59573     2 1s   -4.58919     2 2px   1.12219     2 2py  -0.91444     2 2pz  -0.90129
                                    3 1s   -0.38389     4 1s   -0.89714     5 1s    0.89692     6 1s    0.38375
   27.1     0.00000     1.70368     1 1s    0.60391     1 3d0   0.35168     1 3d2- -0.29143     1 3d1+ -0.25447     1 3d2+ -0.30820
                                    2 1s   -0.60389     2 3d0  -0.35170     2 3d2-  0.29140     2 3d1+  0.25445     2 3d2+  0.30818
   28.1     0.00000     1.94588     1 1s   -0.37930     1 3d2-  0.31221     1 3d1+ -0.42728     1 3d1- -0.37267     2 1s    0.34752
                                    2 3d2- -0.31549     2 3d1+  0.44661     2 3d1-  0.40027     3 1s    0.32530     6 1s   -0.31120
   29.1     0.00000     1.94593     1 1s   -0.49884     1 2px   0.27967     1 2py  -0.33701     1 3d0   0.26935     1 3d1+  0.32419
                                    1 3d2+  0.33942     1 3d1-  0.45589     2 1s   -0.52105     2 2px  -0.28122     2 2py   0.33756
                                    2 3d0   0.27326     2 3d1+  0.29703     2 3d2+  0.33245     2 3d1-  0.43189     3 1s    0.29475
                                    6 1s    0.29351
   30.1     0.00000     2.21665     1 1s    0.54748     1 1s   -0.39686     1 2px   0.30308     1 2px  -0.33259     1 2py   0.30257
                                    1 3d0   0.33302     1 3d1+  0.40513     1 3d2+ -0.32628     2 1s    0.54715     2 1s   -0.39575
                                    2 2px  -0.30297     2 2px   0.33276     2 2py  -0.30258     2 3d0   0.33190     2 3d1+  0.40500
                                    2 3d2+ -0.32718
   31.1     0.00000     2.24117     1 1s    0.59210     1 3d0  -0.50982     1 3d2- -0.25215     1 3d2+ -0.39661     2 1s   -0.59298
                                    2 3d0   0.51048     2 3d2-  0.25242     2 3d2+  0.39577     3 1s   -0.44710     6 1s    0.44720
   32.1     0.00000     2.32845     1 2py   0.36113     1 3d0   0.45611     1 3d2- -0.44124     1 3d1+ -0.26550     2 2py  -0.36122
                                    2 3d0   0.45625     2 3d2- -0.44116     2 3d1+ -0.26547     4 1s    0.46622     5 1s    0.46628
   33.1     0.00000     2.46189     1 1s    1.32724     1 2px   0.64989     1 2py  -0.59250     1 2pz  -0.34768     1 3d0  -0.29320
                                    1 3d2-  0.37983     1 3d1-  0.54989     2 1s   -1.32719     2 2px   0.64987     2 2py  -0.59264
                                    2 2pz  -0.34772     2 3d0   0.29319     2 3d2- -0.37993     2 3d1- -0.54986     3 1s    0.28170
                                    4 1s   -0.51270     5 1s    0.51284     6 1s   -0.28170
   34.1     0.00000     2.62977     1 2py   0.39195     1 3d2+  0.57526     1 3d1- -0.49619     2 2py  -0.39196     2 3d2+  0.57530
                                    2 3d1- -0.49608     4 1s    0.40269     5 1s    0.40268
   35.1     0.00000     2.80630     1 3d0   0.41397     1 3d2-  0.64461     1 3d1+ -0.41432     2 3d0   0.41396     2 3d2-  0.64451
                                    2 3d1+ -0.41448     3 1s    0.50539     6 1s    0.50543
   36.1     0.00000     2.96456     1 1s    1.77049     1 2px   0.39733     1 2px   0.95132     1 2py  -0.30258     1 2pz  -0.41869
                                    1 3d0  -0.25617     1 3d2- -0.43550     1 3d1+ -0.61398     1 3d2+  0.64969     2 1s   -1.77053
                                    2 2px   0.39730     2 2px   0.95129     2 2py  -0.30257     2 2pz  -0.41869     2 3d0   0.25629
                                    2 3d2-  0.43572     2 3d1+  0.61388     2 3d2+ -0.64967


 HOMO      8.1    -0.370326 =     -10.0771eV
 LUMO      9.1     0.097074 =       2.6415eV
 LUMO-HOMO         0.467399 =      12.7186eV


 **********************************************************************************************************************************
 DATASETS  * FILE   NREC   LENGTH (MB)   RECORD NAMES
              1      19       31.12       500      610      700      900      950      970     1000      129      960     1100   
                                          VAR    BASINP    GEOM    SYMINP    ZMAT    AOBASIS   BASIS     P2S    ABASIS      S 
                                         1400     1410     1200     1210     1080     1600     1650     1300     1700   
                                           T        V       H0       H01     AOSYM     SMH    MOLCAS    ERIS     OPER   

              2       4        2.86       700     1000      520     2100   
                                         GEOM     BASIS   MCVARS     RHF  

 PROGRAMS   *        TOTAL    HF-SCF       INT
 CPU TIMES  *         0.41      0.10      0.21
 REAL TIME  *         0.74 SEC
 DISK USED  *        36.24 MB
 **********************************************************************************************************************************


 PROGRAM * MULTI (Direct Multiconfiguration SCF)       Authors: P.J. Knowles, H.-J. Werner (1984)


 Number of closed-shell orbitals:   7 (   7 )
 Number of active  orbitals:        2 (   2 )
 Number of external orbitals:      27 (  27 )

 State symmetry 1

 Number of electrons:     2    Spin symmetry=Singlet   Space symmetry=1
 Number of states:        3
 Number of CSFs:          3   (4 determinants, 4 intermediate states)

 Molecular orbitals read from record     2100.2  Type=RHF/CANONICAL (state 1.1)

 Wavefunction dump at record             2140.2

 Convergence thresholds  0.10E-01 (gradient)  0.10E-05 (energy)  0.10E-02 (step length)

 Weight factors for state symmetry  1:    0.33333   0.33333   0.33333

 Number of orbital rotations:      257   (    14 Core/Active    189 Core/Virtual   0 Active/Active     54 Active/Virtual)
 Total number of variables:        269

 Micro-Iterations solved by the two-step solver

 ITER. MIC  NCI  NEG     ENERGY(VAR)     ENERGY(PROJ)   ENERGY CHANGE     GRAD(0)  GRAD(ORB)   GRAD(CI)     STEP       TIME

   1   12    7    1     -77.61284889     -77.64092300   -0.02807411    0.11396647 0.00067261 0.00000000  0.32D+00      0.34
   2    9    6    0     -77.69344042     -77.70450269   -0.01106228    0.12687594 0.00121081 0.00000000  0.13D+00      0.45
   3    8    5    0     -77.70476010     -77.70479390   -0.00003380    0.00710813 0.00003207 0.00000000  0.76D-02      0.57
   4    9    5    0     -77.70479398     -77.70479399   -0.00000000    0.00002855 0.00000000 0.00000000  0.37D-04      0.68

 ** WVFN ****  CONVERGENCE REACHED, FINAL GRADIENT:  0.65D-09



 Results for state 1.1
 =====================

 !MCSCF STATE  1.1 Energy             -77.852869966135
 Nuclear energy                        31.92095793
 Kinetic energy                        77.64829896
 One electron energy                 -167.06032972
 Two electron energy                   57.28650182
 Virial ratio                           2.00263458

 !MCSCF STATE  1.1 Dipole moment        0.00014516     0.00000650    -0.00013330
 Dipole moment /Debye                   0.00036894     0.00001652    -0.00033880

 Results for state 2.1
 =====================

 !MCSCF STATE  2.1 Energy             -77.731135505588
 Nuclear energy                        31.92095793
 Kinetic energy                        77.70718982
 One electron energy                 -166.77955228
 Two electron energy                   57.12745884
 Virial ratio                           2.00030815

 !MCSCF STATE  2.1 Dipole moment        0.00004871    -0.00003161    -0.00014632
 Dipole moment /Debye                   0.00012381    -0.00008034    -0.00037189

 Results for state 3.1
 =====================

 !MCSCF STATE  3.1 Energy             -77.530376483175
 Nuclear energy                        31.92095793
 Kinetic energy                        77.75992878
 One electron energy                 -166.51658239
 Two electron energy                   57.06524798
 Virial ratio                           1.99704794

 !MCSCF STATE  3.1 Dipole moment       -0.00002735    -0.00007452    -0.00017790
 Dipole moment /Debye                  -0.00006952    -0.00018940    -0.00045215

 State-averaged charge density matrix saved on record  2140.2 (density set 1)

 !MCSCF expec         <1.1|DMX|1.1>     0.000145162065 au =     0.000368941002 Debye
 !MCSCF trans         <2.1|DMX|1.1>     0.000091158077 au =     0.000231685545 Debye
 !MCSCF expec         <2.1|DMX|2.1>     0.000048714210 au =     0.000123811062 Debye
 !MCSCF trans         <3.1|DMX|1.1>     0.000010099292 au =     0.000025668160 Debye
 !MCSCF trans         <3.1|DMX|2.1>     0.000101681035 au =     0.000258430485 Debye
 !MCSCF expec         <3.1|DMX|3.1>    -0.000027354571 au =    -0.000069523831 Debye

 !MCSCF expec         <1.1|DMY|1.1>     0.000006498741 au =     0.000016517070 Debye
 !MCSCF trans         <2.1|DMY|1.1>    -0.000022583590 au =    -0.000057398002 Debye
 !MCSCF expec         <2.1|DMY|2.1>    -0.000031610743 au =    -0.000080341232 Debye
 !MCSCF trans         <3.1|DMY|1.1>     0.000002340643 au =     0.000005948931 Debye
 !MCSCF trans         <3.1|DMY|2.1>    -0.000022918806 au =    -0.000058249979 Debye
 !MCSCF expec         <3.1|DMY|3.1>    -0.000074520108 au =    -0.000189398816 Debye

 !MCSCF expec         <1.1|DMZ|1.1>    -0.000133302035 au =    -0.000338797787 Debye
 !MCSCF trans         <2.1|DMZ|1.1>    -0.000084862193 au =    -0.000215684051 Debye
 !MCSCF expec         <2.1|DMZ|2.1>    -0.000146322896 au =    -0.000371891346 Debye
 !MCSCF trans         <3.1|DMZ|1.1>    -0.000001372228 au =    -0.000003487627 Debye
 !MCSCF trans         <3.1|DMZ|2.1>    -0.000090891607 au =    -0.000231008291 Debye
 !MCSCF expec         <3.1|DMZ|3.1>    -0.000177902722 au =    -0.000452153999 Debye


 NATURAL ORBITALS (state averaged)
 =================================

  Orbital  Occupation    Energy     Coefficients
    1.1     2.00000   -11.25445     1 1s    0.70620     2 1s    0.70260
    2.1     2.00000   -11.25376     1 1s    0.70265     2 1s   -0.70625
    3.1     2.00000    -1.03290     1 1s    0.28000     2 1s    0.28000
    4.1     2.00000    -0.77303     1 1s    0.31044     2 1s   -0.31044
    5.1     2.00000    -0.62897     1 2py   0.29891     2 2py   0.29901
    6.1     2.00000    -0.58691     1 2px   0.25240     2 2px  -0.25240
    7.1     2.00000    -0.39969     1 2pz   0.34290     1 2pz   0.29432     2 2pz   0.34289     2 2pz   0.29431
    8.1     1.00000    -0.21582     1 2px  -0.30984     2 2px   0.30985     4 1s    0.29413     5 1s    0.29411
    9.1     1.00000    -0.05512     1 2pz   0.42003     1 2pz   0.46717     2 2pz  -0.42006     2 2pz  -0.46721
   10.1    -0.00000     0.21978     1 1s   -1.05576     1 2px   0.42757     1 2py   0.43413     2 1s   -1.05563     2 2px  -0.42761
                                    2 2py  -0.43411     3 1s    0.44804     4 1s    1.10007     5 1s    1.10002     6 1s    0.44799
   11.1    -0.00000     0.25242     1 1s   -1.29392     1 2py  -0.36329     2 1s    1.29403     2 2py  -0.36327     3 1s    1.28863
                                    6 1s   -1.28864
   12.1    -0.00000     0.32609     1 1s   -1.15286     1 2py   0.91498     1 2pz   0.30301     2 1s    1.15777     2 2py   0.90942
                                    2 2pz   0.30462     4 1s    1.75486     5 1s   -1.75288
   13.1    -0.00000     0.32632     1 1s   -0.87742     1 2px   0.45043     1 2py  -1.02472     1 2pz   0.29462     2 1s   -0.87096
                                    2 2px  -0.45015     2 2py   1.02990     2 2pz  -0.29281     3 1s    1.65180     4 1s   -0.37979
                                    5 1s   -0.38960     6 1s    1.65277
   14.1    -0.00000     0.43371     1 1s    1.86285     1 2px   1.96517     1 2py  -0.63255     1 2pz  -0.72877     2 1s   -1.86271
                                    2 2px   1.96523     2 2py  -0.63263     2 2pz  -0.72884     3 1s    0.90357     6 1s   -0.90379
   15.1    -0.00000     0.71487     1 2px  -0.48077     1 2py  -0.26463     1 2px   0.82348     1 2py   0.27973     2 2px   0.48080
                                    2 2py   0.26464     2 2px  -0.82352     2 2py  -0.27979     3 1s    0.25368     4 1s    0.33345
                                    4 1s   -0.51524     5 1s    0.33347     5 1s   -0.51518     6 1s    0.25370
   16.1    -0.00000     0.75441     1 1s    0.57491     1 2px  -0.33338     1 2py   0.30775     1 2px   1.05478     1 2py  -0.77046
                                    2 1s   -0.57466     2 2px  -0.33330     2 2py   0.30764     2 2px   1.05474     2 2py  -0.77031
                                    3 1s    0.52850     6 1s   -0.52854
   17.1    -0.00000     0.79265     1 1s    0.35221     1 2pz   0.73959     1 2pz  -0.73036     2 1s   -0.35226     2 2pz   0.73967
                                    2 2pz  -0.73045
   18.1    -0.00000     0.82637     1 2py  -0.35184     1 2pz  -0.61528     1 2py   0.84582     1 2pz   0.86546     2 2py   0.35186
                                    2 2pz   0.61526     2 2py  -0.84600     2 2pz  -0.86552     3 1s   -0.28999     6 1s   -0.29017
   19.1    -0.00000     0.90393     1 1s    0.59860     1 1s   -0.37320     1 2px   0.38633     1 2py  -0.37208     1 2pz   0.36793
                                    1 2px  -0.63733     1 2py   1.04172     1 2pz  -0.46543     2 1s    0.59861     2 1s   -0.37351
                                    2 2px  -0.38645     2 2py   0.37208     2 2pz  -0.36786     2 2px   0.63775     2 2py  -1.04188
                                    2 2pz   0.46526     3 1s   -0.60315     4 1s    0.37545     5 1s    0.37544     6 1s   -0.60326
   20.1    -0.00000     0.96751     1 1s   -0.25294     1 2px  -0.55406     1 2py  -0.50288     1 2px   0.48803     1 2py   1.19353
                                    2 1s    0.25359     2 2px  -0.55399     2 2py  -0.50279     2 2px   0.48819     2 2py   1.19331
                                    3 1s   -0.40463     4 1s    0.98775     5 1s   -0.98793     6 1s    0.40459
   21.1    -0.00000     1.05873     1 1s   -0.57445     1 2py   0.46415     1 2px   0.33131     1 2py  -1.05788     1 2pz   0.50533
                                    2 1s   -0.57631     2 2py  -0.46445     2 2px  -0.32993     2 2py   1.05814     2 2pz  -0.50557
                                    3 1s    0.47014     3 1s    0.46498     4 1s    0.53784     4 1s   -0.49787     5 1s    0.53823
                                    5 1s   -0.49878     6 1s    0.47019     6 1s    0.46499
   22.1    -0.00000     1.10713     1 1s   -1.26405     1 2px   0.37178     1 2px  -1.49443     1 2py   0.30701     1 2pz   0.32281
                                    2 1s    1.26883     2 2px   0.37092     2 2px  -1.49264     2 2py   0.30666     2 2pz   0.32390
                                    3 1s    0.32442     3 1s   -0.72739     4 1s    0.74359     4 1s   -0.84790     5 1s   -0.74207
                                    5 1s    0.84489     6 1s   -0.32504     6 1s    0.72616
   23.1    -0.00000     1.12991     1 1s   -1.01441     1 1s    2.11710     1 2px   0.31705     1 2px  -0.82068     1 2py   0.48276
                                    1 2pz  -0.52620     2 1s   -1.01482     2 1s    2.11493     2 2px  -0.31814     2 2px   0.82471
                                    2 2py  -0.48424     2 2pz   0.52526     3 1s   -0.32335     3 1s   -0.73307     4 1s    0.43313
                                    4 1s   -1.01216     5 1s    0.43491     5 1s   -1.01389     6 1s   -0.32212     6 1s   -0.73600
   24.1    -0.00000     1.16068     1 1s    0.63494     1 2px  -0.44931     1 2py   0.57013     1 2px   0.78410     1 2py  -0.89340
                                    2 1s   -0.63769     2 2px  -0.44895     2 2py   0.56972     2 2px   0.78335     2 2py  -0.89274
                                    3 1s   -0.49165     3 1s    1.00308     4 1s    0.38945     4 1s   -0.72968     5 1s   -0.38937
                                    5 1s    0.73022     6 1s    0.49101     6 1s   -1.00129
   25.1    -0.00000     1.18942     1 1s   -0.82976     1 1s    1.20422     1 2py  -0.36651     1 2py   0.33030     2 1s   -0.82857
                                    2 1s    1.20088     2 2py   0.36727     2 2py  -0.33172     3 1s    0.66870     3 1s   -1.10134
                                    6 1s    0.66920     6 1s   -1.10209
   26.1    -0.00000     1.23932     1 1s   -1.59754     1 1s    4.60184     1 2px   1.10452     1 2py  -0.81194     1 2pz  -0.87642
                                    2 1s    1.59753     2 1s   -4.60136     2 2px   1.10492     2 2py  -0.81246     2 2pz  -0.87602
                                    3 1s   -0.48010     4 1s   -0.76899     5 1s    0.76876     6 1s    0.48015
   27.1    -0.00000     1.69892     1 1s    0.60970     1 3d0   0.34573     1 3d2- -0.29584     1 3d1+ -0.25190     1 3d2+ -0.31112
                                    2 1s   -0.60968     2 3d0  -0.34575     2 3d2-  0.29582     2 3d1+  0.25188     2 3d2+  0.31111
   28.1    -0.00000     1.94328     1 1s   -0.50809     1 2px   0.28571     1 2py  -0.34300     1 3d0   0.27026     1 3d1+  0.30169
                                    1 3d2+  0.34104     1 3d1-  0.43956     2 1s   -0.50144     2 2px  -0.28531     2 2py   0.34293
                                    2 3d0   0.26889     2 3d1+  0.30989     2 3d2+  0.34315     2 3d1-  0.44673     3 1s    0.29660
                                    6 1s    0.29710
   29.1    -0.00000     1.94363     1 1s   -0.33295     1 3d2-  0.31205     1 3d1+ -0.44318     1 3d1- -0.38753     2 1s    0.34225
                                    2 3d2- -0.31089     2 3d1+  0.43752     2 3d1-  0.37930     3 1s    0.32010     6 1s   -0.32428
   30.1    -0.00000     2.21786     1 1s    0.54575     1 1s   -0.40033     1 2px   0.30776     1 2px  -0.32798     1 2py   0.28566
                                    1 3d0   0.32485     1 3d1+  0.41293     1 3d2+ -0.33314     2 1s    0.54537     2 1s   -0.39913
                                    2 2px  -0.30762     2 2px   0.32816     2 2py  -0.28565     2 3d0   0.32361     2 3d1+  0.41281
                                    2 3d2+ -0.33414
   31.1    -0.00000     2.23956     1 1s    0.57798     1 3d0  -0.51198     1 3d2+ -0.40039     2 1s   -0.57895     2 3d0   0.51267
                                    2 3d2+  0.39945     3 1s   -0.44660     6 1s    0.44673
   32.1    -0.00000     2.31871     1 2py   0.38231     1 3d0   0.45663     1 3d2- -0.44313     1 3d1- -0.25952     2 2py  -0.38244
                                    2 3d0   0.45681     2 3d2- -0.44306     2 3d1- -0.25936     4 1s    0.46396     5 1s    0.46406
   33.1    -0.00000     2.45545     1 1s    1.31878     1 2px   0.64241     1 2py  -0.59391     1 2pz  -0.34533     1 3d0  -0.28907
                                    1 3d2-  0.38522     1 3d1-  0.55147     2 1s   -1.31873     2 2px   0.64237     2 2py  -0.59404
                                    2 2pz  -0.34537     2 3d0   0.28903     2 3d2- -0.38530     2 3d1- -0.55145     3 1s    0.28530
                                    4 1s   -0.50257     5 1s    0.50270     6 1s   -0.28530
   34.1    -0.00000     2.62306     1 2py   0.39157     1 3d2+  0.57109     1 3d1- -0.49665     2 2py  -0.39157     2 3d2+  0.57113
                                    2 3d1- -0.49653     4 1s    0.38920     5 1s    0.38918
   35.1    -0.00000     2.80734     1 3d0   0.42462     1 3d2-  0.63253     1 3d1+ -0.42318     2 3d0   0.42461     2 3d2-  0.63242
                                    2 3d1+ -0.42334     3 1s    0.50648     6 1s    0.50652
   36.1    -0.00000     2.96026     1 1s    1.80285     1 2px   0.39181     1 2px   0.96517     1 2py  -0.31312     1 2pz  -0.42628
                                    1 3d0  -0.26418     1 3d2- -0.43374     1 3d1+ -0.61713     1 3d2+  0.64546     2 1s   -1.80289
                                    2 2px   0.39179     2 2px   0.96514     2 2py  -0.31312     2 2pz  -0.42628     2 3d0   0.26430
                                    2 3d2-  0.43395     2 3d1+  0.61702     2 3d2+ -0.64544


 Natural orbital dump (state averaged) at molpro section  2140.2    (Orbital set 2)



 **********************************************************************************************************************************
 DATASETS  * FILE   NREC   LENGTH (MB)   RECORD NAMES
              1      20       31.85       500      610      700      900      950      970     1000      129      960     1100   
                                          VAR    BASINP    GEOM    SYMINP    ZMAT    AOBASIS   BASIS     P2S    ABASIS      S 
                                         1400     1410     1200     1210     1080     1600     1650     1300     1700     1380   
                                           T        V       H0       H01     AOSYM     SMH    MOLCAS    ERIS     OPER     JKOP   

              2       5        5.42       700     1000      520     2100     2140   
                                         GEOM     BASIS   MCVARS     RHF     MCSCF   

 PROGRAMS   *        TOTAL     MULTI    HF-SCF       INT
 CPU TIMES  *         1.14      0.73      0.10      0.21
 REAL TIME  *         1.55 SEC
 DISK USED  *        39.04 MB
 **********************************************************************************************************************************
 Molecular orbitals read from record     2140.2  Type=MCSCF/NATURAL (state averaged)
 Occupation numbers read from record     2140.2  Type=MCSCF/NATURAL (state averaged)
 Orbital energies read from record       2140.2  Type=MCSCF/NATURAL (state averaged)
 Redundancy group numbers read from rec  2140.2  Type=MCSCF/NATURAL (state averaged)

 MULTI/6-31G* energy=    -77.530376483175

           MULTI          HF-SCF
    -77.53037648    -77.85919667
 **********************************************************************************************************************************
 Molpro calculation terminated
