
 Primary working directories    : /scratch.local/johan406.molpro_temp/molpro.l123Z2VDl5
 Secondary working directories  : /scratch.local/johan406.molpro_temp/molpro.l123Z2VDl5
 Wavefunction directory         : /home/goodpast/johan406/wfu/
 Main file repository           : /scratch.local/johan406.molpro_temp/molpro.l123Z2VDl5/

 id        : roweumn

 Nodes     nprocs
 acn09        1

 Using customized tuning parameters: mindgm=1; mindgv=20; mindgc=4; mindgr=1; noblas=0; minvec=7
 default implementation of scratch files=df  


 Variables initialized (934), CPU time= 0.00 sec
                                                                                 !leave this line blank
 
 gprint, orbitals=30
 memory, 125., m
 symmetry, nosym
 nelect=16
 basis=6-31g*
 
 geometry={
 C -0.6294 0.1367 0.2977
 C 0.6325 -0.1885 -0.36
 H -1.2508 0.9171 -0.1439
 H -0.9454 -0.8729 -0.1398
 H 0.9879 0.8096 0.0746
 H 1.2923 -0.9257 0.1055
 }
 
 hf
 {multi,
 closed 7
 occ 9
 wf,spin=0;STATE,3
 }
 
 Commands  initialized (763), CPU time= 0.01 sec, 617 directives.
 Default parameters read. Elapsed time= 0.07 sec

 Checking input...
 Passed
1


                                         ***  PROGRAM SYSTEM MOLPRO  ***
                                       Copyright, TTI GmbH Stuttgart, 2015
                                    Version 2019.2 linked Oct 25 2019 22:50:27


 **********************************************************************************************************************************
 LABEL *                                                                                 
  64 bit serial version                                                                  DATE: 07-Feb-23          TIME: 15:18:10  
 **********************************************************************************************************************************

 SHA1:             8dbd9ae1082e4ce945b0f27595c9eb2d4aa09004
 **********************************************************************************************************************************


 Variable memory set to  125000000 words,  buffer space 

 SETTING NELECT         =        16.00000000                                  
 SETTING BASIS          =    6-31G*
 ZSYMEL=NOSYM


Geometry recognized as XYZ



 Recomputing integrals since basis changed


 Using spherical harmonics

 Library entry C      S 6-31G                selected for orbital group  1
 Library entry C      P 6-31G                selected for orbital group  1
 Library entry C      D 6-31G*               selected for orbital group  1
 Library entry H      S 6-31G                selected for orbital group  2


 PROGRAM * SEWARD (Integral evaluation for generally contracted gaussian basis sets)     Author: Roland Lindh, 1990

 Geometry written to block  1 of record 700


 Point group  C1  



 ATOMIC COORDINATES

 NR  ATOM    CHARGE       X              Y              Z

   1  C       6.00   -1.189393623    0.258325561    0.562571467
   2  C       6.00    1.195251774   -0.356213374   -0.680301405
   3  H       1.00   -2.363669437    1.733067829   -0.271931589
   4  H       1.00   -1.786547078   -1.649541934   -0.264183712
   5  H       1.00    1.866860438    1.529922270    0.140973569
   6  H       1.00    2.442093071   -1.749319474    0.199366106

 Bond lengths in Bohr (Angstrom)

 1-2  2.758427949  1-3  2.061597389  1-4  2.163348043  2-5  2.164037535  2-6  2.066197656
     ( 1.459697208)     ( 1.090950356)     ( 1.144794484)     ( 1.145159347)     ( 1.093384713)

 Bond angles

  1-2-5   84.44060137   1-2-6  118.68927393   2-1-3  117.99499018   2-1-4   82.52804445

  3-1-4  108.59887262   5-2-6  103.81566430

 NUCLEAR CHARGE:                   16
 NUMBER OF PRIMITIVE AOS:          72
 NUMBER OF SYMMETRY AOS:           70
 NUMBER OF CONTRACTIONS:           36   (   36A   )
 NUMBER OF CORE ORBITALS:           2   (    2A   )
 NUMBER OF VALENCE ORBITALS:       12   (   12A   )


 NUCLEAR REPULSION ENERGY   32.36309598

 Eigenvalues of metric

         1 0.926E-02 0.274E-01 0.597E-01 0.643E-01 0.802E-01 0.218E+00 0.237E+00 0.272E+00


 Contracted 2-electron integrals neglected if value below      1.0D-11
 AO integral compression algorithm  1   Integral accuracy      1.0D-11

     1.573 MB (compressed) written to integral file ( 59.2%)


 NUMBER OF SORTED TWO-ELECTRON INTEGRALS:     222111.     BUFFER LENGTH:  32768
 NUMBER OF SEGMENTS:   1  SEGMENT LENGTH:     222111      RECORD LENGTH: 524288

 Memory used in sort:       0.78 MW

 SORT1 READ      284735. AND WROTE      212531. INTEGRALS IN      1 RECORDS. CPU TIME:     0.00 SEC, REAL TIME:     0.01 SEC
 SORT2 READ      212531. AND WROTE      222111. INTEGRALS IN      6 RECORDS. CPU TIME:     0.03 SEC, REAL TIME:     0.02 SEC

 FILE SIZES:   FILE 1:    31.7 MBYTE,  FILE 4:     4.2 MBYTE,   TOTAL:     35.9 MBYTE

 OPERATOR DM      FOR CENTER  0  COORDINATES:    0.000000    0.000000    0.000000


 **********************************************************************************************************************************
 DATASETS  * FILE   NREC   LENGTH (MB)   RECORD NAMES
              1      19       31.13       500      610      700      900      950      970     1000      129      960     1100   
                                          VAR    BASINP    GEOM    SYMINP    ZMAT    AOBASIS   BASIS     P2S    ABASIS      S 
                                         1400     1410     1200     1210     1080     1600     1650     1300     1700   
                                           T        V       H0       H01     AOSYM     SMH    MOLCAS    ERIS     OPER   

 PROGRAMS   *        TOTAL       INT
 CPU TIMES  *         0.30      0.19
 REAL TIME  *         0.53 SEC
 DISK USED  *        36.24 MB
 **********************************************************************************************************************************


 PROGRAM * RHF-SCF (CLOSED SHELL)       Authors: W. Meyer, H.-J. Werner


 NUMBER OF ELECTRONS:       8+    8-    SPACE SYMMETRY=1    SPIN SYMMETRY: Singlet 
 CONVERGENCE THRESHOLDS:    1.00E-05 (Density)    1.00E-07 (Energy)
 MAX. NUMBER OF ITERATIONS:       60
 INTERPOLATION TYPE:            DIIS
 INTERPOLATION STEPS:              2 (START)      1 (STEP)
 LEVEL SHIFTS:                  0.00 (CLOSED)  0.00 (OPEN) 



 Orbital guess generated from atomic densities. Full valence occupancy:    8

 Molecular orbital dump at record        2100.2

 Initial occupancy:   8

 ITERATION    DDIFF          GRAD             ENERGY        2-EL.EN.            DIPOLE MOMENTS         DIIS   ORB.
    1      0.000D+00      0.000D+00       -77.82748434    115.934266    0.01363    0.00579    0.00898    0    start
    2      0.000D+00      0.704D-02       -77.84548166    114.911975   -0.00054    0.00789    0.01414    1    diag
    3      0.753D-02      0.228D-02       -77.84756239    115.329725   -0.00116    0.00854    0.01516    2    diag
    4      0.295D-02      0.828D-03       -77.84800766    115.200960   -0.00383    0.00876    0.01640    3    diag
    5      0.160D-02      0.294D-03       -77.84814636    115.208546   -0.00424    0.00871    0.01653    4    diag
    6      0.986D-03      0.131D-03       -77.84819203    115.210204   -0.00535    0.00923    0.01813    5    diag
    7      0.602D-03      0.486D-04       -77.84819718    115.211259   -0.00387    0.00832    0.01608    6    diag
    8      0.194D-03      0.281D-04       -77.84819805    115.211827   -0.00465    0.00888    0.01737    7    diag
    9      0.779D-04      0.845D-05       -77.84819818    115.211996   -0.00448    0.00878    0.01714    8    diag
   10      0.344D-04      0.236D-05       -77.84819819    115.211967   -0.00446    0.00879    0.01715    9    orth
   11      0.659D-05      0.510D-06       -77.84819819    115.211973   -0.00446    0.00879    0.01715    0    orth

 Final occupancy:   8

 !RHF STATE  1.1 Energy               -77.848198187867
 Nuclear energy                        32.36309598
 One-electron energy                 -167.81728088
 Two-electron energy                   57.60598671
 Virial quotient                       -1.00124004
 !RHF STATE  1.1 Dipole moment         -0.00446123     0.00879087     0.01714715
 Dipole moment /Debye                  -0.01133858     0.02234270     0.04358086

 ELECTRON ORBITALS
 =================

  Orbital  Occupation    Energy     Coefficients
    1.1     2.00000   -11.26071     1 1s    0.97985
    2.1     2.00000   -11.25832     2 1s    0.97988
    3.1     2.00000    -1.03715     1 1s    0.28384     2 1s    0.28214
    4.1     2.00000    -0.78420     1 1s   -0.29203     2 1s    0.29372
    5.1     2.00000    -0.62233     1 2py   0.32765     2 2py   0.28654
    6.1     2.00000    -0.56095     1 2px   0.30205     2 2px  -0.29461
    7.1     2.00000    -0.39188     1 2pz   0.31007     1 2pz   0.28490     2 2pz   0.30666     2 2pz   0.28596
    8.1     2.00000    -0.38713     1 2px   0.28151     2 2px  -0.26522     4 1s   -0.28434     5 1s   -0.28694
    9.1     0.00000     0.06331     1 1s    0.39199     1 2pz   0.33355     1 2pz   0.47349     2 1s    0.40485     2 2pz  -0.32749
                                    2 2pz  -0.46354
   10.1     0.00000     0.23135     1 1s   -1.12582     1 2px   0.48662     1 2py   0.35078     1 2pz   0.44227     2 1s   -1.06464
                                    2 2px  -0.47705     2 2py  -0.38237     2 2pz  -0.42150     3 1s    0.61803     4 1s    1.08674
                                    5 1s    1.08524     6 1s    0.52553
   11.1     0.00000     0.28205     1 1s    1.49787     1 2py   0.35350     1 2pz  -0.41500     2 1s   -1.63659     2 2py   0.35928
                                    2 2pz  -0.50764     3 1s   -1.37297     6 1s    1.51498
   12.1     0.00000     0.31311     1 1s   -0.74873     1 2px   0.38051     1 2py  -1.08528     1 2pz   0.44277     2 1s   -0.74704
                                    2 2px  -0.41365     2 2py   0.94187     2 2pz  -0.46078     3 1s    1.62028     4 1s   -0.51899
                                    5 1s   -0.33687     6 1s    1.49365
   13.1     0.00000     0.33532     1 1s    1.08540     1 2px  -0.28615     1 2py  -0.69846     1 2pz  -0.33607     2 1s   -1.01537
                                    2 2px  -0.28473     2 2py  -0.81627     2 2pz  -0.29922     4 1s   -1.67531     5 1s    1.71403
   14.1     0.00000     0.42348     1 1s    2.04909     1 2px   1.77330     1 2py  -0.63862     1 2pz  -0.79922     2 1s   -2.01664
                                    2 2px   1.78845     2 2py  -0.62760     2 2pz  -0.78075     3 1s    0.60691     6 1s   -0.64406
   15.1     0.00000     0.70263     1 2px  -0.56275     1 2px   0.91931     2 2px   0.53678     2 2px  -0.93893     4 1s   -0.43853
                                    5 1s   -0.41683
   16.1     0.00000     0.75873     1 1s   -0.31834     1 2py  -0.35272     1 2px  -0.59304     1 2py   0.76627     2 1s    0.30429
                                    2 2py  -0.39888     2 2px  -0.64371     2 2py   0.81185     3 1s   -0.47512     5 1s   -0.25898
                                    6 1s    0.49599
   17.1     0.00000     0.78932     1 2py  -0.60530     1 2pz  -0.32669     1 2py   1.29494     1 2pz   0.31390     2 1s    0.27204
                                    2 2py   0.56271     2 2py  -1.16584     4 1s    0.30897     5 1s    0.25504
   18.1     0.00000     0.79990     1 2pz  -0.72442     1 2pz   0.70537     2 2pz  -0.73692     2 2pz   0.70641
   19.1     0.00000     0.86477     1 1s   -0.35023     1 2px  -0.25284     1 2pz  -0.67338     1 2px   0.46444     1 2py  -0.55235
                                    1 2pz   0.94490     2 1s   -0.35935     2 2pz   0.70082     2 2px  -0.44591     2 2py   0.52463
                                    2 2pz  -0.97506
   20.1     0.00000     0.97391     1 2px   0.70576     1 2py   0.36824     1 2px  -1.12470     1 2py  -0.76572     2 1s    0.27583
                                    2 2px   0.72703     2 2py   0.37305     2 2px  -1.17374     2 2py  -0.78164     4 1s   -1.07122
                                    5 1s    1.02253
   21.1     0.00000     1.11818     1 1s   -0.65684     1 1s    1.07611     1 2px   0.33473     1 2py   0.26192     1 2px  -0.54789
                                    2 1s   -0.64004     2 1s    1.29754     2 2py  -0.52191     2 2py   0.61876     3 1s   -0.32522
                                    4 1s    0.61280     4 1s   -1.03462     5 1s    0.66120     5 1s   -1.27720     6 1s   -0.26465
                                    6 1s    0.27958
   22.1     0.00000     1.13751     1 1s    0.44724     1 2px  -0.31525     1 2py   0.67195     1 2px   0.59295     1 2py  -1.01838
                                    2 2px  -0.45043     2 2py   0.50698     2 2px   0.78184     2 2py  -0.84829     3 1s   -0.49786
                                    3 1s    1.14726     4 1s    0.46417     4 1s   -0.93174     5 1s    0.40361     6 1s    0.48575
                                    6 1s   -1.22526
   23.1     0.00000     1.17852     1 1s   -0.32414     1 2px   0.27235     1 2pz   0.27803     1 2px  -0.78595     2 2py   0.25902
                                    2 2px  -0.71488     3 1s    0.72248     3 1s   -0.90280     4 1s    0.69623     4 1s   -0.71332
                                    5 1s   -0.64085     5 1s    0.89476     6 1s    0.25043
   24.1     0.00000     1.19195     1 1s   -0.42961     1 1s    0.80602     1 2py  -0.37163     1 2py   0.33848     2 1s   -0.82783
                                    2 1s    1.20336     2 2px  -0.32993     2 2pz  -0.27282     2 2px   0.53306     2 2py  -0.26338
                                    3 1s    0.54347     3 1s   -0.79592     4 1s   -0.28684     4 1s    0.32336     5 1s    0.30894
                                    5 1s   -0.45031     6 1s    0.81447     6 1s   -1.26778
   25.1     0.00000     1.25256     1 1s   -1.79850     1 1s    4.06928     1 2pz  -1.38172     2 1s   -0.36231     2 2px   0.96160
                                    2 2py  -0.79805     2 2pz   0.38304     3 1s   -0.31808     3 1s   -1.10429     4 1s   -0.37208
                                    4 1s   -0.67650     5 1s   -0.38327     6 1s   -0.37075     6 1s   -0.59834
   26.1     0.00000     1.29409     1 1s    0.97074     1 1s   -3.78383     1 2px  -1.37215     1 2py   0.90760     1 2pz   0.69266
                                    2 1s   -1.90298     2 1s    5.49918     2 2px  -0.89695     2 2py   0.50271     2 2pz   1.54177
                                    4 1s    0.44745     5 1s   -0.45461     5 1s   -0.72047     6 1s   -0.28905     6 1s   -0.75428
   27.1     0.00000     1.69609     1 1s    0.61419     1 3d0   0.36915     1 3d2- -0.29851     1 3d2+ -0.30317     2 1s   -0.54442
                                    2 3d0  -0.32641     2 3d2-  0.29917     2 3d2+  0.34853
   28.1     0.00000     1.91852     1 1s    0.26197     1 1s   -0.42611     1 2pz   0.28677     1 3d0   0.29318     1 3d1+  0.39783
                                    1 3d2+  0.36134     1 3d1-  0.34689     2 1s    0.37245     2 1s   -0.90510     2 2pz  -0.41525
                                    2 3d0   0.40648     2 3d1+  0.27831     2 3d2+  0.31813     2 3d1-  0.27949     3 1s    0.28036
                                    6 1s    0.28408     6 1s    0.27796
   29.1     0.00000     1.94144     1 1s    0.32250     1 1s   -1.39832     1 2px  -0.31840     1 2pz   0.36737     1 3d2-  0.30513
                                    1 3d1+ -0.34582     1 3d1- -0.32979     2 1s   -0.29236     2 1s    1.33814     2 2px  -0.31682
                                    2 2pz   0.34354     2 3d2- -0.29835     2 3d1+  0.43596     2 3d1-  0.43498     3 1s    0.33882
                                    6 1s   -0.31092
   30.1     0.00000     2.18263     1 1s    0.36880     1 1s   -1.68415     1 2px  -0.39283     1 2py   0.26370     1 2pz   0.45393
                                    1 3d0   0.60587     1 3d2+  0.37060     2 1s   -0.32319     2 1s    1.61339     2 2px  -0.37091
                                    2 2py   0.29039     2 2pz   0.43120     2 3d0  -0.52429     2 3d2+ -0.33967     3 1s    0.36508
                                    4 1s    0.35682     5 1s   -0.30738     6 1s   -0.34081
   31.1     0.00000     2.25066     1 1s    0.50047     1 1s   -0.34753     1 2px   0.26154     1 2px  -0.29979     1 3d2-  0.31006
                                    1 3d1+  0.38079     1 3d2+ -0.39611     2 1s    0.48814     2 1s   -0.29398     2 2px  -0.26087
                                    2 2px   0.29438     2 3d2-  0.29255     2 3d1+  0.39107     2 3d2+ -0.38305
   32.1     0.00000     2.34932     1 2py   0.36594     1 3d0   0.48310     1 3d2- -0.36706     1 3d1- -0.36830     2 2py  -0.36219
                                    2 3d0   0.54146     2 3d2- -0.36844     2 3d1- -0.36019     3 1s   -0.29154     4 1s    0.38594
                                    5 1s    0.41278     6 1s   -0.26113
   33.1     0.00000     2.58116     1 1s    0.29167     1 2py  -0.33819     1 3d2-  0.46167     1 3d1-  0.64333     2 1s   -0.27502
                                    2 2py  -0.25500     2 3d2- -0.49858     2 3d1- -0.55034     3 1s    0.50225     4 1s   -0.43283
                                    5 1s    0.38897     6 1s   -0.47200
   34.1     0.00000     2.64430     1 2py  -0.30830     1 3d2- -0.47835     1 3d2+ -0.52221     1 3d1-  0.47085     2 2py   0.32856
                                    2 3d2- -0.41259     2 3d2+ -0.51368     2 3d1-  0.53346     4 1s   -0.34449     5 1s   -0.37316
   35.1     0.00000     2.72081     1 3d0  -0.41778     1 3d2- -0.47187     1 3d1+  0.48034     1 3d1- -0.26510     2 3d0  -0.39699
                                    2 3d2- -0.49415     2 3d1+  0.51389     2 3d1- -0.28333     3 1s   -0.45854     6 1s   -0.48874
   36.1     0.00000     2.95998     1 1s   -1.72373     1 2px  -0.43642     1 2px  -0.87134     1 2pz   0.44218     1 3d2-  0.34183
                                    1 3d1+  0.69719     1 3d2+ -0.64448     2 1s    1.71450     2 2px  -0.43540     2 2px  -0.87677
                                    2 2pz   0.43723     2 3d2- -0.35172     2 3d1+ -0.69568     2 3d2+  0.64499


 HOMO      8.1    -0.387130 =     -10.5343eV
 LUMO      9.1     0.063309 =       1.7227eV
 LUMO-HOMO         0.450438 =      12.2570eV


 **********************************************************************************************************************************
 DATASETS  * FILE   NREC   LENGTH (MB)   RECORD NAMES
              1      19       31.13       500      610      700      900      950      970     1000      129      960     1100   
                                          VAR    BASINP    GEOM    SYMINP    ZMAT    AOBASIS   BASIS     P2S    ABASIS      S 
                                         1400     1410     1200     1210     1080     1600     1650     1300     1700   
                                           T        V       H0       H01     AOSYM     SMH    MOLCAS    ERIS     OPER   

              2       4        2.86       700     1000      520     2100   
                                         GEOM     BASIS   MCVARS     RHF  

 PROGRAMS   *        TOTAL    HF-SCF       INT
 CPU TIMES  *         0.41      0.11      0.19
 REAL TIME  *         0.79 SEC
 DISK USED  *        36.24 MB
 **********************************************************************************************************************************


 PROGRAM * MULTI (Direct Multiconfiguration SCF)       Authors: P.J. Knowles, H.-J. Werner (1984)


 Number of closed-shell orbitals:   7 (   7 )
 Number of active  orbitals:        2 (   2 )
 Number of external orbitals:      27 (  27 )

 State symmetry 1

 Number of electrons:     2    Spin symmetry=Singlet   Space symmetry=1
 Number of states:        3
 Number of CSFs:          3   (4 determinants, 4 intermediate states)

 Molecular orbitals read from record     2100.2  Type=RHF/CANONICAL (state 1.1)

 Wavefunction dump at record             2140.2

 Convergence thresholds  0.10E-01 (gradient)  0.10E-05 (energy)  0.10E-02 (step length)

 Weight factors for state symmetry  1:    0.33333   0.33333   0.33333

 Number of orbital rotations:      257   (    14 Core/Active    189 Core/Virtual   0 Active/Active     54 Active/Virtual)
 Total number of variables:        269

 Micro-Iterations solved by the two-step solver

 ITER. MIC  NCI  NEG     ENERGY(VAR)     ENERGY(PROJ)   ENERGY CHANGE     GRAD(0)  GRAD(ORB)   GRAD(CI)     STEP       TIME

   1   10    5    0     -77.69145140     -77.71114276   -0.01969136    0.16721996 0.00184844 0.00000000  0.14D+00      0.13
   2    7    5    0     -77.71084062     -77.71086071   -0.00002010    0.00661239 0.00000452 0.00000000  0.46D-02      0.24
   3    5    4    0     -77.71086074     -77.71086074   -0.00000000    0.00001321 0.00000000 0.00000000  0.18D-04      0.31

 ** WVFN ****  CONVERGENCE REACHED, FINAL GRADIENT:  0.17D-09



 Results for state 1.1
 =====================

 !MCSCF STATE  1.1 Energy             -77.841817664486
 Nuclear energy                        32.36309598
 Kinetic energy                        77.80751130
 One electron energy                 -167.89354246
 Two electron energy                   57.68862882
 Virial ratio                           2.00044091

 !MCSCF STATE  1.1 Dipole moment       -0.01156877     0.01169892     0.01454844
 Dipole moment /Debye                  -0.02940296     0.02973374     0.03697603

 Results for state 2.1
 =====================

 !MCSCF STATE  2.1 Energy             -77.738544544227
 Nuclear energy                        32.36309598
 Kinetic energy                        77.88341690
 One electron energy                 -167.58914005
 Two electron energy                   57.48749953
 Virial ratio                           1.99813988

 !MCSCF STATE  2.1 Dipole moment        0.00310658     0.01250812     0.01534020
 Dipole moment /Debye                   0.00789561     0.03179039     0.03898836

 Results for state 3.1
 =====================

 !MCSCF STATE  3.1 Energy             -77.552220018374
 Nuclear energy                        32.36309598
 Kinetic energy                        77.94513437
 One electron energy                 -167.33141181
 Two electron energy                   57.41609581
 Virial ratio                           1.99495909

 !MCSCF STATE  3.1 Dipole moment        0.01248937     0.01231426     0.01593952
 Dipole moment /Debye                   0.03174275     0.03129767     0.04051156

 State-averaged charge density matrix saved on record  2140.2 (density set 1)

 !MCSCF expec         <1.1|DMX|1.1>    -0.011568770756 au =    -0.029402956378 Debye
 !MCSCF trans         <2.1|DMX|1.1>     0.011000152847 au =     0.027957768474 Debye
 !MCSCF expec         <2.1|DMX|2.1>     0.003106576694 au =     0.007895613194 Debye
 !MCSCF trans         <3.1|DMX|1.1>    -0.002025339780 au =    -0.005147563079 Debye
 !MCSCF trans         <3.1|DMX|2.1>     0.013024804984 au =     0.033103583850 Debye
 !MCSCF expec         <3.1|DMX|3.1>     0.012489374824 au =     0.031742745264 Debye

 !MCSCF expec         <1.1|DMY|1.1>     0.011698919171 au =     0.029733738987 Debye
 !MCSCF trans         <2.1|DMY|1.1>     0.002160452410 au =     0.005490962635 Debye
 !MCSCF expec         <2.1|DMY|2.1>     0.012508120258 au =     0.031790388285 Debye
 !MCSCF trans         <3.1|DMY|1.1>    -0.000197065389 au =    -0.000500857452 Debye
 !MCSCF trans         <3.1|DMY|2.1>     0.002399671401 au =     0.006098956840 Debye
 !MCSCF expec         <3.1|DMY|3.1>     0.012314258429 au =     0.031297672938 Debye

 !MCSCF expec         <1.1|DMZ|1.1>     0.014548442809 au =     0.036976031275 Debye
 !MCSCF trans         <2.1|DMZ|1.1>     0.000390086098 au =     0.000991435024 Debye
 !MCSCF expec         <2.1|DMZ|2.1>     0.015340204845 au =     0.038988357829 Debye
 !MCSCF trans         <3.1|DMZ|1.1>    -0.000098094283 au =    -0.000249314467 Debye
 !MCSCF trans         <3.1|DMZ|2.1>     0.000482620774 au =     0.001226619306 Debye
 !MCSCF expec         <3.1|DMZ|3.1>     0.015939518091 au =     0.040511560389 Debye


 NATURAL ORBITALS (state averaged)
 =================================

  Orbital  Occupation    Energy     Coefficients
    1.1     2.00000   -11.25494     1 1s    0.95266     2 1s    0.29141
    2.1     2.00000   -11.25361     1 1s   -0.29149     2 1s    0.95269
    3.1     2.00000    -1.04989     1 1s    0.27842     2 1s    0.27745
    4.1     2.00000    -0.78509     1 1s   -0.31758     2 1s    0.31846
    5.1     2.00000    -0.62527     1 2py   0.32115     2 2py   0.28038
    6.1     2.00000    -0.55929     1 2px   0.25989     2 2px  -0.25689     2 2py   0.26142
    7.1     2.00000    -0.41934     1 2pz   0.32337     1 2pz   0.27847     2 2pz   0.32653     2 2pz   0.28280
    8.1     1.00000    -0.08683     1 1s    0.26149     1 2pz   0.40861     1 2pz   0.43342     2 1s    0.27413     2 2pz  -0.40018
                                    2 2pz  -0.42563
    9.1     1.00000    -0.23070     1 2px   0.31457     2 2px  -0.30546     4 1s   -0.29354     5 1s   -0.29513
   10.1    -0.00000     0.21936     1 1s   -1.12404     1 2px   0.48126     1 2py   0.36738     1 2pz   0.38090     2 1s   -1.08312
                                    2 2px  -0.47475     2 2py  -0.39626     2 2pz  -0.36692     3 1s    0.57694     4 1s    1.09236
                                    5 1s    1.09953     6 1s    0.50316
   11.1    -0.00000     0.28102     1 1s    1.58845     1 2py   0.27878     1 2pz  -0.43503     2 1s   -1.72780     2 2py   0.29934
                                    2 2pz  -0.52283     3 1s   -1.35560     6 1s    1.50979
   12.1    -0.00000     0.31538     1 1s   -0.58481     1 2py  -0.26016     1 2px   0.34875     1 2py  -1.21594     1 2pz   0.34445
                                    2 1s   -0.96841     2 2px  -0.42856     2 2py   0.73595     2 2pz  -0.48511     3 1s    1.64062
                                    4 1s   -0.79781     6 1s    1.41735
   13.1    -0.00000     0.31988     1 1s    1.23261     1 2py  -0.55683     1 2pz  -0.42515     2 1s   -0.82589     2 2py  -0.27674
                                    2 2py  -1.06196     4 1s   -1.57030     5 1s    1.74127     6 1s   -0.52250
   14.1    -0.00000     0.42965     1 1s    1.91002     1 2px   1.78457     1 2py  -0.53277     1 2pz  -0.74012     2 1s   -1.87915
                                    2 2px   1.80078     2 2py  -0.52076     2 2pz  -0.72441     3 1s    0.60664     6 1s   -0.64523
   15.1    -0.00000     0.69925     1 2px  -0.54768     1 2px   0.89145     2 2px   0.52184     2 2px  -0.92000     4 1s    0.25299
                                    4 1s   -0.49634     5 1s   -0.47339
   16.1    -0.00000     0.75576     1 1s   -0.42682     1 2py  -0.34175     1 2px  -0.63930     1 2py   0.77818     2 1s    0.41281
                                    2 2py  -0.38927     2 2px  -0.69546     2 2py   0.83346     3 1s   -0.47025     5 1s   -0.27564
                                    6 1s    0.49424
   17.1    -0.00000     0.78847     1 2py  -0.57997     1 2pz  -0.32324     1 2py   1.28154     1 2pz   0.38392     2 1s    0.25263
                                    2 2py   0.53783     2 2py  -1.14105     4 1s    0.31365     5 1s    0.25624
   18.1    -0.00000     0.79997     1 1s   -0.38189     1 2pz  -0.72273     1 2pz   0.77002     2 1s    0.34546     2 2pz  -0.73105
                                    2 2pz   0.77131
   19.1    -0.00000     0.86289     1 1s   -0.30767     1 2px  -0.26670     1 2pz  -0.64544     1 2px   0.49987     1 2py  -0.56110
                                    1 2pz   0.99594     2 1s   -0.31638     2 2pz   0.67875     2 2px  -0.48354     2 2py   0.52859
                                    2 2pz  -1.03352     3 1s    0.27658     6 1s    0.27884
   20.1    -0.00000     0.98059     1 2px   0.70238     1 2py   0.37329     1 2px  -1.04497     1 2py  -0.78188     2 2px   0.72452
                                    2 2py   0.38139     2 2px  -1.09246     2 2py  -0.80352     4 1s   -1.03204     5 1s    0.98958
   21.1    -0.00000     1.09289     1 1s   -0.62323     1 1s    1.04114     1 2px   0.32124     1 2py   0.36186     1 2px  -0.47164
                                    1 2py  -0.31406     2 1s   -0.64927     2 1s    1.26505     2 2py  -0.47368     2 2py   0.54682
                                    4 1s    0.65953     4 1s   -1.10129     5 1s    0.65864     5 1s   -1.20220
   22.1    -0.00000     1.12334     1 1s    0.27147     1 2py   0.61992     1 2py  -0.85966     2 2px  -0.28402     2 2py   0.58625
                                    2 2py  -0.78859     3 1s    0.66364     4 1s    0.70952     4 1s   -1.13327     5 1s   -0.58974
                                    5 1s    1.00699     6 1s    0.27747     6 1s   -0.72563
   23.1    -0.00000     1.15854     1 1s   -0.38975     1 2px   0.37966     1 2px  -1.02478     1 2py   0.52666     2 1s    0.40231
                                    2 2px   0.37224     2 2px  -1.14044     2 2py   0.49096     3 1s    0.70018     3 1s   -1.17316
                                    4 1s    0.43760     4 1s   -0.30806     5 1s   -0.47373     5 1s    0.56563     6 1s   -0.47736
                                    6 1s    1.15189
   24.1    -0.00000     1.19467     1 1s   -0.39554     1 1s    0.49561     1 2px   0.25562     1 2py  -0.34288     1 2px  -0.25713
                                    1 2py   0.32717     2 1s   -0.68117     2 1s    1.15045     2 2px  -0.30071     2 2py   0.29694
                                    3 1s    0.74781     3 1s   -0.92795     6 1s    0.81900     6 1s   -1.11591
   25.1    -0.00000     1.24435     1 1s   -1.80606     1 1s    3.99790     1 2py   0.30453     1 2pz  -1.34408     2 1s   -0.52455
                                    2 2px   0.96700     2 2py  -0.76852     2 2pz   0.46780     3 1s   -0.29324     3 1s   -1.16666
                                    4 1s   -0.37298     4 1s   -0.64800     5 1s   -0.33591     6 1s   -0.34423     6 1s   -0.69292
   26.1    -0.00000     1.28697     1 1s    1.04037     1 1s   -3.93228     1 2px  -1.38395     1 2py   0.87137     1 2pz   0.73437
                                    2 1s   -1.90900     2 1s    5.53633     2 2px  -0.93754     2 2py   0.50238     2 2pz   1.51320
                                    4 1s    0.43166     5 1s   -0.42535     5 1s   -0.71799     6 1s   -0.26841     6 1s   -0.75186
   27.1    -0.00000     1.69078     1 1s    0.64175     1 3d0   0.36242     1 3d2- -0.30225     1 3d2+ -0.30519     2 1s   -0.57217
                                    2 3d0  -0.32054     2 3d2-  0.30345     2 3d2+  0.35050
   28.1    -0.00000     1.91585     1 1s    0.25635     1 1s   -0.43510     1 2pz   0.28664     1 3d0   0.29231     1 3d1+  0.39077
                                    1 3d2+  0.36746     1 3d1-  0.34247     2 1s    0.35825     2 1s   -0.87340     2 2pz  -0.40365
                                    2 3d0   0.40411     2 3d1+  0.27758     2 3d2+  0.32719     2 3d1-  0.28322     3 1s    0.27810
                                    6 1s    0.28054     6 1s    0.27376
   29.1    -0.00000     1.93821     1 1s    0.31208     1 1s   -1.36107     1 2px  -0.30946     1 2pz   0.35553     1 3d2-  0.30291
                                    1 3d1+ -0.35301     1 3d1- -0.33181     2 1s   -0.28923     2 1s    1.31485     2 2px  -0.30550
                                    2 2pz   0.33866     2 3d2- -0.29652     2 3d1+  0.43592     2 3d1-  0.43117     3 1s    0.33898
                                    6 1s   -0.31492
   30.1    -0.00000     2.18280     1 1s    0.36807     1 1s   -1.66811     1 2px  -0.38521     1 2py   0.26499     1 2pz   0.44621
                                    1 3d0   0.60777     1 3d2+  0.37644     2 1s   -0.33082     2 1s    1.60434     2 2px  -0.36733
                                    2 2py   0.29334     2 2pz   0.42692     2 3d0  -0.52892     2 3d2+ -0.33889     3 1s    0.36359
                                    4 1s    0.35254     5 1s   -0.30113     6 1s   -0.34011
   31.1    -0.00000     2.24598     1 1s    0.49912     1 1s   -0.36839     1 2px   0.26770     1 2px  -0.29550     1 3d2-  0.32449
                                    1 3d1+  0.39139     1 3d2+ -0.39076     2 1s    0.47938     2 1s   -0.28254     2 2px  -0.26739
                                    2 2px   0.28256     2 3d2-  0.30498     2 3d1+  0.39770     2 3d2+ -0.38550
   32.1    -0.00000     2.34326     1 2py   0.38179     1 3d0   0.48271     1 3d2- -0.35954     1 3d1- -0.38000     2 2py  -0.37833
                                    2 3d0   0.54230     2 3d2- -0.36456     2 3d1- -0.37496     3 1s   -0.30343     4 1s    0.37369
                                    5 1s    0.40167     6 1s   -0.27602
   33.1    -0.00000     2.57580     1 1s    0.27635     1 2py  -0.33806     1 3d2-  0.46487     1 3d1-  0.64307     2 1s   -0.25992
                                    2 2py  -0.25535     2 3d2- -0.50096     2 3d1- -0.55288     3 1s    0.50529     4 1s   -0.42218
                                    5 1s    0.38104     6 1s   -0.47623
   34.1    -0.00000     2.63599     1 2py  -0.31559     1 3d2- -0.48239     1 3d2+ -0.51760     1 3d1-  0.47508     2 2py   0.33324
                                    2 3d2- -0.41901     2 3d2+ -0.50905     2 3d1-  0.53384     4 1s   -0.33797     5 1s   -0.36269
   35.1    -0.00000     2.72571     1 3d0  -0.42547     1 3d2- -0.46284     1 3d1+  0.48531     1 3d1- -0.26543     2 3d0  -0.40503
                                    2 3d2- -0.48239     2 3d1+  0.51857     2 3d1- -0.28146     3 1s   -0.45757     6 1s   -0.48567
   36.1    -0.00000     2.95558     1 1s   -1.75425     1 2px  -0.43022     1 2px  -0.88370     1 2pz   0.45025     1 3d2-  0.33944
                                    1 3d1+  0.70065     1 3d2+ -0.64179     2 1s    1.74481     2 2px  -0.42912     2 2px  -0.88875
                                    2 2pz   0.44517     2 3d2- -0.34972     2 3d1+ -0.69796     2 3d2+  0.64224


 Natural orbital dump (state averaged) at molpro section  2140.2    (Orbital set 2)



 **********************************************************************************************************************************
 DATASETS  * FILE   NREC   LENGTH (MB)   RECORD NAMES
              1      20       31.86       500      610      700      900      950      970     1000      129      960     1100   
                                          VAR    BASINP    GEOM    SYMINP    ZMAT    AOBASIS   BASIS     P2S    ABASIS      S 
                                         1400     1410     1200     1210     1080     1600     1650     1300     1700     1380   
                                           T        V       H0       H01     AOSYM     SMH    MOLCAS    ERIS     OPER     JKOP   

              2       5        5.42       700     1000      520     2100     2140   
                                         GEOM     BASIS   MCVARS     RHF     MCSCF   

 PROGRAMS   *        TOTAL     MULTI    HF-SCF       INT
 CPU TIMES  *         0.78      0.37      0.11      0.19
 REAL TIME  *         1.19 SEC
 DISK USED  *        39.04 MB
 **********************************************************************************************************************************
 Molecular orbitals read from record     2140.2  Type=MCSCF/NATURAL (state averaged)
 Occupation numbers read from record     2140.2  Type=MCSCF/NATURAL (state averaged)
 Orbital energies read from record       2140.2  Type=MCSCF/NATURAL (state averaged)
 Redundancy group numbers read from rec  2140.2  Type=MCSCF/NATURAL (state averaged)

 MULTI/6-31G* energy=    -77.552220018374

           MULTI          HF-SCF
    -77.55222002    -77.84819819
 **********************************************************************************************************************************
 Molpro calculation terminated
