
 Primary working directories    : /scratch.local/johan406.molpro_temp/molpro.xxIrG0GNwU
 Secondary working directories  : /scratch.local/johan406.molpro_temp/molpro.xxIrG0GNwU
 Wavefunction directory         : /home/goodpast/johan406/wfu/
 Main file repository           : /scratch.local/johan406.molpro_temp/molpro.xxIrG0GNwU/

 id        : roweumn

 Nodes     nprocs
 acn09        1

 Using customized tuning parameters: mindgm=1; mindgv=20; mindgc=4; mindgr=1; noblas=0; minvec=7
 default implementation of scratch files=df  


 Variables initialized (934), CPU time= 0.00 sec
                                                                                 !leave this line blank
 
 gprint, orbitals=30
 memory, 125., m
 symmetry, nosym
 nelect=16
 basis=6-31g*
 
 geometry={
 C -0.6409 0.1329 0.2939
 C 0.621 -0.1924 -0.3638
 H -1.1855 0.9996 -0.0998
 H -0.8782 -0.8998 -0.1494
 H 1.0551 0.7827 0.065
 H 1.3576 -0.8431 0.1497
 }
 
 hf
 {multi,
 closed 7
 occ 9
 wf,spin=0;STATE,3
 }
 
 Commands  initialized (763), CPU time= 0.01 sec, 617 directives.
 Default parameters read. Elapsed time= 0.08 sec

 Checking input...
 Passed
1


                                         ***  PROGRAM SYSTEM MOLPRO  ***
                                       Copyright, TTI GmbH Stuttgart, 2015
                                    Version 2019.2 linked Oct 25 2019 22:50:27


 **********************************************************************************************************************************
 LABEL *                                                                                 
  64 bit serial version                                                                  DATE: 07-Feb-23          TIME: 15:21:45  
 **********************************************************************************************************************************

 SHA1:             8dbd9ae1082e4ce945b0f27595c9eb2d4aa09004
 **********************************************************************************************************************************


 Variable memory set to  125000000 words,  buffer space 

 SETTING NELECT         =        16.00000000                                  
 SETTING BASIS          =    6-31G*
 ZSYMEL=NOSYM


Geometry recognized as XYZ



 Recomputing integrals since basis changed


 Using spherical harmonics

 Library entry C      S 6-31G                selected for orbital group  1
 Library entry C      P 6-31G                selected for orbital group  1
 Library entry C      D 6-31G*               selected for orbital group  1
 Library entry H      S 6-31G                selected for orbital group  2


 PROGRAM * SEWARD (Integral evaluation for generally contracted gaussian basis sets)     Author: Roland Lindh, 1990

 Geometry written to block  1 of record 700


 Point group  C1  



 ATOMIC COORDINATES

 NR  ATOM    CHARGE       X              Y              Z

   1  C       6.00   -1.211125473    0.251144602    0.555390508
   2  C       6.00    1.173519923   -0.363583306   -0.687482364
   3  H       1.00   -2.240270321    1.888970234   -0.188594667
   4  H       1.00   -1.659557483   -1.700375567   -0.282325083
   5  H       1.00    1.993850034    1.479088638    0.122832198
   6  H       1.00    2.565492187   -1.593228096    0.282892001

 Bond lengths in Bohr (Angstrom)

 1-2  2.758470055  1-3  2.072468542  1-4  2.170550540  2-5  2.173704459  2-6  2.095528453
     ( 1.459719490)     ( 1.096703123)     ( 1.148605881)     ( 1.150274863)     ( 1.108905902)

 Bond angles

  1-2-5   88.24472770   1-2-6  119.75969695   2-1-3  116.33707137   2-1-4   78.71689271

  3-1-4  117.99466958   5-2-6   94.25098546

 NUCLEAR CHARGE:                   16
 NUMBER OF PRIMITIVE AOS:          72
 NUMBER OF SYMMETRY AOS:           70
 NUMBER OF CONTRACTIONS:           36   (   36A   )
 NUMBER OF CORE ORBITALS:           2   (    2A   )
 NUMBER OF VALENCE ORBITALS:       12   (   12A   )


 NUCLEAR REPULSION ENERGY   32.28554808

 Eigenvalues of metric

         1 0.929E-02 0.284E-01 0.605E-01 0.619E-01 0.828E-01 0.221E+00 0.237E+00 0.273E+00


 Contracted 2-electron integrals neglected if value below      1.0D-11
 AO integral compression algorithm  1   Integral accuracy      1.0D-11

     1.573 MB (compressed) written to integral file ( 59.2%)


 NUMBER OF SORTED TWO-ELECTRON INTEGRALS:     222111.     BUFFER LENGTH:  32768
 NUMBER OF SEGMENTS:   1  SEGMENT LENGTH:     222111      RECORD LENGTH: 524288

 Memory used in sort:       0.78 MW

 SORT1 READ      284735. AND WROTE      212531. INTEGRALS IN      1 RECORDS. CPU TIME:     0.00 SEC, REAL TIME:     0.01 SEC
 SORT2 READ      212531. AND WROTE      222111. INTEGRALS IN      6 RECORDS. CPU TIME:     0.02 SEC, REAL TIME:     0.03 SEC

 FILE SIZES:   FILE 1:    31.7 MBYTE,  FILE 4:     4.2 MBYTE,   TOTAL:     35.9 MBYTE

 OPERATOR DM      FOR CENTER  0  COORDINATES:    0.000000    0.000000    0.000000


 **********************************************************************************************************************************
 DATASETS  * FILE   NREC   LENGTH (MB)   RECORD NAMES
              1      19       31.13       500      610      700      900      950      970     1000      129      960     1100   
                                          VAR    BASINP    GEOM    SYMINP    ZMAT    AOBASIS   BASIS     P2S    ABASIS      S 
                                         1400     1410     1200     1210     1080     1600     1650     1300     1700   
                                           T        V       H0       H01     AOSYM     SMH    MOLCAS    ERIS     OPER   

 PROGRAMS   *        TOTAL       INT
 CPU TIMES  *         0.29      0.18
 REAL TIME  *         0.55 SEC
 DISK USED  *        36.24 MB
 **********************************************************************************************************************************


 PROGRAM * RHF-SCF (CLOSED SHELL)       Authors: W. Meyer, H.-J. Werner


 NUMBER OF ELECTRONS:       8+    8-    SPACE SYMMETRY=1    SPIN SYMMETRY: Singlet 
 CONVERGENCE THRESHOLDS:    1.00E-05 (Density)    1.00E-07 (Energy)
 MAX. NUMBER OF ITERATIONS:       60
 INTERPOLATION TYPE:            DIIS
 INTERPOLATION STEPS:              2 (START)      1 (STEP)
 LEVEL SHIFTS:                  0.00 (CLOSED)  0.00 (OPEN) 



 Orbital guess generated from atomic densities. Full valence occupancy:    8

 Molecular orbital dump at record        2100.2

 Initial occupancy:   8

 ITERATION    DDIFF          GRAD             ENERGY        2-EL.EN.            DIPOLE MOMENTS         DIIS   ORB.
    1      0.000D+00      0.000D+00       -77.81867170    115.786069    0.07215    0.03116    0.04641    0    start
    2      0.000D+00      0.702D-02       -77.83669461    114.761342   -0.00016    0.04017    0.07020    1    diag
    3      0.757D-02      0.229D-02       -77.83879645    115.183092   -0.00370    0.04415    0.07624    2    diag
    4      0.297D-02      0.831D-03       -77.83924665    115.052307   -0.01683    0.04486    0.08156    3    diag
    5      0.162D-02      0.292D-03       -77.83937698    115.059973   -0.01966    0.04511    0.08317    4    diag
    6      0.973D-03      0.128D-03       -77.83941480    115.061722   -0.02279    0.04632    0.08752    5    diag
    7      0.477D-03      0.695D-04       -77.83942368    115.062299   -0.02065    0.04488    0.08478    6    diag
    8      0.240D-03      0.352D-04       -77.83942566    115.063273   -0.02089    0.04531    0.08589    7    diag
    9      0.128D-03      0.104D-04       -77.83942589    115.063519   -0.02057    0.04519    0.08566    8    diag
   10      0.477D-04      0.332D-05       -77.83942590    115.063502   -0.02045    0.04521    0.08561    9    orth
   11      0.112D-04      0.862D-06       -77.83942591    115.063498   -0.02041    0.04521    0.08559    9    diag
   12      0.258D-05      0.251D-06       -77.83942591    115.063499   -0.02041    0.04522    0.08560    0    orth

 Final occupancy:   8

 !RHF STATE  1.1 Energy               -77.839425905205
 Nuclear energy                        32.28554808
 One-electron energy                 -167.65672373
 Two-electron energy                   57.53174975
 Virial quotient                       -1.00162137
 !RHF STATE  1.1 Dipole moment         -0.02040784     0.04521978     0.08559908
 Dipole moment /Debye                  -0.05186816     0.11492970     0.21755690

 ELECTRON ORBITALS
 =================

  Orbital  Occupation    Energy     Coefficients
    1.1     2.00000   -11.26672     1 1s    0.99556
    2.1     2.00000   -11.25559     2 1s    0.99559
    3.1     2.00000    -1.03749     1 1s    0.28684     2 1s    0.27868     2 1s    0.25089
    4.1     2.00000    -0.78189     1 1s   -0.29201     2 1s    0.29992
    5.1     2.00000    -0.63051     1 2py   0.36920
    6.1     2.00000    -0.54784     1 2px   0.30598     2 2px  -0.27674     2 2py   0.28949
    7.1     2.00000    -0.39217     1 2pz   0.30100     1 2pz   0.27208     2 2pz   0.30249     2 2pz   0.28693
    8.1     2.00000    -0.38440     1 2px   0.29429     4 1s   -0.27572     5 1s   -0.29467
    9.1     0.00000     0.06305     1 1s    0.37202     1 2pz   0.34422     1 2pz   0.48841     2 1s    0.43856     2 2pz  -0.31365
                                    2 2pz  -0.43766
   10.1     0.00000     0.22659     1 1s   -1.19937     1 2px   0.47574     1 2py   0.28634     1 2pz   0.45471     2 1s   -0.87109
                                    2 2px  -0.41943     2 2py  -0.43368     2 2pz  -0.34308     3 1s    0.75291     4 1s    1.06271
                                    5 1s    1.03821     6 1s    0.27972
   11.1     0.00000     0.27822     1 1s    1.20966     1 2py   0.30932     2 1s   -1.86424     2 2py   0.29696     2 2pz  -0.67671
                                    3 1s   -1.06068     5 1s    0.27434     6 1s    1.70693
   12.1     0.00000     0.31162     1 1s   -0.69175     1 2py  -0.27309     1 2px   0.30198     1 2py  -1.29954     1 2pz   0.37606
                                    2 1s   -0.65489     2 2px  -0.45016     2 2py   0.64798     2 2pz  -0.45385     3 1s    1.77398
                                    4 1s   -0.85469     6 1s    1.18529
   13.1     0.00000     0.33418     1 1s    1.10677     1 2px  -0.30075     1 2py  -0.44388     1 2pz  -0.36006     2 1s   -0.80690
                                    2 2py  -0.26539     2 2px  -0.31081     2 2py  -0.97595     3 1s   -0.33399     4 1s   -1.54738
                                    5 1s    1.72724     6 1s   -0.26500
   14.1     0.00000     0.42245     1 1s    2.15472     1 2px   1.73277     1 2py  -0.65473     1 2pz  -0.84591     2 1s   -1.99670
                                    2 2px   1.80450     2 2py  -0.61015     2 2pz  -0.75621     3 1s    0.48970     4 1s   -0.31320
                                    6 1s   -0.67567
   15.1     0.00000     0.70238     1 2px  -0.60567     1 2px   0.86424     2 2px   0.48479     2 2pz  -0.27975     2 2px  -0.97005
                                    4 1s   -0.48753     5 1s   -0.38095     6 1s    0.30020
   16.1     0.00000     0.76610     1 1s   -0.31914     1 2px  -0.46690     1 2py   0.55910     2 2px   0.28641     2 2py  -0.50043
                                    2 2px  -0.70577     2 2py   0.90209     3 1s   -0.41742     5 1s   -0.31436     6 1s    0.52657
   17.1     0.00000     0.79160     1 2py  -0.59699     1 2pz  -0.61878     1 2px  -0.25405     1 2py   1.37087     1 2pz   0.65885
                                    2 1s    0.38820     2 2py   0.35584     2 2py  -0.69377     4 1s    0.38288
   18.1     0.00000     0.80170     1 2py  -0.31648     1 2pz   0.57387     1 2py   0.68780     1 2pz  -0.55179     2 2py   0.32821
                                    2 2pz   0.69297     2 2py  -0.66376     2 2pz  -0.63623     3 1s   -0.25117
   19.1     0.00000     0.86594     1 1s   -0.33637     1 2px  -0.31286     1 2pz  -0.61516     1 2px   0.51361     1 2py  -0.62494
                                    1 2pz   0.86772     2 1s   -0.37512     2 2pz   0.74275     2 2px  -0.40323     2 2py   0.47767
                                    2 2pz  -1.01431
   20.1     0.00000     0.97178     1 2px   0.65081     1 2py   0.35080     1 2px  -0.96448     1 2py  -0.74218     2 1s   -0.34648
                                    2 1s    0.38838     2 2px   0.76066     2 2py   0.37623     2 2px  -1.20772     2 2py  -0.82265
                                    4 1s   -1.13859     5 1s    0.90364
   21.1     0.00000     1.09552     1 1s   -0.39583     1 2px   0.45908     1 2px  -0.91628     2 1s   -0.45129     2 1s    1.34200
                                    2 2py  -0.55748     2 2px  -0.45835     2 2py   0.89794     3 1s    0.35008     3 1s   -0.74449
                                    4 1s    0.67996     4 1s   -0.79577     5 1s    0.49157     5 1s   -1.02131     6 1s   -0.31581
                                    6 1s    0.74680
   22.1     0.00000     1.12747     1 1s    0.26658     1 1s   -0.95898     1 2py   0.45230     1 2px  -0.30346     1 2py  -0.65801
                                    1 2pz   0.33678     2 1s    0.69741     2 2px  -0.29974     2 2py   0.51628     2 2px  -0.25241
                                    2 2py  -0.45497     3 1s    0.26885     3 1s    0.36962     4 1s    0.77041     4 1s   -0.92266
                                    5 1s   -0.40505     5 1s    0.88032     6 1s    0.58239     6 1s   -0.75478
   23.1     0.00000     1.15058     1 1s    0.52949     1 1s   -1.58152     1 2px   0.26525     1 2py  -0.52412     1 2px  -0.69348
                                    1 2py   0.71212     1 2pz   0.51459     2 1s    0.58295     2 1s   -0.46045     2 2px   0.41179
                                    2 2px  -1.28372     2 2py   0.36473     2 2pz  -0.25635     3 1s    0.84266     3 1s   -0.94621
                                    4 1s    0.70300     5 1s   -0.40820     5 1s    0.83067     6 1s    0.91253
   24.1     0.00000     1.19077     1 1s   -0.77257     1 1s    1.45303     1 2py  -0.44661     1 2py   0.49646     1 2pz  -0.36870
                                    2 1s   -1.01571     2 1s    1.45803     2 2px  -0.30493     2 2pz  -0.29772     2 2px   0.68813
                                    2 2py  -0.29241     2 2pz   0.44010     3 1s    0.47018     3 1s   -1.05086     4 1s   -0.40641
                                    5 1s   -0.53454     6 1s    0.61735     6 1s   -1.30148
   25.1     0.00000     1.21788     1 1s   -1.84578     1 1s    4.26480     1 2pz   0.27471     1 2px   0.34170     1 2pz  -1.21311
                                    2 1s    0.45995     2 1s   -1.82805     2 2py   0.25134     2 2px   0.82279     2 2py  -0.78580
                                    3 1s   -1.05402     4 1s   -0.97946     5 1s   -0.51454     5 1s    0.60993     6 1s   -0.34621
   26.1     0.00000     1.35629     1 1s    0.53484     1 1s   -2.76295     1 2px  -1.33319     1 2py   0.88753     1 2pz   0.34578
                                    2 1s   -1.75761     2 1s    5.07685     2 2px  -0.51967     2 2py   0.45938     2 2pz   1.60878
                                    4 1s    0.26128     5 1s   -0.68336     5 1s   -0.60783     6 1s   -0.48928     6 1s   -0.72732
   27.1     0.00000     1.70735     1 1s    0.55462     1 3d0   0.41162     1 3d2- -0.33922     2 3d2-  0.33245     2 3d2+  0.41993
   28.1     0.00000     1.90306     1 2px   0.32878     1 2py  -0.27119     1 3d1+  0.45194     1 3d2+  0.34709     1 3d1-  0.30203
                                    2 1s    0.46379     2 1s   -1.26544     2 2pz  -0.52853     2 3d0   0.53097     2 3d1-  0.27649
                                    3 1s    0.28059     6 1s    0.37809     6 1s    0.26474
   29.1     0.00000     1.96394     1 1s    0.26358     1 1s   -1.26801     1 2px  -0.38284     1 2pz   0.27392     1 3d2-  0.29758
                                    1 3d1+ -0.30207     2 1s   -0.38436     2 1s    1.52331     2 2pz   0.45352     2 3d1+  0.46501
                                    2 3d2+  0.33523     2 3d1-  0.49828     3 1s    0.29002     6 1s   -0.34492
   30.1     0.00000     2.19654     1 1s    0.43454     1 1s   -1.70740     1 2px  -0.42032     1 2pz   0.46472     1 3d0   0.71412
                                    1 3d2+  0.41186     2 1s    1.38376     2 2px  -0.30408     2 2py   0.32236     2 2pz   0.36442
                                    2 3d0  -0.32609     2 3d2- -0.28776     2 3d2+ -0.28249     3 1s    0.38834     4 1s    0.44021
                                    6 1s   -0.28323
   31.1     0.00000     2.25076     1 1s    0.51065     1 1s   -0.43977     1 2px   0.26061     1 2px  -0.32030     1 3d2-  0.35764
                                    1 3d1+  0.35876     1 3d2+ -0.42042     2 1s    0.43957     2 2px  -0.25742     2 2px   0.29073
                                    2 3d2-  0.26546     2 3d1+  0.41402     2 3d2+ -0.35049
   32.1     0.00000     2.34640     1 1s    0.40150     1 2py   0.39406     1 3d0   0.33433     1 3d2- -0.34902     1 3d1- -0.40252
                                    2 1s   -0.48315     2 2px   0.31239     2 2py  -0.37280     2 3d0   0.62644     2 3d2- -0.35280
                                    2 3d1- -0.35800     3 1s   -0.36522     4 1s    0.33216     5 1s    0.46194
   33.1     0.00000     2.54111     1 1s    0.28147     1 2py  -0.47124     1 3d2-  0.39309     1 3d1-  0.75161     2 3d2- -0.51765
                                    2 3d1- -0.42002     3 1s    0.51404     4 1s   -0.46053     5 1s    0.34707     6 1s   -0.37897
   34.1     0.00000     2.64279     1 2py  -0.27928     1 3d2- -0.54747     1 3d2+ -0.54954     1 3d1-  0.39204     2 1s    0.26839
                                    2 2py   0.32124     2 3d2- -0.32559     2 3d2+ -0.49411     2 3d1-  0.57623     4 1s   -0.32081
                                    5 1s   -0.37530
   35.1     0.00000     2.70587     1 3d0  -0.46365     1 3d2- -0.42271     1 3d1+  0.43167     2 3d0  -0.37487     2 3d2- -0.51436
                                    2 3d1+  0.57712     2 3d1- -0.27101     3 1s   -0.38226     6 1s   -0.51130
   36.1     0.00000     2.96019     1 1s   -1.73630     1 2px  -0.43826     1 2px  -0.86206     1 2pz   0.45023     1 3d2-  0.32227
                                    1 3d1+  0.69787     1 3d2+ -0.64530     2 1s    1.69205     2 2px  -0.43337     2 2px  -0.88930
                                    2 2pz   0.42641     2 3d2- -0.36495     2 3d1+ -0.69563     2 3d2+  0.64400


 HOMO      8.1    -0.384402 =     -10.4601eV
 LUMO      9.1     0.063045 =       1.7156eV
 LUMO-HOMO         0.447448 =      12.1757eV


 **********************************************************************************************************************************
 DATASETS  * FILE   NREC   LENGTH (MB)   RECORD NAMES
              1      19       31.13       500      610      700      900      950      970     1000      129      960     1100   
                                          VAR    BASINP    GEOM    SYMINP    ZMAT    AOBASIS   BASIS     P2S    ABASIS      S 
                                         1400     1410     1200     1210     1080     1600     1650     1300     1700   
                                           T        V       H0       H01     AOSYM     SMH    MOLCAS    ERIS     OPER   

              2       4        2.86       700     1000      520     2100   
                                         GEOM     BASIS   MCVARS     RHF  

 PROGRAMS   *        TOTAL    HF-SCF       INT
 CPU TIMES  *         0.40      0.11      0.18
 REAL TIME  *         1.04 SEC
 DISK USED  *        36.24 MB
 **********************************************************************************************************************************


 PROGRAM * MULTI (Direct Multiconfiguration SCF)       Authors: P.J. Knowles, H.-J. Werner (1984)


 Number of closed-shell orbitals:   7 (   7 )
 Number of active  orbitals:        2 (   2 )
 Number of external orbitals:      27 (  27 )

 State symmetry 1

 Number of electrons:     2    Spin symmetry=Singlet   Space symmetry=1
 Number of states:        3
 Number of CSFs:          3   (4 determinants, 4 intermediate states)

 Molecular orbitals read from record     2100.2  Type=RHF/CANONICAL (state 1.1)

 Wavefunction dump at record             2140.2

 Convergence thresholds  0.10E-01 (gradient)  0.10E-05 (energy)  0.10E-02 (step length)

 Weight factors for state symmetry  1:    0.33333   0.33333   0.33333

 Number of orbital rotations:      257   (    14 Core/Active    189 Core/Virtual   0 Active/Active     54 Active/Virtual)
 Total number of variables:        269

 Micro-Iterations solved by the two-step solver

 ITER. MIC  NCI  NEG     ENERGY(VAR)     ENERGY(PROJ)   ENERGY CHANGE     GRAD(0)  GRAD(ORB)   GRAD(CI)     STEP       TIME

   1   12    6    0     -77.68304871     -77.70395892   -0.02091021    0.16688969 0.00152572 0.00000000  0.15D+00      0.16
   2    6    5    0     -77.70357473     -77.70361842   -0.00004369    0.00985171 0.00001681 0.00000000  0.64D-02      0.24
   3    7    5    0     -77.70361851     -77.70361852   -0.00000000    0.00002956 0.00000000 0.00000000  0.37D-04      0.34

 ** WVFN ****  CONVERGENCE REACHED, FINAL GRADIENT:  0.54D-09



 Results for state 1.1
 =====================

 !MCSCF STATE  1.1 Energy             -77.833148433101
 Nuclear energy                        32.28554808
 Kinetic energy                        77.76548442
 One electron energy                 -167.72472812
 Two electron energy                   57.60603161
 Virial ratio                           2.00087010

 !MCSCF STATE  1.1 Dipole moment       -0.05596641     0.05980856     0.07257101
 Dipole moment /Debye                  -0.14224311     0.15200824     0.18444502

 Results for state 2.1
 =====================

 !MCSCF STATE  2.1 Energy             -77.730881827876
 Nuclear energy                        32.28554808
 Kinetic energy                        77.84566990
 One electron energy                 -167.43486441
 Two electron energy                   57.41843450
 Virial ratio                           1.99852544

 !MCSCF STATE  2.1 Dipole moment        0.01760139     0.06414106     0.07627085
 Dipole moment /Debye                   0.04473533     0.16301963     0.19384848

 Results for state 3.1
 =====================

 !MCSCF STATE  3.1 Energy             -77.546825285196
 Nuclear energy                        32.28554808
 Kinetic energy                        77.91180990
 One electron energy                 -167.19060701
 Two electron energy                   57.35823364
 Virial ratio                           1.99531541

 !MCSCF STATE  3.1 Dipole moment        0.06544477     0.06345505     0.07745986
 Dipole moment /Debye                   0.16633311     0.16127608     0.19687042

 State-averaged charge density matrix saved on record  2140.2 (density set 1)

 !MCSCF expec         <1.1|DMX|1.1>    -0.055966408706 au =    -0.142243105038 Debye
 !MCSCF trans         <2.1|DMX|1.1>     0.052025492187 au =     0.132226950434 Debye
 !MCSCF expec         <2.1|DMX|2.1>     0.017601385860 au =     0.044735330274 Debye
 !MCSCF trans         <3.1|DMX|1.1>    -0.010190110739 au =    -0.025898981652 Debye
 !MCSCF trans         <3.1|DMX|2.1>     0.062134390133 au =     0.157919523274 Debye
 !MCSCF expec         <3.1|DMX|3.1>     0.065444766528 au =     0.166333109711 Debye

 !MCSCF expec         <1.1|DMY|1.1>     0.059808561113 au =     0.152008242753 Debye
 !MCSCF trans         <2.1|DMY|1.1>     0.010543065871 au =     0.026796045356 Debye
 !MCSCF expec         <2.1|DMY|2.1>     0.064141057996 au =     0.163019630182 Debye
 !MCSCF trans         <3.1|DMY|1.1>    -0.001017015977 au =    -0.002584827466 Debye
 !MCSCF trans         <3.1|DMY|2.1>     0.011764382291 au =     0.029900118743 Debye
 !MCSCF expec         <3.1|DMY|3.1>     0.063455045720 au =     0.161276075102 Debye

 !MCSCF expec         <1.1|DMZ|1.1>     0.072571006887 au =     0.184445019684 Debye
 !MCSCF trans         <2.1|DMZ|1.1>     0.005214690360 au =     0.013253552725 Debye
 !MCSCF expec         <2.1|DMZ|2.1>     0.076270853921 au =     0.193848476907 Debye
 !MCSCF trans         <3.1|DMZ|1.1>    -0.000657309261 au =    -0.001670604071 Debye
 !MCSCF trans         <3.1|DMZ|2.1>     0.005940549670 au =     0.015098382231 Debye
 !MCSCF expec         <3.1|DMZ|3.1>     0.077459856749 au =     0.196870422717 Debye


 NATURAL ORBITALS (state averaged)
 =================================

  Orbital  Occupation    Energy     Coefficients
    1.1     2.00000   -11.25827     1 1s    0.99370
    2.1     2.00000   -11.25304     2 1s    0.99373
    3.1     2.00000    -1.04987     1 1s    0.28002     2 1s    0.27559
    4.1     2.00000    -0.78336     1 1s   -0.31760     2 1s    0.32139
    5.1     2.00000    -0.63259     1 2py   0.36334
    6.1     2.00000    -0.54531     1 2px   0.25360     2 2py   0.31903
    7.1     2.00000    -0.41898     1 2pz   0.31455     1 2pz   0.26816     2 2pz   0.33109     2 2pz   0.28941
    8.1     1.00000    -0.08680     1 2pz   0.42341     1 2pz   0.44512     2 1s    0.30838     2 2pz  -0.38135     2 2pz  -0.40509
    9.1     1.00000    -0.22901     1 2px   0.32818     2 2px  -0.28323     4 1s   -0.29121     5 1s   -0.30102
   10.1    -0.00000     0.21501     1 1s   -1.16919     1 2px   0.47124     1 2py   0.30737     1 2pz   0.38769     2 1s   -0.93898
                                    2 2px  -0.43248     2 2py  -0.44271     2 2pz  -0.30947     3 1s    0.68819     4 1s    1.05489
                                    5 1s    1.07409     6 1s    0.30646
   11.1    -0.00000     0.27605     1 1s    1.30773     1 2pz  -0.27082     2 1s   -1.95322     2 2px  -0.25595     2 2pz  -0.68350
                                    3 1s   -1.01316     5 1s    0.42029     6 1s    1.70628
   12.1    -0.00000     0.31196     1 2py  -0.32013     1 2py  -1.42179     2 1s   -0.87707     2 2px  -0.43308     2 2pz  -0.44954
                                    3 1s    1.62362     4 1s   -1.39138     5 1s    0.65347     6 1s    0.80632
   13.1    -0.00000     0.32166     1 1s    1.37730     1 2px  -0.31148     1 2pz  -0.49825     2 1s   -0.42586     2 2py  -0.30781
                                    2 2py  -1.20848     3 1s   -0.92259     4 1s   -1.13547     5 1s    1.56021     6 1s   -0.89925
   14.1    -0.00000     0.42830     1 1s    2.02126     1 2px   1.74403     1 2py  -0.55193     1 2pz  -0.78375     2 1s   -1.87030
                                    2 2px   0.25677     2 2px   1.82182     2 2py  -0.50248     2 2pz  -0.70707     3 1s    0.48349
                                    6 1s   -0.67745
   15.1    -0.00000     0.69953     1 2px  -0.58934     1 2px   0.81825     2 2px   0.47040     2 2pz  -0.27276     2 2px  -0.96894
                                    4 1s    0.26500     4 1s   -0.54766     5 1s   -0.43548     6 1s    0.31343
   16.1    -0.00000     0.76259     1 1s   -0.41028     1 2px  -0.49501     1 2py   0.55696     2 1s    0.33701     2 2px   0.29044
                                    2 2py  -0.48903     2 2px  -0.75495     2 2py   0.92913     3 1s   -0.40483     5 1s   -0.33653
                                    6 1s    0.52794
   17.1    -0.00000     0.79102     1 2py  -0.56601     1 2pz  -0.61173     1 2px  -0.32379     1 2py   1.36111     1 2pz   0.76138
                                    2 1s    0.48511     2 2py   0.34163     2 2py  -0.65396     4 1s    0.38751
   18.1    -0.00000     0.80214     1 1s    0.32817     1 2py  -0.32614     1 2pz   0.58208     1 2py   0.69415     1 2pz  -0.59306
                                    2 2py   0.29860     2 2pz   0.68221     2 2py  -0.66264     2 2pz  -0.69438     3 1s   -0.27419
   19.1    -0.00000     0.86441     1 1s   -0.29640     1 2px  -0.32840     1 2pz  -0.57732     1 2px   0.54694     1 2py  -0.63590
                                    1 2pz   0.90199     2 1s   -0.33285     2 2pz   0.72980     2 2px  -0.44639     2 2py   0.46611
                                    2 2pz  -1.08055     3 1s    0.28263     6 1s    0.28488
   20.1    -0.00000     0.97792     1 2px   0.64118     1 2py   0.34305     1 2px  -0.87255     1 2py  -0.74008     2 1s   -0.33937
                                    2 1s    0.29532     2 2px   0.75775     2 2py   0.38814     2 2px  -1.10867     2 2py  -0.85518
                                    4 1s   -1.07061     5 1s    0.87484
   21.1    -0.00000     1.07533     1 1s   -0.40970     1 1s    0.28654     1 2px   0.45101     1 2px  -0.85714     2 1s   -0.54735
                                    2 1s    1.44416     2 2py  -0.50064     2 2px  -0.31181     2 2py   0.78435     3 1s   -0.49428
                                    4 1s    0.75668     4 1s   -0.99934     5 1s    0.51807     5 1s   -0.99460     6 1s    0.51441
   22.1    -0.00000     1.10544     1 1s   -0.75524     1 2py   0.45028     1 2px  -0.27911     1 2py  -0.65937     1 2pz   0.25049
                                    2 2py   0.58194     2 2px  -0.39190     2 2py  -0.56097     3 1s    0.27070     3 1s    0.28718
                                    4 1s    0.73583     4 1s   -0.94452     5 1s   -0.61451     5 1s    1.24310     6 1s    0.40510
                                    6 1s   -0.47880
   23.1    -0.00000     1.14740     1 1s    0.43128     1 1s   -1.41315     1 2px   0.33157     1 2py  -0.50892     1 2px  -0.80846
                                    1 2py   0.76600     1 2pz   0.46672     2 1s    0.57921     2 1s   -0.41959     2 2px   0.50204
                                    2 2px  -1.37391     2 2py   0.56138     3 1s    0.78805     3 1s   -1.02992     4 1s    0.59567
                                    5 1s   -0.29395     5 1s    0.57877     6 1s   -0.30536     6 1s    1.23186
   24.1    -0.00000     1.18726     1 1s   -0.70368     1 2py  -0.37980     1 2px  -0.33787     1 2py   0.40059     1 2pz   0.27686
                                    2 1s   -1.00951     2 1s    1.99932     2 2px  -0.30237     2 2pz   0.36856     3 1s    0.58440
                                    3 1s   -0.56243     4 1s   -0.27873     4 1s    0.51477     5 1s    0.28257     5 1s   -0.42596
                                    6 1s    0.79610     6 1s   -1.15877
   25.1    -0.00000     1.20863     1 1s   -2.01677     1 1s    4.46377     1 2py   0.29642     1 2pz  -1.23563     2 1s   -0.88994
                                    2 2px   1.02185     2 2py  -0.76184     3 1s   -1.44510     4 1s   -0.73900     5 1s   -0.34285
                                    6 1s   -0.53323
   26.1    -0.00000     1.34548     1 1s    0.59012     1 1s   -2.88823     1 2px  -1.36015     1 2py   0.88612     1 2pz   0.37280
                                    2 1s   -1.80111     2 1s    5.19080     2 2px  -0.54626     2 2py   0.47288     2 2pz   1.61880
                                    4 1s    0.26768     5 1s   -0.64520     5 1s   -0.65579     6 1s   -0.48839     6 1s   -0.73066
   27.1    -0.00000     1.70199     1 1s    0.57911     1 3d0   0.40393     1 3d2- -0.34055     2 1s   -0.25008     2 3d2-  0.33686
                                    2 3d2+  0.42226
   28.1    -0.00000     1.90136     1 2px   0.31764     1 2py  -0.26899     1 3d1+  0.44475     1 3d2+  0.35275     1 3d1-  0.29631
                                    2 1s    0.44431     2 1s   -1.20837     2 2pz  -0.50738     2 3d0   0.53145     2 3d2+  0.25938
                                    2 3d1-  0.28430     3 1s    0.27825     6 1s    0.37061     6 1s    0.25797
   29.1    -0.00000     1.95968     1 1s    0.25531     1 1s   -1.23917     1 2px  -0.37603     1 2pz   0.26441     1 3d2-  0.29835
                                    1 3d1+ -0.31147     2 1s   -0.38351     2 1s    1.51139     2 2pz   0.45162     2 3d1+  0.46498
                                    2 3d2+  0.33051     2 3d1-  0.49464     3 1s    0.29105     6 1s   -0.35051
   30.1    -0.00000     2.19693     1 1s    0.41094     1 1s   -1.66744     1 2px  -0.39937     1 2pz   0.44790     1 3d0   0.70846
                                    1 3d2+  0.43436     2 1s    1.38163     2 2px  -0.30970     2 2py   0.32899     2 2pz   0.36568
                                    2 3d0  -0.33541     2 3d2- -0.29902     2 3d2+ -0.26451     3 1s    0.38355     4 1s    0.44198
                                    6 1s   -0.28176
   31.1    -0.00000     2.24609     1 1s    0.53082     1 1s   -0.54193     1 2px   0.26673     1 2px  -0.33731     1 3d2-  0.36830
                                    1 3d1+  0.38113     1 3d2+ -0.39289     2 1s    0.41781     2 2px  -0.26598     2 2px   0.26486
                                    2 3d2-  0.26402     2 3d1+  0.41385     2 3d2+ -0.36871
   32.1    -0.00000     2.34020     1 1s    0.38339     1 2py   0.40458     1 3d0   0.33032     1 3d2- -0.33157     1 3d1- -0.40269
                                    2 1s   -0.48495     2 2px   0.32737     2 2py  -0.38801     2 3d0   0.63032     2 3d2- -0.35557
                                    2 3d1- -0.37731     3 1s   -0.36870     4 1s    0.31391     5 1s    0.45253
   33.1    -0.00000     2.53690     1 1s    0.26299     1 2py  -0.47258     1 3d2-  0.40062     1 3d1-  0.75072     2 3d2- -0.51772
                                    2 3d1- -0.42586     3 1s    0.51929     4 1s   -0.44873     5 1s    0.33967     6 1s   -0.38553
   34.1    -0.00000     2.63467     1 2py  -0.29124     1 3d2- -0.55038     1 3d2+ -0.54586     1 3d1-  0.40244     2 1s    0.25472
                                    2 2py   0.32208     2 3d2- -0.33783     2 3d2+ -0.48915     2 3d1-  0.57108     4 1s   -0.32001
                                    5 1s   -0.35897
   35.1    -0.00000     2.71119     1 3d0  -0.47124     1 3d2- -0.41591     1 3d1+  0.43646     2 3d0  -0.38307     2 3d2- -0.49711
                                    2 3d1+  0.58149     2 3d1- -0.26943     3 1s   -0.38417     6 1s   -0.50602
   36.1    -0.00000     2.95620     1 1s   -1.76692     1 2px  -0.43223     1 2px  -0.87469     1 2py   0.25448     1 2pz   0.45843
                                    1 3d2-  0.31968     1 3d1+  0.70317     1 3d2+ -0.64287     2 1s    1.72150     2 2px  -0.42694
                                    2 2px  -0.90013     2 2pz   0.43404     2 3d2- -0.36389     2 3d1+ -0.69528     2 3d2+  0.64136


 Natural orbital dump (state averaged) at molpro section  2140.2    (Orbital set 2)



 **********************************************************************************************************************************
 DATASETS  * FILE   NREC   LENGTH (MB)   RECORD NAMES
              1      20       31.86       500      610      700      900      950      970     1000      129      960     1100   
                                          VAR    BASINP    GEOM    SYMINP    ZMAT    AOBASIS   BASIS     P2S    ABASIS      S 
                                         1400     1410     1200     1210     1080     1600     1650     1300     1700     1380   
                                           T        V       H0       H01     AOSYM     SMH    MOLCAS    ERIS     OPER     JKOP   

              2       5        5.42       700     1000      520     2100     2140   
                                         GEOM     BASIS   MCVARS     RHF     MCSCF   

 PROGRAMS   *        TOTAL     MULTI    HF-SCF       INT
 CPU TIMES  *         0.79      0.39      0.11      0.18
 REAL TIME  *         1.51 SEC
 DISK USED  *        39.04 MB
 **********************************************************************************************************************************
 Molecular orbitals read from record     2140.2  Type=MCSCF/NATURAL (state averaged)
 Occupation numbers read from record     2140.2  Type=MCSCF/NATURAL (state averaged)
 Orbital energies read from record       2140.2  Type=MCSCF/NATURAL (state averaged)
 Redundancy group numbers read from rec  2140.2  Type=MCSCF/NATURAL (state averaged)

 MULTI/6-31G* energy=    -77.546825285196

           MULTI          HF-SCF
    -77.54682529    -77.83942591
 **********************************************************************************************************************************
 Molpro calculation terminated
