
 Primary working directories    : /scratch.local/johan406.molpro_temp/molpro.jbmV9RqKAG
 Secondary working directories  : /scratch.local/johan406.molpro_temp/molpro.jbmV9RqKAG
 Wavefunction directory         : /home/goodpast/johan406/wfu/
 Main file repository           : /scratch.local/johan406.molpro_temp/molpro.jbmV9RqKAG/

 id        : roweumn

 Nodes     nprocs
 acn09        1

 Using customized tuning parameters: mindgm=1; mindgv=20; mindgc=4; mindgr=1; noblas=0; minvec=7
 default implementation of scratch files=df  


 Variables initialized (934), CPU time= 0.00 sec
                                                                                 !leave this line blank
 
 gprint, orbitals=30
 memory, 125., m
 symmetry, nosym
 nelect=16
 basis=6-31g*
 
 geometry={
 C -0.627 0.1383 0.2991
 C 0.6359 -0.1881 -0.3595
 H -1.271 0.8941 -0.1551
 H -0.9643 -0.8644 -0.1392
 H 0.9733 0.8145 0.0788
 H 1.2799 -0.944 0.0947
 }
 
 hf
 {multi,
 closed 7
 occ 9
 wf,spin=0;STATE,3
 }
 
 Commands  initialized (763), CPU time= 0.01 sec, 617 directives.
 Default parameters read. Elapsed time= 0.08 sec

 Checking input...
 Passed
1


                                         ***  PROGRAM SYSTEM MOLPRO  ***
                                       Copyright, TTI GmbH Stuttgart, 2015
                                    Version 2019.2 linked Oct 25 2019 22:50:27


 **********************************************************************************************************************************
 LABEL *                                                                                 
  64 bit serial version                                                                  DATE: 07-Feb-23          TIME: 15:25:21  
 **********************************************************************************************************************************

 SHA1:             8dbd9ae1082e4ce945b0f27595c9eb2d4aa09004
 **********************************************************************************************************************************


 Variable memory set to  125000000 words,  buffer space 

 SETTING NELECT         =        16.00000000                                  
 SETTING BASIS          =    6-31G*
 ZSYMEL=NOSYM


Geometry recognized as XYZ



 Recomputing integrals since basis changed


 Using spherical harmonics

 Library entry C      S 6-31G                selected for orbital group  1
 Library entry C      P 6-31G                selected for orbital group  1
 Library entry C      D 6-31G*               selected for orbital group  1
 Library entry H      S 6-31G                selected for orbital group  2


 PROGRAM * SEWARD (Integral evaluation for generally contracted gaussian basis sets)     Author: Roland Lindh, 1990

 Geometry written to block  1 of record 700


 Point group  C1  



 ATOMIC COORDINATES

 NR  ATOM    CHARGE       X              Y              Z

   1  C       6.00   -1.184858280    0.261349123    0.565217084
   2  C       6.00    1.201676843   -0.355457484   -0.679356542
   3  H       1.00   -2.401841904    1.689604128   -0.293096522
   4  H       1.00   -1.822262902   -1.633479262   -0.263049877
   5  H       1.00    1.839270437    1.539181928    0.148910419
   6  H       1.00    2.418660467   -1.783901462    0.178957064

 Bond lengths in Bohr (Angstrom)

 1-2  2.761333698  1-3  2.063410707  1-4  2.163951344  2-5  2.163841550  2-6  2.063541515
     ( 1.461234865)     ( 1.091909923)     ( 1.145113737)     ( 1.145055636)     ( 1.091979144)

 Bond angles

  1-2-5   83.48623164   1-2-6  118.48057700   2-1-3  118.48121405   2-1-4   83.48108616

  3-1-4  105.85215278   5-2-6  105.85005490

 NUCLEAR CHARGE:                   16
 NUMBER OF PRIMITIVE AOS:          72
 NUMBER OF SYMMETRY AOS:           70
 NUMBER OF CONTRACTIONS:           36   (   36A   )
 NUMBER OF CORE ORBITALS:           2   (    2A   )
 NUMBER OF VALENCE ORBITALS:       12   (   12A   )


 NUCLEAR REPULSION ENERGY   32.34306972

 Eigenvalues of metric

         1 0.929E-02 0.272E-01 0.595E-01 0.647E-01 0.803E-01 0.218E+00 0.237E+00 0.273E+00


 Contracted 2-electron integrals neglected if value below      1.0D-11
 AO integral compression algorithm  1   Integral accuracy      1.0D-11

     1.573 MB (compressed) written to integral file ( 59.2%)


 NUMBER OF SORTED TWO-ELECTRON INTEGRALS:     222111.     BUFFER LENGTH:  32768
 NUMBER OF SEGMENTS:   1  SEGMENT LENGTH:     222111      RECORD LENGTH: 524288

 Memory used in sort:       0.78 MW

 SORT1 READ      284735. AND WROTE      212531. INTEGRALS IN      1 RECORDS. CPU TIME:     0.01 SEC, REAL TIME:     0.01 SEC
 SORT2 READ      212531. AND WROTE      222111. INTEGRALS IN      6 RECORDS. CPU TIME:     0.02 SEC, REAL TIME:     0.02 SEC

 FILE SIZES:   FILE 1:    31.7 MBYTE,  FILE 4:     4.2 MBYTE,   TOTAL:     35.9 MBYTE

 OPERATOR DM      FOR CENTER  0  COORDINATES:    0.000000    0.000000    0.000000


 **********************************************************************************************************************************
 DATASETS  * FILE   NREC   LENGTH (MB)   RECORD NAMES
              1      19       31.13       500      610      700      900      950      970     1000      129      960     1100   
                                          VAR    BASINP    GEOM    SYMINP    ZMAT    AOBASIS   BASIS     P2S    ABASIS      S 
                                         1400     1410     1200     1210     1080     1600     1650     1300     1700   
                                           T        V       H0       H01     AOSYM     SMH    MOLCAS    ERIS     OPER   

 PROGRAMS   *        TOTAL       INT
 CPU TIMES  *         0.35      0.25
 REAL TIME  *         2.21 SEC
 DISK USED  *        36.24 MB
 **********************************************************************************************************************************


 PROGRAM * RHF-SCF (CLOSED SHELL)       Authors: W. Meyer, H.-J. Werner


 NUMBER OF ELECTRONS:       8+    8-    SPACE SYMMETRY=1    SPIN SYMMETRY: Singlet 
 CONVERGENCE THRESHOLDS:    1.00E-05 (Density)    1.00E-07 (Energy)
 MAX. NUMBER OF ITERATIONS:       60
 INTERPOLATION TYPE:            DIIS
 INTERPOLATION STEPS:              2 (START)      1 (STEP)
 LEVEL SHIFTS:                  0.00 (CLOSED)  0.00 (OPEN) 



 Orbital guess generated from atomic densities. Full valence occupancy:    8

 Molecular orbital dump at record        2100.2

 Initial occupancy:   8

 ITERATION    DDIFF          GRAD             ENERGY        2-EL.EN.            DIPOLE MOMENTS         DIIS   ORB.
    1      0.000D+00      0.000D+00       -77.82692662    115.888993    0.00003   -0.00007   -0.00002    0    start
    2      0.000D+00      0.703D-02       -77.84493791    114.874322   -0.00000    0.00003    0.00001    1    diag
    3      0.753D-02      0.228D-02       -77.84703543    115.290139    0.00003    0.00001   -0.00002    2    diag
    4      0.296D-02      0.831D-03       -77.84748868    115.161251    0.00000    0.00003    0.00001    3    diag
    5      0.161D-02      0.299D-03       -77.84763389    115.169021    0.00003    0.00001   -0.00003    4    diag
    6      0.101D-02      0.133D-03       -77.84768241    115.170714   -0.00004    0.00006    0.00007    5    diag
    7      0.634D-03      0.446D-04       -77.84768774    115.172126    0.00011   -0.00004   -0.00016    6    diag
    8      0.224D-03      0.136D-04       -77.84768814    115.172514   -0.00012    0.00012    0.00020    7    diag
    9      0.617D-04      0.560D-05       -77.84768816    115.172518    0.00009   -0.00002   -0.00011    8    diag
   10      0.112D-04      0.268D-05       -77.84768817    115.172496    0.00001    0.00003   -0.00000    9    orth
   11      0.512D-05      0.504D-06       -77.84768817    115.172502    0.00002    0.00002   -0.00001    0    orth

 Final occupancy:   8

 !RHF STATE  1.1 Energy               -77.847688166664
 Nuclear energy                        32.34306972
 One-electron energy                 -167.77700885
 Two-electron energy                   57.58625097
 Virial quotient                       -1.00125211
 !RHF STATE  1.1 Dipole moment          0.00001987     0.00002197    -0.00001328
 Dipole moment /Debye                   0.00005050     0.00005584    -0.00003376

 ELECTRON ORBITALS
 =================

  Orbital  Occupation    Energy     Coefficients
    1.1     2.00000   -11.26023     1 1s    0.70185     2 1s    0.70703
    2.1     2.00000   -11.25938     1 1s   -0.70713     2 1s    0.70196
    3.1     2.00000    -1.03656     1 1s    0.28301     2 1s    0.28301
    4.1     2.00000    -0.78484     1 1s   -0.29261     2 1s    0.29262
    5.1     2.00000    -0.62083     1 2py   0.30843     2 2py   0.30841
    6.1     2.00000    -0.56172     1 2px   0.29961     2 2px  -0.29960
    7.1     2.00000    -0.39178     1 2pz   0.30885     1 2pz   0.28597     2 2pz   0.30878     2 2pz   0.28593
    8.1     2.00000    -0.38691     1 2px   0.27324     2 2px  -0.27315     4 1s   -0.28628     5 1s   -0.28624
    9.1     0.00000     0.06274     1 1s    0.39676     1 2pz   0.33088     1 2pz   0.46849     2 1s    0.39676     2 2pz  -0.33088
                                    2 2pz  -0.46848
   10.1     0.00000     0.23167     1 1s   -1.09728     1 2px   0.48371     1 2py   0.36865     1 2pz   0.43304     2 1s   -1.09751
                                    2 2px  -0.48368     2 2py  -0.36846     2 2pz  -0.43310     3 1s    0.57311     4 1s    1.08879
                                    5 1s    1.08865     6 1s    0.57331
   11.1     0.00000     0.28172     1 1s    1.56944     1 2py   0.35469     1 2pz  -0.46298     2 1s   -1.56937     2 2py   0.35517
                                    2 2pz  -0.46303     3 1s   -1.44258     6 1s    1.44292
   12.1     0.00000     0.31303     1 1s   -0.75501     1 2px   0.40081     1 2py  -1.01053     1 2pz   0.45499     2 1s   -0.75415
                                    2 2px  -0.40084     2 2py   1.01037     2 2pz  -0.45474     3 1s    1.56140     4 1s   -0.42240
                                    5 1s   -0.42236     6 1s    1.56069
   13.1     0.00000     0.33526     1 1s    1.04981     1 2px  -0.28831     1 2py  -0.75752     1 2pz  -0.31912     2 1s   -1.05006
                                    2 2px  -0.28847     2 2py  -0.75770     2 2pz  -0.31923     4 1s   -1.69533     5 1s    1.69567
   14.1     0.00000     0.42341     1 1s    2.01946     1 2px   1.77800     1 2py  -0.63517     1 2pz  -0.78770     2 1s   -2.01956
                                    2 2px   1.77795     2 2py  -0.63510     2 2pz  -0.78775     3 1s    0.63384     6 1s   -0.63367
   15.1     0.00000     0.70338     1 2px  -0.55050     1 2px   0.93038     2 2px   0.55047     2 2px  -0.93027     4 1s   -0.42641
                                    5 1s   -0.42630
   16.1     0.00000     0.75687     1 1s   -0.31932     1 2py  -0.37728     1 2px  -0.62326     1 2py   0.78840     2 1s    0.31960
                                    2 2py  -0.37718     2 2px  -0.62319     2 2py   0.78817     3 1s   -0.48470     6 1s    0.48469
   17.1     0.00000     0.78943     1 2py  -0.58647     1 2pz  -0.26446     1 2py   1.23169     2 2py   0.58652     2 2pz   0.26484
                                    2 2py  -1.23187     4 1s    0.28198     5 1s    0.28209
   18.1     0.00000     0.80011     1 2pz  -0.73477     1 2pz   0.70894     2 2pz  -0.73464     2 2pz   0.70883
   19.1     0.00000     0.86471     1 1s   -0.35705     1 2pz  -0.68557     1 2px   0.45675     1 2py  -0.54342     1 2pz   0.95823
                                    2 1s   -0.35704     2 2pz   0.68557     2 2px  -0.45677     2 2py   0.54357     2 2pz  -0.95819
   20.1     0.00000     0.97350     1 2px   0.71665     1 2py   0.36996     1 2px  -1.15900     1 2py  -0.76737     2 2px   0.71665
                                    2 2py   0.36991     2 2px  -1.15910     2 2py  -0.76738     4 1s   -1.04496     5 1s    1.04494
   21.1     0.00000     1.11912     1 1s   -0.66322     1 1s    1.21781     1 2py   0.40659     1 2px  -0.35369     1 2py  -0.39458
                                    2 1s   -0.66309     2 1s    1.21766     2 2py  -0.40587     2 2px   0.35405     2 2py   0.39364
                                    4 1s    0.65231     4 1s   -1.18998     5 1s    0.65150     5 1s   -1.18879
   22.1     0.00000     1.13678     1 2px  -0.39364     1 2py   0.60335     1 2px   0.72047     1 2py  -0.96378     2 2px  -0.39362
                                    2 2py   0.60413     2 2px   0.72033     2 2py  -0.96455     3 1s   -0.50779     3 1s    1.22245
                                    4 1s    0.31518     4 1s   -0.68053     5 1s   -0.31586     5 1s    0.68172     6 1s    0.50874
                                    6 1s   -1.22355
   23.1     0.00000     1.18252     1 1s    0.36182     1 2pz  -0.26319     1 2px   0.74661     2 1s   -0.36405     2 2pz  -0.26371
                                    2 2px   0.74768     3 1s   -0.38379     3 1s    0.63441     4 1s   -0.73561     4 1s    0.90873
                                    5 1s    0.73605     5 1s   -0.90967     6 1s    0.38557     6 1s   -0.63733
   24.1     0.00000     1.19000     1 1s   -0.62869     1 1s    0.99581     1 2px   0.29514     1 2py  -0.31026     1 2px  -0.30308
                                    1 2py   0.30725     2 1s   -0.62803     2 1s    0.99694     2 2px  -0.29429     2 2py   0.31000
                                    2 2px   0.30016     2 2py  -0.30601     3 1s    0.76405     3 1s   -1.08951     6 1s    0.76250
                                    6 1s   -1.08668
   25.1     0.00000     1.26259     1 1s   -1.18487     1 1s    2.14109     1 2px  -0.53722     1 2py   0.54475     1 2pz  -0.99547
                                    2 1s   -1.18278     2 1s    2.13460     2 2px   0.53860     2 2py  -0.54568     2 2pz   0.99391
                                    3 1s   -0.41435     3 1s   -0.92382     4 1s   -0.43084     4 1s   -0.35164     5 1s   -0.43061
                                    5 1s   -0.35078     6 1s   -0.41439     6 1s   -0.92291
   26.1     0.00000     1.28639     1 1s    1.59761     1 1s   -5.10064     1 2px  -1.24359     1 2py   0.76536     1 2pz   1.22363
                                    2 1s   -1.59899     2 1s    5.10321     2 2px  -1.24290     2 2py   0.76478     2 2pz   1.22491
                                    3 1s    0.45764     4 1s    0.66285     5 1s   -0.25023     5 1s   -0.66337     6 1s   -0.45854
   27.1     0.00000     1.69528     1 1s    0.58631     1 3d0   0.34827     1 3d2- -0.29840     1 3d2+ -0.32746     2 1s   -0.58631
                                    2 3d0  -0.34822     2 3d2-  0.29837     2 3d2+  0.32751
   28.1     0.00000     1.91657     1 1s    0.31274     1 1s   -0.65726     1 2pz   0.34641     1 3d0   0.35521     1 3d1+  0.34166
                                    1 3d2+  0.34591     1 3d1-  0.31743     2 1s    0.31284     2 1s   -0.65759     2 2pz  -0.34648
                                    2 3d0   0.35529     2 3d1+  0.34153     2 3d2+  0.34584     2 3d1-  0.31728     3 1s    0.27657
                                    6 1s    0.27655
   29.1     0.00000     1.94299     1 1s    0.31235     1 1s   -1.38685     1 2px  -0.31918     1 2pz   0.36149     1 3d2-  0.30465
                                    1 3d1+ -0.39588     1 3d1- -0.38493     2 1s   -0.31224     2 1s    1.38660     2 2px  -0.31923
                                    2 2pz   0.36135     2 3d2- -0.30473     2 3d1+  0.39600     2 3d1-  0.38497     3 1s    0.33010
                                    6 1s   -0.33000
   30.1     0.00000     2.17858     1 1s    0.34768     1 1s   -1.64838     1 2px  -0.37749     1 2py   0.27680     1 2pz   0.44340
                                    1 3d0   0.56748     1 3d2+  0.35395     2 1s   -0.34785     2 1s    1.64854     2 2px  -0.37752
                                    2 2py   0.27686     2 2pz   0.44347     2 3d0  -0.56752     2 3d2+ -0.35382     3 1s    0.35402
                                    4 1s    0.33097     5 1s   -0.33090     6 1s   -0.35402
   31.1     0.00000     2.24826     1 1s    0.49504     1 1s   -0.32167     1 2px   0.26161     1 2px  -0.29755     1 3d2-  0.29822
                                    1 3d1+  0.38567     1 3d2+ -0.38901     2 1s    0.49488     2 1s   -0.32094     2 2px  -0.26162
                                    2 2px   0.29737     2 3d2-  0.29811     2 3d1+  0.38564     2 3d2+ -0.38910
   32.1     0.00000     2.34807     1 2py   0.35890     1 3d0   0.51341     1 3d2- -0.37028     1 3d1- -0.36057     2 2py  -0.35893
                                    2 3d0   0.51346     2 3d2- -0.37023     2 3d1- -0.36056     3 1s   -0.27290     4 1s    0.39850
                                    5 1s    0.39857     6 1s   -0.27276
   33.1     0.00000     2.58173     1 1s    0.29406     1 2py  -0.29403     1 3d2-  0.48076     1 3d1-  0.59744     2 1s   -0.29402
                                    2 2py  -0.29397     2 3d2- -0.48112     2 3d1- -0.59736     3 1s    0.48824     4 1s   -0.41183
                                    5 1s    0.41188     6 1s   -0.48831
   34.1     0.00000     2.64291     1 2py   0.31886     1 3d2-  0.44645     1 3d2+  0.51667     1 3d1- -0.50363     2 2py  -0.31900
                                    2 3d2-  0.44625     2 3d2+  0.51665     2 3d1- -0.50386     4 1s    0.35953     5 1s    0.35969
   35.1     0.00000     2.72206     1 3d0  -0.40558     1 3d2- -0.48307     1 3d1+  0.49584     1 3d1- -0.27844     2 3d0  -0.40557
                                    2 3d2- -0.48289     2 3d1+  0.49578     2 3d1- -0.27829     3 1s   -0.47640     6 1s   -0.47614
   36.1     0.00000     2.95867     1 1s   -1.71780     1 2px  -0.43292     1 2px  -0.87419     1 2pz   0.43994     1 3d2-  0.34821
                                    1 3d1+  0.69577     1 3d2+ -0.64335     2 1s    1.71780     2 2px  -0.43292     2 2px  -0.87419
                                    2 2pz   0.43993     2 3d2- -0.34824     2 3d1+ -0.69576     2 3d2+  0.64338


 HOMO      8.1    -0.386912 =     -10.5284eV
 LUMO      9.1     0.062740 =       1.7072eV
 LUMO-HOMO         0.449652 =      12.2356eV


 **********************************************************************************************************************************
 DATASETS  * FILE   NREC   LENGTH (MB)   RECORD NAMES
              1      19       31.13       500      610      700      900      950      970     1000      129      960     1100   
                                          VAR    BASINP    GEOM    SYMINP    ZMAT    AOBASIS   BASIS     P2S    ABASIS      S 
                                         1400     1410     1200     1210     1080     1600     1650     1300     1700   
                                           T        V       H0       H01     AOSYM     SMH    MOLCAS    ERIS     OPER   

              2       4        2.86       700     1000      520     2100   
                                         GEOM     BASIS   MCVARS     RHF  

 PROGRAMS   *        TOTAL    HF-SCF       INT
 CPU TIMES  *         0.51      0.16      0.25
 REAL TIME  *         2.55 SEC
 DISK USED  *        36.24 MB
 **********************************************************************************************************************************


 PROGRAM * MULTI (Direct Multiconfiguration SCF)       Authors: P.J. Knowles, H.-J. Werner (1984)


 Number of closed-shell orbitals:   7 (   7 )
 Number of active  orbitals:        2 (   2 )
 Number of external orbitals:      27 (  27 )

 State symmetry 1

 Number of electrons:     2    Spin symmetry=Singlet   Space symmetry=1
 Number of states:        3
 Number of CSFs:          3   (4 determinants, 4 intermediate states)

 Molecular orbitals read from record     2100.2  Type=RHF/CANONICAL (state 1.1)

 Wavefunction dump at record             2140.2

 Convergence thresholds  0.10E-01 (gradient)  0.10E-05 (energy)  0.10E-02 (step length)

 Weight factors for state symmetry  1:    0.33333   0.33333   0.33333

 Number of orbital rotations:      257   (    14 Core/Active    189 Core/Virtual   0 Active/Active     54 Active/Virtual)
 Total number of variables:        269

 Micro-Iterations solved by the two-step solver

 ITER. MIC  NCI  NEG     ENERGY(VAR)     ENERGY(PROJ)   ENERGY CHANGE     GRAD(0)  GRAD(ORB)   GRAD(CI)     STEP       TIME

   1    6    5    0     -77.69188431     -77.71133873   -0.01945442    0.16718056 0.00168646 0.00000000  0.14D+00      0.12
   2    5    5    0     -77.71104220     -77.71106086   -0.00001866    0.00639906 0.00000359 0.00000000  0.44D-02      0.24
   3    4    4    0     -77.71106088     -77.71106088   -0.00000000    0.00001205 0.00000000 0.00000000  0.16D-04      0.31

 ** WVFN ****  CONVERGENCE REACHED, FINAL GRADIENT:  0.14D-09



 Results for state 1.1
 =====================

 !MCSCF STATE  1.1 Energy             -77.841287906664
 Nuclear energy                        32.34306972
 Kinetic energy                        77.80429474
 One electron energy                 -167.85067819
 Two electron energy                   57.66632056
 Virial ratio                           2.00047546

 !MCSCF STATE  1.1 Dipole moment        0.00002347     0.00004834    -0.00001263
 Dipole moment /Debye                   0.00005966     0.00012287    -0.00003210

 Results for state 2.1
 =====================

 !MCSCF STATE  2.1 Energy             -77.738825580488
 Nuclear energy                        32.34306972
 Kinetic energy                        77.88012167
 One electron energy                 -167.55016320
 Two electron energy                   57.46826790
 Virial ratio                           1.99818572

 !MCSCF STATE  2.1 Dipole moment       -0.00002098    -0.00002813     0.00000286
 Dipole moment /Debye                  -0.00005333    -0.00007150     0.00000727

 Results for state 3.1
 =====================

 !MCSCF STATE  3.1 Energy             -77.553069160160
 Nuclear energy                        32.34306972
 Kinetic energy                        77.94186199
 One electron energy                 -167.29559900
 Two electron energy                   57.39946013
 Virial ratio                           1.99501176

 !MCSCF STATE  3.1 Dipole moment       -0.00008080    -0.00009520     0.00002576
 Dipole moment /Debye                  -0.00020535    -0.00024197     0.00006546

 State-averaged charge density matrix saved on record  2140.2 (density set 1)

 !MCSCF expec         <1.1|DMX|1.1>     0.000023473454 au =     0.000059659662 Debye
 !MCSCF trans         <2.1|DMX|1.1>     0.000035902294 au =     0.000091248552 Debye
 !MCSCF expec         <2.1|DMX|2.1>    -0.000020984632 au =    -0.000053334120 Debye
 !MCSCF trans         <3.1|DMX|1.1>     0.000002372961 au =     0.000006031071 Debye
 !MCSCF trans         <3.1|DMX|2.1>     0.000035548918 au =     0.000090350420 Debye
 !MCSCF expec         <3.1|DMX|3.1>    -0.000080796055 au =    -0.000205349638 Debye

 !MCSCF expec         <1.1|DMY|1.1>     0.000048343389 au =     0.000122868590 Debye
 !MCSCF trans         <2.1|DMY|1.1>    -0.000018088476 au =    -0.000045973310 Debye
 !MCSCF expec         <2.1|DMY|2.1>    -0.000028131193 au =    -0.000071497677 Debye
 !MCSCF trans         <3.1|DMY|1.1>     0.000008379511 au =     0.000021297198 Debye
 !MCSCF trans         <3.1|DMY|2.1>    -0.000025315704 au =    -0.000064341887 Debye
 !MCSCF expec         <3.1|DMY|3.1>    -0.000095203484 au =    -0.000241967271 Debye

 !MCSCF expec         <1.1|DMZ|1.1>    -0.000012629060 au =    -0.000032097766 Debye
 !MCSCF trans         <2.1|DMZ|1.1>    -0.000017101772 au =    -0.000043465522 Debye
 !MCSCF expec         <2.1|DMZ|2.1>     0.000002858505 au =     0.000007265119 Debye
 !MCSCF trans         <3.1|DMZ|1.1>    -0.000000579344 au =    -0.000001472448 Debye
 !MCSCF trans         <3.1|DMZ|2.1>    -0.000017359581 au =    -0.000044120764 Debye
 !MCSCF expec         <3.1|DMZ|3.1>     0.000025755432 au =     0.000065459490 Debye


 NATURAL ORBITALS (state averaged)
 =================================

  Orbital  Occupation    Energy     Coefficients
    1.1     2.00000   -11.25483     1 1s    0.70523     2 1s    0.70363
    2.1     2.00000   -11.25409     1 1s   -0.70369     2 1s    0.70529
    3.1     2.00000    -1.04936     1 1s    0.27786     2 1s    0.27785
    4.1     2.00000    -0.78575     1 1s   -0.31770     2 1s    0.31770
    5.1     2.00000    -0.62371     1 2py   0.30184     2 2py   0.30180
    6.1     2.00000    -0.56009     1 2px   0.25993     2 2px  -0.25993
    7.1     2.00000    -0.41924     1 2pz   0.32475     1 2pz   0.28067     2 2pz   0.32475     2 2pz   0.28067
    8.1     1.00000    -0.08739     1 1s    0.26711     1 2pz   0.40461     1 2pz   0.42932     2 1s    0.26712     2 2pz  -0.40460
                                    2 2pz  -0.42932
    9.1     1.00000    -0.23059     1 2px   0.30938     2 2px  -0.30937     4 1s   -0.29469     5 1s   -0.29467
   10.1    -0.00000     0.21960     1 1s   -1.10439     1 2px   0.47948     1 2py   0.38445     1 2pz   0.37509     2 1s   -1.10450
                                    2 2px  -0.47945     2 2py  -0.38424     2 2pz  -0.37511     3 1s    0.54010     4 1s    1.09844
                                    5 1s    1.09825     6 1s    0.54024
   11.1    -0.00000     0.28069     1 1s    1.66050     1 2py   0.28783     1 2pz  -0.48056     2 1s   -1.66050     2 2py   0.28822
                                    2 2pz  -0.48061     3 1s   -1.43190     6 1s    1.43220
   12.1    -0.00000     0.31551     1 1s   -0.80993     1 2px   0.40216     1 2py  -1.00313     1 2pz   0.43118     2 1s   -0.80902
                                    2 2px  -0.40215     2 2py   1.00312     2 2pz  -0.43092     3 1s    1.58000     4 1s   -0.37957
                                    5 1s   -0.37979     6 1s    1.57938
   13.1    -0.00000     0.31963     1 1s    1.04486     1 2py  -0.84149     1 2pz  -0.32845     2 1s   -1.04528     2 2py  -0.84156
                                    2 2pz  -0.32862     4 1s   -1.70704     5 1s    1.70737
   14.1    -0.00000     0.42962     1 1s    1.88080     1 2px   1.78992     1 2py  -0.52866     1 2pz  -0.72946     2 1s   -1.88088
                                    2 2px   1.78988     2 2py  -0.52859     2 2pz  -0.72950     3 1s    0.63478     6 1s   -0.63462
   15.1    -0.00000     0.69993     1 2px  -0.53527     1 2px   0.90677     2 2px   0.53523     2 2px  -0.90666     4 1s    0.25111
                                    4 1s   -0.48388     5 1s    0.25113     5 1s   -0.48376
   16.1    -0.00000     0.75391     1 1s   -0.42905     1 2py  -0.36681     1 2px  -0.67317     1 2py   0.80544     2 1s    0.42935
                                    2 2py  -0.36669     2 2px  -0.67306     2 2py   0.80515     3 1s   -0.48164     4 1s    0.26079
                                    5 1s   -0.26070     6 1s    0.48162
   17.1    -0.00000     0.78865     1 2py  -0.56141     1 2pz  -0.26215     1 2py   1.21284     1 2pz   0.30742     2 2py   0.56147
                                    2 2pz   0.26241     2 2py  -1.21303     2 2pz  -0.30777     4 1s    0.28521     5 1s    0.28531
   18.1    -0.00000     0.80015     1 1s   -0.36297     1 2pz  -0.73097     1 2pz   0.77430     2 1s    0.36306     2 2pz  -0.73084
                                    2 2pz   0.77412
   19.1    -0.00000     0.86294     1 1s   -0.31460     1 2px  -0.25385     1 2pz  -0.66071     1 2px   0.49333     1 2py  -0.54922
                                    1 2pz   1.01282     2 1s   -0.31460     2 2px   0.25386     2 2pz   0.66076     2 2px  -0.49337
                                    2 2py   0.54938     2 2pz  -1.01284     3 1s    0.27936     6 1s    0.27939
   20.1    -0.00000     0.98020     1 2px   0.71381     1 2py   0.37660     1 2px  -1.07981     1 2py  -0.78592     2 2px   0.71381
                                    2 2py   0.37654     2 2px  -1.07990     2 2py  -0.78593     4 1s   -1.00890     5 1s    1.00885
   21.1    -0.00000     1.09325     1 1s   -0.63869     1 1s    1.16014     1 2px   0.27637     1 2py   0.42329     1 2px  -0.35797
                                    1 2py  -0.43436     2 1s   -0.63836     2 1s    1.15990     2 2px  -0.27669     2 2py  -0.42251
                                    2 2px   0.35798     2 2py   0.43344     4 1s    0.66180     4 1s   -1.16132     5 1s    0.66067
                                    5 1s   -1.15972
   22.1    -0.00000     1.12344     1 1s    0.28016     1 2px  -0.25539     1 2py   0.60858     1 2px   0.26152     1 2py  -0.84372
                                    2 1s   -0.28147     2 2px  -0.25508     2 2py   0.60936     2 2px   0.26105     2 2py  -0.84449
                                    3 1s    0.71960     4 1s    0.64092     4 1s   -1.06855     5 1s   -0.64186     5 1s    1.07023
                                    6 1s   -0.72004
   23.1    -0.00000     1.16000     1 1s    0.32307     1 2px  -0.37303     1 2px   1.05781     1 2py  -0.48587     2 1s   -0.32425
                                    2 2px  -0.37347     2 2px   1.05831     2 2py  -0.48616     3 1s   -0.58926     3 1s    1.16278
                                    4 1s   -0.47397     4 1s    0.46907     5 1s    0.47423     5 1s   -0.46963     6 1s    0.59012
                                    6 1s   -1.16419
   24.1    -0.00000     1.19455     1 1s   -0.56556     1 1s    0.86936     1 2px   0.28204     1 2py  -0.32163     1 2px  -0.25895
                                    1 2py   0.29699     2 1s   -0.56562     2 1s    0.87088     2 2px  -0.28146     2 2py   0.32112
                                    2 2px   0.25722     2 2py  -0.29578     3 1s    0.78466     3 1s   -1.04463     6 1s    0.78379
                                    6 1s   -1.04295
   25.1    -0.00000     1.25342     1 1s   -1.23928     1 1s    2.23580     1 2px  -0.55954     1 2py   0.56219     1 2pz  -0.99785
                                    2 1s   -1.23732     2 1s    2.22972     2 2px   0.56082     2 2py  -0.56298     2 2pz   0.99641
                                    3 1s   -0.39141     3 1s   -0.96940     4 1s   -0.39653     4 1s   -0.40529     5 1s   -0.39629
                                    5 1s   -0.40456     6 1s   -0.39148     6 1s   -0.96845
   26.1    -0.00000     1.28030     1 1s    1.60490     1 1s   -5.10504     1 2px  -1.25200     1 2py   0.72929     1 2pz   1.20763
                                    2 1s   -1.60624     2 1s    5.10753     2 2px  -1.25134     2 2py   0.72875     2 2pz   1.20884
                                    3 1s    0.47762     4 1s    0.25323     4 1s    0.62950     5 1s   -0.25375     5 1s   -0.63006
                                    6 1s   -0.47846
   27.1    -0.00000     1.68998     1 1s    0.61382     1 3d0   0.34189     1 3d2- -0.30245     1 3d2+ -0.32950     2 1s   -0.61382
                                    2 3d0  -0.34183     2 3d2-  0.30242     2 3d2+  0.32954
   28.1    -0.00000     1.91383     1 1s    0.30273     1 1s   -0.64565     1 2pz   0.34053     1 3d0   0.35295     1 3d1+  0.33739
                                    1 3d2+  0.35298     1 3d1-  0.31662     2 1s    0.30285     2 1s   -0.64606     2 2pz  -0.34063
                                    2 3d0   0.35302     2 3d1+  0.33722     2 3d2+  0.35289     2 3d1-  0.31644     3 1s    0.27328
                                    6 1s    0.27326
   29.1    -0.00000     1.93988     1 1s    0.30495     1 1s   -1.35370     1 2px  -0.30837     1 2pz   0.35232     1 3d2-  0.30202
                                    1 3d1+ -0.39894     1 3d1- -0.38372     2 1s   -0.30482     2 1s    1.35340     2 2px  -0.30843
                                    2 2pz   0.35216     2 3d2- -0.30212     2 3d1+  0.39908     2 3d1-  0.38379     3 1s    0.33153
                                    6 1s   -0.33142
   30.1    -0.00000     2.17876     1 1s    0.35106     1 1s   -1.63578     1 2px  -0.37185     1 2py   0.27883     1 2pz   0.43735
                                    1 3d0   0.57081     1 3d2+  0.35644     2 1s   -0.35126     2 1s    1.63597     2 2px  -0.37189
                                    2 2py   0.27888     2 2pz   0.43743     2 3d0  -0.57085     2 3d2+ -0.35629     3 1s    0.35296
                                    4 1s    0.32567     5 1s   -0.32558     6 1s   -0.35298
   31.1    -0.00000     2.24374     1 1s    0.48984     1 1s   -0.32597     1 2px   0.26799     1 2px  -0.28955     1 3d2-  0.31199
                                    1 3d1+  0.39430     1 3d2+ -0.38774     2 1s    0.48966     2 1s   -0.32513     2 2px  -0.26799
                                    2 2px   0.28934     2 3d2-  0.31187     2 3d1+  0.39426     2 3d2+ -0.38784
   32.1    -0.00000     2.34200     1 2py   0.37508     1 3d0   0.51368     1 3d2- -0.36489     1 3d1- -0.37409     2 2py  -0.37511
                                    2 3d0   0.51374     2 3d2- -0.36483     2 3d1- -0.37407     3 1s   -0.28652     4 1s    0.38706
                                    5 1s    0.38713     6 1s   -0.28636
   33.1    -0.00000     2.57629     1 1s    0.27853     1 2py  -0.29405     1 3d2-  0.48358     1 3d1-  0.59842     2 1s   -0.27849
                                    2 2py  -0.29399     2 3d2- -0.48395     2 3d1- -0.59832     3 1s    0.49177     4 1s   -0.40248
                                    5 1s    0.40252     6 1s   -0.49183
   34.1    -0.00000     2.63463     1 2py   0.32498     1 3d2-  0.45092     1 3d2+  0.51218     1 3d1- -0.50621     2 2py  -0.32512
                                    2 3d2-  0.45071     2 3d2+  0.51216     2 3d1- -0.50646     4 1s    0.35120     5 1s    0.35136
   35.1    -0.00000     2.72698     1 3d0  -0.41346     1 3d2- -0.47326     1 3d1+  0.50073     1 3d1- -0.27689     2 3d0  -0.41345
                                    2 3d2- -0.47310     2 3d1+  0.50069     2 3d1- -0.27676     3 1s   -0.47441     6 1s   -0.47417
   36.1    -0.00000     2.95440     1 1s   -1.74815     1 2px  -0.42667     1 2px  -0.88640     1 2pz   0.44796     1 3d2-  0.34591
                                    1 3d1+  0.69868     1 3d2+ -0.64061     2 1s    1.74815     2 2px  -0.42667     2 2px  -0.88640
                                    2 2pz   0.44796     2 3d2- -0.34595     2 3d1+ -0.69867     2 3d2+  0.64065


 Natural orbital dump (state averaged) at molpro section  2140.2    (Orbital set 2)



 **********************************************************************************************************************************
 DATASETS  * FILE   NREC   LENGTH (MB)   RECORD NAMES
              1      20       31.86       500      610      700      900      950      970     1000      129      960     1100   
                                          VAR    BASINP    GEOM    SYMINP    ZMAT    AOBASIS   BASIS     P2S    ABASIS      S 
                                         1400     1410     1200     1210     1080     1600     1650     1300     1700     1380   
                                           T        V       H0       H01     AOSYM     SMH    MOLCAS    ERIS     OPER     JKOP   

              2       5        5.42       700     1000      520     2100     2140   
                                         GEOM     BASIS   MCVARS     RHF     MCSCF   

 PROGRAMS   *        TOTAL     MULTI    HF-SCF       INT
 CPU TIMES  *         0.88      0.37      0.16      0.25
 REAL TIME  *         3.02 SEC
 DISK USED  *        39.04 MB
 **********************************************************************************************************************************
 Molecular orbitals read from record     2140.2  Type=MCSCF/NATURAL (state averaged)
 Occupation numbers read from record     2140.2  Type=MCSCF/NATURAL (state averaged)
 Orbital energies read from record       2140.2  Type=MCSCF/NATURAL (state averaged)
 Redundancy group numbers read from rec  2140.2  Type=MCSCF/NATURAL (state averaged)

 MULTI/6-31G* energy=    -77.553069160160

           MULTI          HF-SCF
    -77.55306916    -77.84768817
 **********************************************************************************************************************************
 Molpro calculation terminated
