
 Primary working directories    : /scratch.local/johan406.molpro_temp/molpro.555CjGo6t8
 Secondary working directories  : /scratch.local/johan406.molpro_temp/molpro.555CjGo6t8
 Wavefunction directory         : /home/goodpast/johan406/wfu/
 Main file repository           : /scratch.local/johan406.molpro_temp/molpro.555CjGo6t8/

 id        : roweumn

 Nodes     nprocs
 acn09        1

 Using customized tuning parameters: mindgm=1; mindgv=20; mindgc=4; mindgr=1; noblas=0; minvec=7
 default implementation of scratch files=df  


 Variables initialized (934), CPU time= 0.00 sec
                                                                                 !leave this line blank
 
 gprint, orbitals=30
 memory, 125., m
 symmetry, nosym
 nelect=16
 basis=6-31g*
 
 geometry={
 C -0.6408 0.152 0.3109
 C 0.6496 -0.2019 -0.3713
 H -1.365 0.8373 -0.159
 H -1.0173 -0.8213 -0.1823
 H 1.0262 0.7714 0.1219
 H 1.3739 -0.8872 0.0986
 }
 
 hf
 {multi,
 closed 7
 occ 9
 wf,spin=0;STATE,3
 }
 
 Commands  initialized (763), CPU time= 0.02 sec, 617 directives.
 Default parameters read. Elapsed time= 0.09 sec

 Checking input...
 Passed
1


                                         ***  PROGRAM SYSTEM MOLPRO  ***
                                       Copyright, TTI GmbH Stuttgart, 2015
                                    Version 2019.2 linked Oct 25 2019 22:50:27


 **********************************************************************************************************************************
 LABEL *                                                                                 
  64 bit serial version                                                                  DATE: 07-Feb-23          TIME: 15:30:00  
 **********************************************************************************************************************************

 SHA1:             8dbd9ae1082e4ce945b0f27595c9eb2d4aa09004
 **********************************************************************************************************************************


 Variable memory set to  125000000 words,  buffer space 

 SETTING NELECT         =        16.00000000                                  
 SETTING BASIS          =    6-31G*
 ZSYMEL=NOSYM


Geometry recognized as XYZ



 Recomputing integrals since basis changed


 Using spherical harmonics

 Library entry C      S 6-31G                selected for orbital group  1
 Library entry C      P 6-31G                selected for orbital group  1
 Library entry C      D 6-31G*               selected for orbital group  1
 Library entry H      S 6-31G                selected for orbital group  2


 PROGRAM * SEWARD (Integral evaluation for generally contracted gaussian basis sets)     Author: Roland Lindh, 1990

 Geometry written to block  1 of record 700


 Point group  C1  



 ATOMIC COORDINATES

 NR  ATOM    CHARGE       X              Y              Z

   1  C       6.00   -1.210936501    0.287238371    0.587515852
   2  C       6.00    1.227566091   -0.381535705   -0.701655310
   3  H       1.00   -2.579476160    1.582267684   -0.300466454
   4  H       1.00   -1.922418387   -1.552032066   -0.344497073
   5  H       1.00    1.939236949    1.457734732    0.230357615
   6  H       1.00    2.596294723   -1.676565018    0.186326996

 Bond lengths in Bohr (Angstrom)

 1-2  2.838224081  1-3  2.082910055  1-4  2.181231374  2-5  2.181293021  2-6  2.083034221
     ( 1.501923503)     ( 1.102228533)     ( 1.154257935)     ( 1.154290557)     ( 1.102294239)

 Bond angles

  1-2-5   83.54351181   1-2-6  121.15845555   2-1-3  121.15530174   2-1-4   83.53903654

  3-1-4   97.34212650   5-2-6   97.33647987

 NUCLEAR CHARGE:                   16
 NUMBER OF PRIMITIVE AOS:          72
 NUMBER OF SYMMETRY AOS:           70
 NUMBER OF CONTRACTIONS:           36   (   36A   )
 NUMBER OF CORE ORBITALS:           2   (    2A   )
 NUMBER OF VALENCE ORBITALS:       12   (   12A   )


 NUCLEAR REPULSION ENERGY   31.71604875

 Eigenvalues of metric

         1 0.103E-01 0.258E-01 0.582E-01 0.710E-01 0.857E-01 0.226E+00 0.239E+00 0.291E+00


 Contracted 2-electron integrals neglected if value below      1.0D-11
 AO integral compression algorithm  1   Integral accuracy      1.0D-11

     1.573 MB (compressed) written to integral file ( 58.6%)


 NUMBER OF SORTED TWO-ELECTRON INTEGRALS:     222111.     BUFFER LENGTH:  32768
 NUMBER OF SEGMENTS:   1  SEGMENT LENGTH:     222111      RECORD LENGTH: 524288

 Memory used in sort:       0.78 MW

 SORT1 READ      284735. AND WROTE      212529. INTEGRALS IN      1 RECORDS. CPU TIME:     0.01 SEC, REAL TIME:     0.02 SEC
 SORT2 READ      212529. AND WROTE      222111. INTEGRALS IN      6 RECORDS. CPU TIME:     0.03 SEC, REAL TIME:     0.03 SEC

 FILE SIZES:   FILE 1:    31.7 MBYTE,  FILE 4:     4.2 MBYTE,   TOTAL:     35.9 MBYTE

 OPERATOR DM      FOR CENTER  0  COORDINATES:    0.000000    0.000000    0.000000


 **********************************************************************************************************************************
 DATASETS  * FILE   NREC   LENGTH (MB)   RECORD NAMES
              1      19       31.13       500      610      700      900      950      970     1000      129      960     1100   
                                          VAR    BASINP    GEOM    SYMINP    ZMAT    AOBASIS   BASIS     P2S    ABASIS      S 
                                         1400     1410     1200     1210     1080     1600     1650     1300     1700   
                                           T        V       H0       H01     AOSYM     SMH    MOLCAS    ERIS     OPER   

 PROGRAMS   *        TOTAL       INT
 CPU TIMES  *         0.45      0.34
 REAL TIME  *         0.93 SEC
 DISK USED  *        36.24 MB
 **********************************************************************************************************************************


 PROGRAM * RHF-SCF (CLOSED SHELL)       Authors: W. Meyer, H.-J. Werner


 NUMBER OF ELECTRONS:       8+    8-    SPACE SYMMETRY=1    SPIN SYMMETRY: Singlet 
 CONVERGENCE THRESHOLDS:    1.00E-05 (Density)    1.00E-07 (Energy)
 MAX. NUMBER OF ITERATIONS:       60
 INTERPOLATION TYPE:            DIIS
 INTERPOLATION STEPS:              2 (START)      1 (STEP)
 LEVEL SHIFTS:                  0.00 (CLOSED)  0.00 (OPEN) 



 Orbital guess generated from atomic densities. Full valence occupancy:    8

 Molecular orbital dump at record        2100.2

 Initial occupancy:   8

 ITERATION    DDIFF          GRAD             ENERGY        2-EL.EN.            DIPOLE MOMENTS         DIIS   ORB.
    1      0.000D+00      0.000D+00       -77.79988585    114.523941    0.00012   -0.00005   -0.00007    0    start
    2      0.000D+00      0.683D-02       -77.81865806    113.686804   -0.00001    0.00002    0.00006    1    diag
    3      0.738D-02      0.232D-02       -77.82140269    114.061535    0.00007   -0.00003   -0.00007    2    diag
    4      0.336D-02      0.932D-03       -77.82214292    113.927062   -0.00002    0.00002    0.00005    3    diag
    5      0.189D-02      0.435D-03       -77.82252183    113.940293    0.00008   -0.00005   -0.00011    4    diag
    6      0.161D-02      0.197D-03       -77.82264805    113.942122   -0.00021    0.00015    0.00035    5    diag
    7      0.108D-02      0.668D-04       -77.82266180    113.944257    0.00048   -0.00034   -0.00075    6    diag
    8      0.380D-03      0.248D-04       -77.82266276    113.944416   -0.00037    0.00027    0.00062    7    diag
    9      0.828D-04      0.145D-04       -77.82266297    113.944374    0.00004   -0.00002   -0.00004    8    diag
   10      0.444D-04      0.280D-05       -77.82266298    113.944342    0.00001   -0.00000    0.00000    9    orth
   11      0.781D-05      0.503D-06       -77.82266298    113.944342    0.00001   -0.00001    0.00000    0    orth

 Final occupancy:   8

 !RHF STATE  1.1 Energy               -77.822662983727
 Nuclear energy                        31.71604875
 One-electron energy                 -166.51088275
 Two-electron energy                   56.97217102
 Virial quotient                       -1.00201567
 !RHF STATE  1.1 Dipole moment          0.00001275    -0.00000519     0.00000029
 Dipole moment /Debye                   0.00003242    -0.00001320     0.00000073

 ELECTRON ORBITALS
 =================

  Orbital  Occupation    Energy     Coefficients
    1.1     2.00000   -11.26943     1 1s    0.69821     2 1s    0.71072
    2.1     2.00000   -11.26877     1 1s   -0.71079     2 1s    0.69828
    3.1     2.00000    -1.02203     1 1s    0.28300     1 1s    0.25671     2 1s    0.28298     2 1s    0.25670
    4.1     2.00000    -0.79678     1 1s   -0.29069     2 1s    0.29072
    5.1     2.00000    -0.59454     1 2py   0.31054     2 2py   0.31039
    6.1     2.00000    -0.56224     1 2px   0.31232     2 2px  -0.31229
    7.1     2.00000    -0.39010     1 2pz   0.30102     1 2pz   0.28120     2 2pz   0.30101     2 2pz   0.28120
    8.1     2.00000    -0.37937     1 2px   0.25035     2 2px  -0.25031     4 1s   -0.29196     5 1s   -0.29197
    9.1     0.00000     0.05008     1 1s    0.36984     1 2pz   0.33643     1 2pz   0.45758     2 1s    0.36989     2 2pz  -0.33642
                                    2 2pz  -0.45756
   10.1     0.00000     0.23348     1 1s   -1.07081     1 2px   0.48962     1 2py   0.40493     1 2pz   0.42896     2 1s   -1.07075
                                    2 2px  -0.48967     2 2py  -0.40496     2 2pz  -0.42893     3 1s    0.54137     4 1s    1.10459
                                    5 1s    1.10465     6 1s    0.54129
   11.1     0.00000     0.26663     1 1s    1.52732     1 2py   0.28702     1 2pz  -0.48153     2 1s   -1.52757     2 2py   0.28731
                                    2 2pz  -0.48174     3 1s   -1.33858     6 1s    1.33909
   12.1     0.00000     0.30875     1 1s   -0.80380     1 2px   0.45696     1 2py  -0.88809     1 2pz   0.47750     2 1s   -0.80275
                                    2 2px  -0.45697     2 2py   0.88803     2 2pz  -0.47717     3 1s    1.55278     4 1s   -0.33291
                                    5 1s   -0.33318     6 1s    1.55204
   13.1     0.00000     0.32969     1 1s   -0.97285     1 2px   0.38636     1 2py   0.68760     1 2pz   0.32074     2 1s    0.97281
                                    2 2px   0.38648     2 2py   0.68742     2 2pz   0.32080     4 1s    1.63131     5 1s   -1.63108
   14.1     0.00000     0.41867     1 1s    1.75518     1 2px   1.67637     1 2py  -0.67241     1 2pz  -0.74731     2 1s   -1.75522
                                    2 2px   1.67634     2 2py  -0.67237     2 2pz  -0.74735     3 1s    0.75642     4 1s   -0.31235
                                    5 1s    0.31231     6 1s   -0.75636
   15.1     0.00000     0.72200     1 2px  -0.55897     1 2px   0.93431     2 2px   0.55884     2 2px  -0.93402     3 1s    0.29519
                                    4 1s   -0.40323     5 1s   -0.40326     6 1s    0.29522
   16.1     0.00000     0.72954     1 1s   -0.43767     1 2py  -0.39878     1 2px  -0.70924     1 2py   0.71734     2 1s    0.43775
                                    2 2py  -0.39855     2 2px  -0.70959     2 2py   0.71685     3 1s   -0.46041     4 1s    0.25649
                                    5 1s   -0.25630     6 1s    0.46041
   17.1     0.00000     0.79506     1 1s    0.28742     1 2py  -0.54806     1 2pz  -0.38136     1 2py   1.08833     1 2pz   0.38542
                                    2 1s    0.28732     2 2py   0.54817     2 2pz   0.38144     2 2py  -1.08848     2 2pz  -0.38552
   18.1     0.00000     0.80526     1 2pz   0.74661     1 2pz  -0.69366     2 2pz   0.74653     2 2pz  -0.69353
   19.1     0.00000     0.86623     1 1s   -0.40243     1 2px  -0.26446     1 2py   0.26070     1 2pz  -0.62483     1 2px   0.50908
                                    1 2py  -0.68375     1 2pz   0.88025     2 1s   -0.40244     2 2px   0.26445     2 2py  -0.26079
                                    2 2pz   0.62487     2 2px  -0.50920     2 2py   0.68389     2 2pz  -0.88023     3 1s    0.28790
                                    6 1s    0.28795
   20.1     0.00000     0.96238     1 1s   -0.28116     1 1s    0.48255     1 2px  -0.70791     1 2py  -0.34740     1 2px   1.31942
                                    1 2py   0.63010     2 1s    0.28125     2 1s   -0.48270     2 2px  -0.70795     2 2py  -0.34742
                                    2 2px   1.31954     2 2py   0.63013     4 1s    0.96855     5 1s   -0.96847
   21.1     0.00000     1.10210     1 1s   -0.44661     1 1s    0.88774     1 2py   0.45365     1 2px  -0.27995     1 2py  -0.45022
                                    2 1s   -0.44674     2 1s    0.88835     2 2py  -0.45435     2 2px   0.27914     2 2py   0.45138
                                    3 1s   -0.34694     3 1s    0.27339     4 1s    0.62813     4 1s   -1.13624     5 1s    0.62860
                                    5 1s   -1.13728     6 1s   -0.34751     6 1s    0.27475
   22.1     0.00000     1.12798     1 1s    0.31566     1 2px  -0.35898     1 2py   0.60652     1 2px   0.64819     1 2py  -0.95352
                                    2 1s   -0.31361     2 2px  -0.35937     2 2py   0.60606     2 2px   0.64881     2 2py  -0.95308
                                    3 1s   -0.47005     3 1s    1.13030     4 1s    0.39811     4 1s   -0.84211     5 1s   -0.39725
                                    5 1s    0.84044     6 1s    0.47006     6 1s   -1.13069
   23.1     0.00000     1.17826     1 1s   -0.88729     1 1s    1.46574     1 2px   0.33463     1 2px  -0.44389     1 2pz  -0.31316
                                    2 1s   -0.89877     2 1s    1.48471     2 2px  -0.33879     2 2px   0.45243     2 2pz   0.31820
                                    3 1s    0.65300     3 1s   -1.13218     4 1s   -0.38762     5 1s   -0.40389     6 1s    0.65983
                                    6 1s   -1.14487
   24.1     0.00000     1.18088     1 1s    0.67915     1 1s   -1.10080     1 2px  -0.26066     1 2pz  -0.28023     1 2px   0.53906
                                    1 2pz   0.29175     2 1s   -0.66400     2 1s    1.07571     2 2px  -0.25495     2 2pz  -0.27671
                                    2 2px   0.53145     2 2pz   0.28635     3 1s   -0.42901     3 1s    0.80488     4 1s   -0.62025
                                    4 1s    0.93017     5 1s    0.61741     5 1s   -0.92343     6 1s    0.41791     6 1s   -0.78555
   25.1     0.00000     1.30053     1 1s   -1.46453     1 1s    4.64922     1 2px   1.11303     1 2py  -0.77385     1 2pz  -1.17275
                                    2 1s    1.46350     2 1s   -4.64721     2 2px   1.11355     2 2py  -0.77433     2 2pz  -1.17183
                                    3 1s   -0.34457     4 1s   -0.40755     4 1s   -0.52841     5 1s    0.40725     5 1s    0.52798
                                    6 1s    0.34369
   26.1     0.00000     1.33859     1 1s   -1.13616     1 1s    2.17353     1 2px  -0.71619     1 2py   0.48975     1 2pz  -1.12258
                                    2 1s   -1.13736     2 1s    2.17699     2 2px   0.71542     2 2py  -0.48909     2 2pz   1.12343
                                    3 1s   -0.52743     3 1s   -0.92499     4 1s   -0.47790     4 1s   -0.36555     5 1s   -0.47822
                                    5 1s   -0.36598     6 1s   -0.52758     6 1s   -0.92511
   27.1     0.00000     1.68860     1 1s   -0.51038     1 3d0  -0.31272     1 3d2-  0.33381     1 3d2+  0.35432     2 1s    0.51000
                                    2 3d0   0.31265     2 3d2- -0.33381     2 3d2+ -0.35439
   28.1     0.00000     1.86682     1 1s   -0.30151     1 3d0   0.36508     1 3d1+  0.33175     1 3d2+  0.37258     1 3d1-  0.30591
                                    2 1s   -0.30161     2 3d0   0.36519     2 3d1+  0.33166     2 3d2+  0.37255     2 3d1-  0.30588
   29.1     0.00000     2.01414     1 1s   -0.33696     1 1s    1.37136     1 2pz  -0.38355     1 3d1+  0.42770     1 3d2+  0.25370
                                    1 3d1-  0.39027     2 1s    0.33697     2 1s   -1.37137     2 2pz  -0.38358     2 3d1+ -0.42776
                                    2 3d2+ -0.25375     2 3d1- -0.39031     3 1s   -0.33247     6 1s    0.33249
   30.1     0.00000     2.10045     1 1s    0.38832     1 1s   -1.61787     1 2px  -0.27003     1 2py   0.27145     1 2pz   0.45973
                                    1 3d0   0.58279     1 3d2+  0.29144     2 1s   -0.38821     2 1s    1.61769     2 2px  -0.26995
                                    2 2py   0.27146     2 2pz   0.45966     2 3d0  -0.58268     2 3d2+ -0.29145     3 1s    0.38115
                                    4 1s    0.30680     5 1s   -0.30674     6 1s   -0.38112
   31.1     0.00000     2.18702     1 1s    0.47682     1 1s   -0.29104     1 2px   0.26714     1 2px  -0.30877     1 3d1+  0.38235
                                    1 3d2+ -0.37240     2 1s    0.47687     2 1s   -0.29130     2 2px  -0.26714     2 2px   0.30886
                                    2 3d1+  0.38236     2 3d2+ -0.37235
   32.1     0.00000     2.30758     1 2py   0.26794     1 3d0   0.49675     1 3d2- -0.41122     1 3d1- -0.30708     2 2py  -0.26800
                                    2 3d0   0.49685     2 3d2- -0.41131     2 3d1- -0.30720     4 1s    0.37513     5 1s    0.37524
   33.1     0.00000     2.54024     1 1s    0.46486     1 2px   0.27040     1 2py  -0.25196     1 3d2-  0.45769     1 3d1-  0.58625
                                    2 1s   -0.46493     2 2px   0.27028     2 2py  -0.25194     2 3d2- -0.45773     2 3d1- -0.58630
                                    3 1s    0.45247     4 1s   -0.41737     5 1s    0.41742     6 1s   -0.45247
   34.1     0.00000     2.60636     1 1s    0.26307     1 2py  -0.29471     1 3d2- -0.44182     1 3d2+ -0.48066     1 3d1-  0.50473
                                    2 1s    0.26289     2 2py   0.29464     2 3d2- -0.44183     2 3d2+ -0.48063     2 3d1-  0.50463
                                    4 1s   -0.35910     5 1s   -0.35899
   35.1     0.00000     2.71877     1 3d0  -0.38656     1 3d2- -0.46157     1 3d1+  0.47585     1 3d1- -0.30951     2 3d0  -0.38658
                                    2 3d2- -0.46139     2 3d1+  0.47580     2 3d1- -0.30928     3 1s   -0.48914     6 1s   -0.48893
   36.1     0.00000     2.92708     1 1s   -1.67165     1 2px  -0.35997     1 2px  -0.87320     1 2py   0.26174     1 2pz   0.44292
                                    1 3d2-  0.37124     1 3d1+  0.67824     1 3d2+ -0.61224     2 1s    1.67165     2 2px  -0.35996
                                    2 2px  -0.87321     2 2py   0.26175     2 2pz   0.44292     2 3d2- -0.37127     2 3d1+ -0.67822
                                    2 3d2+  0.61223


 HOMO      8.1    -0.379374 =     -10.3233eV
 LUMO      9.1     0.050078 =       1.3627eV
 LUMO-HOMO         0.429452 =      11.6860eV


 **********************************************************************************************************************************
 DATASETS  * FILE   NREC   LENGTH (MB)   RECORD NAMES
              1      19       31.13       500      610      700      900      950      970     1000      129      960     1100   
                                          VAR    BASINP    GEOM    SYMINP    ZMAT    AOBASIS   BASIS     P2S    ABASIS      S 
                                         1400     1410     1200     1210     1080     1600     1650     1300     1700   
                                           T        V       H0       H01     AOSYM     SMH    MOLCAS    ERIS     OPER   

              2       4        2.86       700     1000      520     2100   
                                         GEOM     BASIS   MCVARS     RHF  

 PROGRAMS   *        TOTAL    HF-SCF       INT
 CPU TIMES  *         0.66      0.21      0.34
 REAL TIME  *         1.25 SEC
 DISK USED  *        36.24 MB
 **********************************************************************************************************************************


 PROGRAM * MULTI (Direct Multiconfiguration SCF)       Authors: P.J. Knowles, H.-J. Werner (1984)


 Number of closed-shell orbitals:   7 (   7 )
 Number of active  orbitals:        2 (   2 )
 Number of external orbitals:      27 (  27 )

 State symmetry 1

 Number of electrons:     2    Spin symmetry=Singlet   Space symmetry=1
 Number of states:        3
 Number of CSFs:          3   (4 determinants, 4 intermediate states)

 Molecular orbitals read from record     2100.2  Type=RHF/CANONICAL (state 1.1)

 Wavefunction dump at record             2140.2

 Convergence thresholds  0.10E-01 (gradient)  0.10E-05 (energy)  0.10E-02 (step length)

 Weight factors for state symmetry  1:    0.33333   0.33333   0.33333

 Number of orbital rotations:      257   (    14 Core/Active    189 Core/Virtual   0 Active/Active     54 Active/Virtual)
 Total number of variables:        269

 Micro-Iterations solved by the two-step solver

 ITER. MIC  NCI  NEG     ENERGY(VAR)     ENERGY(PROJ)   ENERGY CHANGE     GRAD(0)  GRAD(ORB)   GRAD(CI)     STEP       TIME

   1    6    5    0     -77.68468786     -77.70284888   -0.01816102    0.16251996 0.00101570 0.00000000  0.13D+00      0.17
   2    6    5    0     -77.70265862     -77.70267159   -0.00001297    0.00559696 0.00000236 0.00000000  0.31D-02      0.27
   3    3    4    0     -77.70267160     -77.70267160   -0.00000000    0.00000786 0.00000000 0.00000000  0.82D-05      0.33

 ** WVFN ****  CONVERGENCE REACHED, FINAL GRADIENT:  0.47D-10



 Results for state 1.1
 =====================

 !MCSCF STATE  1.1 Energy             -77.815935800230
 Nuclear energy                        31.71604875
 Kinetic energy                        77.66878082
 One electron energy                 -166.50466691
 Two electron energy                   56.97268236
 Virial ratio                           2.00189465

 !MCSCF STATE  1.1 Dipole moment       -0.00000585    -0.00000427    -0.00000590
 Dipole moment /Debye                  -0.00001486    -0.00001085    -0.00001499

 Results for state 2.1
 =====================

 !MCSCF STATE  2.1 Energy             -77.731211929190
 Nuclear energy                        31.71604875
 Kinetic energy                        77.74285711
 One electron energy                 -166.32426915
 Two electron energy                   56.87700847
 Virial ratio                           1.99985021

 !MCSCF STATE  2.1 Dipole moment        0.00003779     0.00001424    -0.00000113
 Dipole moment /Debye                   0.00009606     0.00003618    -0.00000287

 Results for state 3.1
 =====================

 !MCSCF STATE  3.1 Energy             -77.560867065009
 Nuclear energy                        31.71604875
 Kinetic energy                        77.81119967
 One electron energy                 -166.15885128
 Two electron energy                   56.88193546
 Virial ratio                           1.99678282

 !MCSCF STATE  3.1 Dipole moment        0.00007800     0.00003600     0.00000623
 Dipole moment /Debye                   0.00019825     0.00009151     0.00001584

 State-averaged charge density matrix saved on record  2140.2 (density set 1)

 !MCSCF expec         <1.1|DMX|1.1>    -0.000005845510 au =    -0.000014856831 Debye
 !MCSCF trans         <2.1|DMX|1.1>     0.000024162970 au =     0.000061412121 Debye
 !MCSCF expec         <2.1|DMX|2.1>     0.000037793955 au =     0.000096056360 Debye
 !MCSCF trans         <3.1|DMX|1.1>    -0.000004846345 au =    -0.000012317373 Debye
 !MCSCF trans         <3.1|DMX|2.1>     0.000027728490 au =     0.000070474176 Debye
 !MCSCF expec         <3.1|DMX|3.1>     0.000078003492 au =     0.000198252115 Debye

 !MCSCF expec         <1.1|DMY|1.1>    -0.000004267805 au =    -0.000010846967 Debye
 !MCSCF trans         <2.1|DMY|1.1>    -0.000023707241 au =    -0.000060253850 Debye
 !MCSCF expec         <2.1|DMY|2.1>     0.000014235104 au =     0.000036179656 Debye
 !MCSCF trans         <3.1|DMY|1.1>    -0.000001504470 au =    -0.000003823731 Debye
 !MCSCF trans         <3.1|DMY|2.1>    -0.000025777542 au =    -0.000065515685 Debye
 !MCSCF expec         <3.1|DMY|3.1>     0.000036004414 au =     0.000091508097 Debye

 !MCSCF expec         <1.1|DMZ|1.1>    -0.000005899352 au =    -0.000014993675 Debye
 !MCSCF trans         <2.1|DMZ|1.1>    -0.000018680764 au =    -0.000047478657 Debye
 !MCSCF expec         <2.1|DMZ|2.1>    -0.000001128436 au =    -0.000002868011 Debye
 !MCSCF trans         <3.1|DMZ|1.1>    -0.000000184200 au =    -0.000000468160 Debye
 !MCSCF trans         <3.1|DMZ|2.1>    -0.000020540540 au =    -0.000052205425 Debye
 !MCSCF expec         <3.1|DMZ|3.1>     0.000006232139 au =     0.000015839480 Debye


 NATURAL ORBITALS (state averaged)
 =================================

  Orbital  Occupation    Energy     Coefficients
    1.1     2.00000   -11.26163     1 1s    0.69894     2 1s    0.70995
    2.1     2.00000   -11.26100     1 1s   -0.70999     2 1s    0.69898
    3.1     2.00000    -1.03559     1 1s    0.27568     1 1s    0.25252     2 1s    0.27566     2 1s    0.25251
    4.1     2.00000    -0.79851     1 1s   -0.31247     2 1s    0.31249
    5.1     2.00000    -0.59451     1 2py   0.29996     2 2py   0.29978
    6.1     2.00000    -0.56032     1 2px   0.27750     2 2px  -0.27749
    7.1     2.00000    -0.41619     1 2pz   0.31733     1 2pz   0.27884     2 2pz   0.31733     2 2pz   0.27884
    8.1     1.00000    -0.10014     1 1s    0.26102     1 2pz   0.40628     1 2pz   0.41700     2 1s    0.26104     2 2pz  -0.40628
                                    2 2pz  -0.41699
    9.1     1.00000    -0.22700     1 2px   0.28555     2 2px  -0.28554     4 1s   -0.30315     5 1s   -0.30316
   10.1    -0.00000     0.21952     1 1s   -1.05967     1 2px   0.48355     1 2py   0.43211     1 2pz   0.37807     2 1s   -1.05967
                                    2 2px  -0.48360     2 2py  -0.43214     2 2pz  -0.37806     3 1s    0.49236     4 1s    1.11061
                                    5 1s    1.11070     6 1s    0.49231
   11.1    -0.00000     0.26459     1 1s    1.61684     1 2pz  -0.49888     2 1s   -1.61705     2 2pz  -0.49904     3 1s   -1.33319
                                    6 1s    1.33364
   12.1    -0.00000     0.31123     1 1s   -0.86641     1 2px   0.46368     1 2py  -0.87722     1 2pz   0.45528     2 1s   -0.86451
                                    2 2px  -0.46346     2 2py   0.87793     2 2pz  -0.45466     3 1s    1.57320     4 1s   -0.28111
                                    5 1s   -0.28296     6 1s    1.57262
   13.1    -0.00000     0.31560     1 1s   -0.95809     1 2px   0.25147     1 2py   0.78058     1 2pz   0.33247     2 1s    0.95886
                                    2 2px   0.25200     2 2py   0.77958     2 2pz   0.33294     4 1s    1.65503     5 1s   -1.65453
   14.1    -0.00000     0.42488     1 1s    1.61732     1 2px   0.25503     1 2px   1.69389     1 2py  -0.56891     1 2pz  -0.67812
                                    2 1s   -1.61737     2 2px   0.25504     2 2px   1.69387     2 2py  -0.56888     2 2pz  -0.67815
                                    3 1s    0.77078     6 1s   -0.77073
   15.1    -0.00000     0.71747     1 2px  -0.53811     1 2px   0.90619     2 2px   0.53802     2 2px  -0.90605     3 1s    0.29819
                                    4 1s    0.26574     4 1s   -0.46783     5 1s    0.26581     5 1s   -0.46784     6 1s    0.29823
   16.1    -0.00000     0.72673     1 1s   -0.54461     1 2py  -0.38556     1 2px  -0.76031     1 2py   0.73402     2 1s    0.54473
                                    2 2py  -0.38537     2 2px  -0.76045     2 2py   0.73356     3 1s   -0.45937     4 1s    0.27234
                                    5 1s   -0.27218     6 1s    0.45937
   17.1    -0.00000     0.79645     1 2py  -0.52948     1 2pz  -0.36391     1 2py   1.07373     1 2pz   0.43695     2 2py   0.52958
                                    2 2pz   0.36398     2 2py  -1.07388     2 2pz  -0.43706
   18.1    -0.00000     0.80418     1 1s    0.29369     1 2pz   0.74433     1 2pz  -0.76146     2 1s   -0.29367     2 2pz   0.74424
                                    2 2pz  -0.76131
   19.1    -0.00000     0.86728     1 1s   -0.37097     1 2px  -0.28534     1 2pz  -0.60523     1 2px   0.54619     1 2py  -0.66905
                                    1 2pz   0.92647     2 1s   -0.37097     2 2px   0.28532     2 2pz   0.60529     2 2px  -0.54631
                                    2 2py   0.66918     2 2pz  -0.92646     3 1s    0.32729     6 1s    0.32734
   20.1    -0.00000     0.96883     1 1s   -0.28640     1 1s    0.44514     1 2px  -0.70387     1 2py  -0.34799     1 2px   1.26117
                                    1 2py   0.63262     2 1s    0.28649     2 1s   -0.44529     2 2px  -0.70392     2 2py  -0.34802
                                    2 2px   1.26129     2 2py   0.63265     4 1s    0.92272     5 1s   -0.92264
   21.1    -0.00000     1.07693     1 1s   -0.49875     1 1s    0.95568     1 2py   0.46324     1 2px  -0.31915     1 2py  -0.47487
                                    2 1s   -0.49904     2 1s    0.95639     2 2py  -0.46375     2 2px   0.31877     2 2py   0.47569
                                    3 1s   -0.25879     4 1s    0.64651     4 1s   -1.14004     5 1s    0.64702     5 1s   -1.14103
                                    6 1s   -0.25903
   22.1    -0.00000     1.11080     1 1s   -0.27349     1 1s    0.62959     1 2py   0.60555     1 2px   0.32327     1 2py  -0.88764
                                    2 1s    0.27286     2 1s   -0.62843     2 2py   0.60517     2 2px   0.32362     2 2py  -0.88725
                                    3 1s    0.68825     4 1s    0.63380     4 1s   -1.15413     5 1s   -0.63322     5 1s    1.15303
                                    6 1s   -0.68830
   23.1    -0.00000     1.16290     1 1s    0.53903     1 1s   -0.67453     1 2px  -0.41050     1 2px   0.83895     1 2py  -0.34952
                                    2 1s   -0.54163     2 1s    0.67868     2 2px  -0.41148     2 2px   0.84021     2 2py  -0.35024
                                    3 1s   -0.58770     3 1s    1.18782     4 1s   -0.40059     4 1s    0.49005     5 1s    0.40096
                                    5 1s   -0.49096     6 1s    0.58982     6 1s   -1.19126
   24.1    -0.00000     1.18056     1 1s   -0.84119     1 1s    1.35928     1 2px   0.31907     1 2px  -0.40709     1 2py   0.25500
                                    1 2pz  -0.25432     2 1s   -0.83970     2 1s    1.35774     2 2px  -0.31779     2 2px   0.40434
                                    2 2py  -0.25365     2 2pz   0.25397     3 1s    0.69472     3 1s   -1.14498     4 1s   -0.27587
                                    5 1s   -0.27463     6 1s    0.69284     6 1s   -1.14117
   25.1    -0.00000     1.29313     1 1s   -1.50012     1 1s    4.70717     1 2px   1.11728     1 2py  -0.77092     1 2pz  -1.17342
                                    2 1s    1.49899     2 1s   -4.70497     2 2px   1.11787     2 2py  -0.77144     2 2pz  -1.17244
                                    3 1s   -0.36422     4 1s   -0.37816     4 1s   -0.55550     5 1s    0.37786     5 1s    0.55501
                                    6 1s    0.36324
   26.1    -0.00000     1.32646     1 1s   -1.16460     1 1s    2.23066     1 2px  -0.73422     1 2py   0.49893     1 2pz  -1.12937
                                    2 1s   -1.16591     2 1s    2.23442     2 2px   0.73338     2 2py  -0.49822     2 2pz   1.13029
                                    3 1s   -0.53059     3 1s   -0.93768     4 1s   -0.45008     4 1s   -0.41097     5 1s   -0.45041
                                    5 1s   -0.41145     6 1s   -0.53074     6 1s   -0.93783
   27.1    -0.00000     1.68327     1 1s   -0.52974     1 3d0  -0.30507     1 3d2-  0.33716     1 3d2+  0.35719     2 1s    0.52936
                                    2 3d0   0.30500     2 3d2- -0.33716     2 3d2+ -0.35726
   28.1    -0.00000     1.86409     1 1s   -0.29513     1 3d0   0.36191     1 3d1+  0.32881     1 3d2+  0.37796     1 3d1-  0.30578
                                    2 1s   -0.29521     2 3d0   0.36202     2 3d1+  0.32872     2 3d2+  0.37793     2 3d1-  0.30575
   29.1    -0.00000     2.01153     1 1s   -0.32889     1 1s    1.33692     1 2pz  -0.37359     1 3d1+  0.42969     1 3d2+  0.25476
                                    1 3d1-  0.39152     2 1s    0.32890     2 1s   -1.33694     2 2pz  -0.37362     2 3d1+ -0.42974
                                    2 3d2+ -0.25481     2 3d1- -0.39156     3 1s   -0.33020     6 1s    0.33022
   30.1    -0.00000     2.10130     1 1s    0.38940     1 1s   -1.60199     1 2px  -0.26246     1 2py   0.27190     1 2pz   0.45226
                                    1 3d0   0.58680     1 3d2+  0.29163     2 1s   -0.38930     2 1s    1.60182     2 2px  -0.26238
                                    2 2py   0.27191     2 2pz   0.45219     2 3d0  -0.58670     2 3d2+ -0.29164     3 1s    0.38013
                                    4 1s    0.30070     5 1s   -0.30064     6 1s   -0.38009
   31.1    -0.00000     2.18605     1 1s    0.46937     1 1s   -0.28657     1 2px   0.27445     1 2px  -0.30449     1 3d2-  0.26215
                                    1 3d1+  0.39201     1 3d2+ -0.37176     2 1s    0.46941     2 1s   -0.28679     2 2px  -0.27446
                                    2 2px   0.30457     2 3d2-  0.26214     2 3d1+  0.39202     2 3d2+ -0.37172
   32.1    -0.00000     2.30068     1 2py   0.28423     1 3d0   0.49839     1 3d2- -0.40926     1 3d1- -0.32251     2 2py  -0.28430
                                    2 3d0   0.49849     2 3d2- -0.40936     2 3d1- -0.32263     4 1s    0.36545     5 1s    0.36557
   33.1    -0.00000     2.53412     1 1s    0.43752     1 2px   0.25804     1 3d2-  0.46395     1 3d1-  0.58533     2 1s   -0.43759
                                    2 2px   0.25791     2 3d2- -0.46396     2 3d1- -0.58538     3 1s    0.45727     4 1s   -0.40688
                                    5 1s    0.40693     6 1s   -0.45725
   34.1    -0.00000     2.59893     1 1s    0.26146     1 2py  -0.30378     1 3d2- -0.43507     1 3d2+ -0.48113     1 3d1-  0.51398
                                    2 1s    0.26127     2 2py   0.30371     2 3d2- -0.43511     2 3d2+ -0.48109     2 3d1-  0.51386
                                    4 1s   -0.35445     5 1s   -0.35433
   35.1    -0.00000     2.72459     1 3d0  -0.39540     1 3d2- -0.46071     1 3d1+  0.48320     1 3d1- -0.29686     2 3d0  -0.39542
                                    2 3d2- -0.46053     2 3d1+  0.48316     2 3d1- -0.29666     3 1s   -0.48887     6 1s   -0.48866
   36.1    -0.00000     2.92643     1 1s   -1.69984     1 2px  -0.35369     1 2px  -0.88592     1 2py   0.27054     1 2pz   0.45123
                                    1 3d2-  0.36683     1 3d1+  0.68181     1 3d2+ -0.60937     2 1s    1.69984     2 2px  -0.35369
                                    2 2px  -0.88592     2 2py   0.27055     2 2pz   0.45123     2 3d2- -0.36687     2 3d1+ -0.68178
                                    2 3d2+  0.60936


 Natural orbital dump (state averaged) at molpro section  2140.2    (Orbital set 2)



 **********************************************************************************************************************************
 DATASETS  * FILE   NREC   LENGTH (MB)   RECORD NAMES
              1      20       31.85       500      610      700      900      950      970     1000      129      960     1100   
                                          VAR    BASINP    GEOM    SYMINP    ZMAT    AOBASIS   BASIS     P2S    ABASIS      S 
                                         1400     1410     1200     1210     1080     1600     1650     1300     1700     1380   
                                           T        V       H0       H01     AOSYM     SMH    MOLCAS    ERIS     OPER     JKOP   

              2       5        5.42       700     1000      520     2100     2140   
                                         GEOM     BASIS   MCVARS     RHF     MCSCF   

 PROGRAMS   *        TOTAL     MULTI    HF-SCF       INT
 CPU TIMES  *         1.06      0.38      0.21      0.34
 REAL TIME  *         1.76 SEC
 DISK USED  *        39.04 MB
 **********************************************************************************************************************************
 Molecular orbitals read from record     2140.2  Type=MCSCF/NATURAL (state averaged)
 Occupation numbers read from record     2140.2  Type=MCSCF/NATURAL (state averaged)
 Orbital energies read from record       2140.2  Type=MCSCF/NATURAL (state averaged)
 Redundancy group numbers read from rec  2140.2  Type=MCSCF/NATURAL (state averaged)

 MULTI/6-31G* energy=    -77.560867065009

           MULTI          HF-SCF
    -77.56086707    -77.82266298
 **********************************************************************************************************************************
 Molpro calculation terminated
