
 Primary working directories    : /scratch.local/johan406.molpro_temp/molpro.6F2aGqcU6S
 Secondary working directories  : /scratch.local/johan406.molpro_temp/molpro.6F2aGqcU6S
 Wavefunction directory         : /home/goodpast/johan406/wfu/
 Main file repository           : /scratch.local/johan406.molpro_temp/molpro.6F2aGqcU6S/

 id        : roweumn

 Nodes     nprocs
 acn09        1

 Using customized tuning parameters: mindgm=1; mindgv=20; mindgc=4; mindgr=1; noblas=0; minvec=7
 default implementation of scratch files=df  


 Variables initialized (934), CPU time= 0.00 sec
                                                                                 !leave this line blank
 
 gprint, orbitals=30
 memory, 125., m
 symmetry, nosym
 nelect=16
 basis=6-31g*
 
 geometry={
 C -0.6444 0.1556 0.314
 C 0.6533 -0.2055 -0.3744
 H -1.39 0.8222 -0.1601
 H -1.0313 -0.8099 -0.1938
 H 1.0402 0.76 0.1334
 H 1.3989 -0.8721 0.0996
 }
 
 hf
 {multi,
 closed 7
 occ 9
 wf,spin=0;STATE,3
 }
 
 Commands  initialized (763), CPU time= 0.01 sec, 617 directives.
 Default parameters read. Elapsed time= 0.09 sec

 Checking input...
 Passed
1


                                         ***  PROGRAM SYSTEM MOLPRO  ***
                                       Copyright, TTI GmbH Stuttgart, 2015
                                    Version 2019.2 linked Oct 25 2019 22:50:27


 **********************************************************************************************************************************
 LABEL *                                                                                 
  64 bit serial version                                                                  DATE: 07-Feb-23          TIME: 15:31:22  
 **********************************************************************************************************************************

 SHA1:             8dbd9ae1082e4ce945b0f27595c9eb2d4aa09004
 **********************************************************************************************************************************


 Variable memory set to  125000000 words,  buffer space 

 SETTING NELECT         =        16.00000000                                  
 SETTING BASIS          =    6-31G*
 ZSYMEL=NOSYM


Geometry recognized as XYZ



 Recomputing integrals since basis changed


 Using spherical harmonics

 Library entry C      S 6-31G                selected for orbital group  1
 Library entry C      P 6-31G                selected for orbital group  1
 Library entry C      D 6-31G*               selected for orbital group  1
 Library entry H      S 6-31G                selected for orbital group  2


 PROGRAM * SEWARD (Integral evaluation for generally contracted gaussian basis sets)     Author: Roland Lindh, 1990

 Geometry written to block  1 of record 700


 Point group  C1  



 ATOMIC COORDINATES

 NR  ATOM    CHARGE       X              Y              Z

   1  C       6.00   -1.217739515    0.294041385    0.593374003
   2  C       6.00    1.234558077   -0.388338719   -0.707513461
   3  H       1.00   -2.626719313    1.553732820   -0.302545153
   4  H       1.00   -1.948874552   -1.530489188   -0.366228923
   5  H       1.00    1.965693115    1.436191855    0.252089465
   6  H       1.00    2.643537876   -1.648030153    0.188216722

 Bond lengths in Bohr (Angstrom)

 1-2  2.858621045  1-3  2.091582587  1-4  2.187306113  2-5  2.187306113  2-6  2.091501648
     ( 1.512717112)     ( 1.106817840)     ( 1.157472548)     ( 1.157472548)     ( 1.106775009)

 Bond angles

  1-2-5   83.56847656   1-2-6  121.78887225   2-1-3  121.78472673   2-1-4   83.56847656

  3-1-4   95.12236997   5-2-6   95.12484899

 NUCLEAR CHARGE:                   16
 NUMBER OF PRIMITIVE AOS:          72
 NUMBER OF SYMMETRY AOS:           70
 NUMBER OF CONTRACTIONS:           36   (   36A   )
 NUMBER OF CORE ORBITALS:           2   (    2A   )
 NUMBER OF VALENCE ORBITALS:       12   (   12A   )


 NUCLEAR REPULSION ENERGY   31.54058409

 Eigenvalues of metric

         1 0.106E-01 0.257E-01 0.581E-01 0.727E-01 0.870E-01 0.229E+00 0.239E+00 0.292E+00


 Contracted 2-electron integrals neglected if value below      1.0D-11
 AO integral compression algorithm  1   Integral accuracy      1.0D-11

     1.573 MB (compressed) written to integral file ( 58.4%)


 NUMBER OF SORTED TWO-ELECTRON INTEGRALS:     222111.     BUFFER LENGTH:  32768
 NUMBER OF SEGMENTS:   1  SEGMENT LENGTH:     222111      RECORD LENGTH: 524288

 Memory used in sort:       0.78 MW

 SORT1 READ      284735. AND WROTE      212528. INTEGRALS IN      1 RECORDS. CPU TIME:     0.00 SEC, REAL TIME:     0.01 SEC
 SORT2 READ      212528. AND WROTE      222111. INTEGRALS IN      6 RECORDS. CPU TIME:     0.02 SEC, REAL TIME:     0.03 SEC

 FILE SIZES:   FILE 1:    31.7 MBYTE,  FILE 4:     4.2 MBYTE,   TOTAL:     35.9 MBYTE

 OPERATOR DM      FOR CENTER  0  COORDINATES:    0.000000    0.000000    0.000000


 **********************************************************************************************************************************
 DATASETS  * FILE   NREC   LENGTH (MB)   RECORD NAMES
              1      19       31.12       500      610      700      900      950      970     1000      129      960     1100   
                                          VAR    BASINP    GEOM    SYMINP    ZMAT    AOBASIS   BASIS     P2S    ABASIS      S 
                                         1400     1410     1200     1210     1080     1600     1650     1300     1700   
                                           T        V       H0       H01     AOSYM     SMH    MOLCAS    ERIS     OPER   

 PROGRAMS   *        TOTAL       INT
 CPU TIMES  *         0.33      0.22
 REAL TIME  *         0.63 SEC
 DISK USED  *        36.24 MB
 **********************************************************************************************************************************


 PROGRAM * RHF-SCF (CLOSED SHELL)       Authors: W. Meyer, H.-J. Werner


 NUMBER OF ELECTRONS:       8+    8-    SPACE SYMMETRY=1    SPIN SYMMETRY: Singlet 
 CONVERGENCE THRESHOLDS:    1.00E-05 (Density)    1.00E-07 (Energy)
 MAX. NUMBER OF ITERATIONS:       60
 INTERPOLATION TYPE:            DIIS
 INTERPOLATION STEPS:              2 (START)      1 (STEP)
 LEVEL SHIFTS:                  0.00 (CLOSED)  0.00 (OPEN) 



 Orbital guess generated from atomic densities. Full valence occupancy:    8

 Molecular orbital dump at record        2100.2

 Initial occupancy:   8

 ITERATION    DDIFF          GRAD             ENERGY        2-EL.EN.            DIPOLE MOMENTS         DIIS   ORB.
    1      0.000D+00      0.000D+00       -77.79132066    114.148330    0.00001    0.00000   -0.00005    0    start
    2      0.000D+00      0.679D-02       -77.81043289    113.351929    0.00004   -0.00002   -0.00005    1    diag
    3      0.737D-02      0.234D-02       -77.81342291    113.717717    0.00004   -0.00002   -0.00005    2    diag
    4      0.349D-02      0.966D-03       -77.81426908    113.581310    0.00005   -0.00002   -0.00006    3    diag
    5      0.199D-02      0.473D-03       -77.81473499    113.596260    0.00005   -0.00002   -0.00004    4    diag
    6      0.179D-02      0.214D-03       -77.81488781    113.597667    0.00008   -0.00004   -0.00009    5    diag
    7      0.118D-02      0.752D-04       -77.81490631    113.599978    0.00001    0.00001    0.00002    6    diag
    8      0.453D-03      0.236D-04       -77.81490768    113.599941    0.00015   -0.00009   -0.00022    7    diag
    9      0.128D-03      0.593D-05       -77.81490771    113.599910   -0.00005    0.00005    0.00011    8    diag
   10      0.162D-04      0.326D-05       -77.81490772    113.599898    0.00007   -0.00003   -0.00008    9    orth
   11      0.486D-05      0.575D-06       -77.81490772    113.599891    0.00004   -0.00001   -0.00004    0    orth

 Final occupancy:   8

 !RHF STATE  1.1 Energy               -77.814907719270
 Nuclear energy                        31.54058409
 One-electron energy                 -166.15543711
 Two-electron energy                   56.79994530
 Virial quotient                       -1.00222598
 !RHF STATE  1.1 Dipole moment          0.00004375    -0.00001276    -0.00003702
 Dipole moment /Debye                   0.00011120    -0.00003244    -0.00009409

 ELECTRON ORBITALS
 =================

  Orbital  Occupation    Energy     Coefficients
    1.1     2.00000   -11.27198     1 1s    0.70847     2 1s    0.70051
    2.1     2.00000   -11.27136     1 1s    0.70057     2 1s   -0.70854
    3.1     2.00000    -1.01838     1 1s    0.28292     1 1s    0.25845     2 1s    0.28293     2 1s    0.25845
    4.1     2.00000    -0.79944     1 1s   -0.29059     2 1s    0.29058
    5.1     2.00000    -0.58750     1 2py   0.31057     2 2py   0.31067
    6.1     2.00000    -0.56183     1 2px   0.31528     2 2px  -0.31529
    7.1     2.00000    -0.38985     1 2pz   0.29884     1 2pz   0.27940     2 2pz   0.29883     2 2pz   0.27940
    8.1     2.00000    -0.37744     1 2py   0.25328     2 2py  -0.25329     4 1s   -0.29358     5 1s   -0.29357
    9.1     0.00000     0.04742     1 1s    0.36436     1 2pz   0.33710     1 2pz   0.45325     2 1s    0.36433     2 2pz  -0.33712
                                    2 2pz  -0.45327
   10.1     0.00000     0.23356     1 1s   -1.05795     1 2px   0.48957     1 2py   0.41292     1 2pz   0.42724     2 1s   -1.05781
                                    2 2px  -0.48961     2 2py  -0.41293     2 2pz  -0.42717     3 1s    0.52934     4 1s    1.10418
                                    5 1s    1.10420     6 1s    0.52925
   11.1     0.00000     0.26156     1 1s   -1.49717     1 2py  -0.27625     1 2pz   0.48042     2 1s    1.49724     2 2py  -0.27612
                                    2 2pz   0.48034     3 1s    1.30795     6 1s   -1.30783
   12.1     0.00000     0.30734     1 1s   -0.80770     1 2px   0.46856     1 2py  -0.85608     1 2pz   0.48085     2 1s   -0.80798
                                    2 2px  -0.46852     2 2py   0.85618     2 2pz  -0.48088     3 1s    1.54465     4 1s   -0.31526
                                    5 1s   -0.31536     6 1s    1.54492
   13.1     0.00000     0.32727     1 1s   -0.96280     1 2px   0.41024     1 2py   0.66573     1 2pz   0.32344     2 1s    0.96284
                                    2 2px   0.41026     2 2py   0.66567     2 2pz   0.32346     4 1s    1.61017     5 1s   -1.61014
   14.1     0.00000     0.41727     1 1s    1.69651     1 2px   1.64816     1 2py  -0.67809     1 2pz  -0.73892     2 1s   -1.69637
                                    2 2px   1.64822     2 2py  -0.67818     2 2pz  -0.73891     3 1s    0.77741     4 1s   -0.33779
                                    5 1s    0.33782     6 1s   -0.77762
   15.1     0.00000     0.72536     1 1s   -0.45806     1 2py  -0.40465     1 2px  -0.72889     1 2py   0.69997     2 1s    0.45807
                                    2 2py  -0.40488     2 2px  -0.72778     2 2py   0.70021     3 1s   -0.45508     4 1s    0.25638
                                    5 1s   -0.25667     6 1s    0.45503
   16.1     0.00000     0.72688     1 2px  -0.55924     1 2px   0.93099     2 2px   0.55949     2 2px  -0.93199     3 1s    0.30929
                                    4 1s   -0.39830     5 1s   -0.39812     6 1s    0.30934
   17.1     0.00000     0.79661     1 1s    0.30172     1 2py  -0.53218     1 2pz  -0.41430     1 2py   1.04146     1 2pz   0.42474
                                    2 1s    0.30168     2 2py   0.53216     2 2pz   0.41449     2 2py  -1.04149     2 2pz  -0.42493
   18.1     0.00000     0.80611     1 2pz   0.74846     1 2pz  -0.69076     2 2pz   0.74835     2 2pz  -0.69064
   19.1     0.00000     0.86746     1 1s   -0.41114     1 2px  -0.27421     1 2py   0.28577     1 2pz  -0.60337     1 2px   0.52669
                                    1 2py  -0.72136     1 2pz   0.85393     2 1s   -0.41115     2 2px   0.27421     2 2py  -0.28576
                                    2 2pz   0.60338     2 2px  -0.52677     2 2py   0.72138     2 2pz  -0.85391     3 1s    0.30529
                                    6 1s    0.30533
   20.1     0.00000     0.96001     1 1s   -0.30374     1 1s    0.53502     1 2px  -0.70392     1 2py  -0.34241     1 2px   1.35269
                                    1 2py   0.59813     2 1s    0.30370     2 1s   -0.53492     2 2px  -0.70390     2 2py  -0.34243
                                    2 2px   1.35271     2 2py   0.59813     4 1s    0.94826     5 1s   -0.94830
   21.1     0.00000     1.09548     1 1s   -0.39542     1 1s    0.80779     1 2py   0.45644     1 2px  -0.26168     1 2py  -0.45690
                                    2 1s   -0.39553     2 1s    0.80799     2 2py  -0.45626     2 2px   0.26184     2 2py   0.45662
                                    3 1s   -0.38741     3 1s    0.33601     4 1s    0.61708     4 1s   -1.11503     5 1s    0.61696
                                    5 1s   -1.11481     6 1s   -0.38725     6 1s    0.33557
   22.1     0.00000     1.12438     1 1s   -0.35023     1 2px   0.35190     1 2py  -0.60300     1 2px  -0.63939     1 2py   0.94882
                                    2 1s    0.35126     2 2px   0.35167     2 2py  -0.60307     2 2px  -0.63910     2 2py   0.94892
                                    3 1s    0.46683     3 1s   -1.11452     4 1s   -0.40799     4 1s    0.86868     5 1s    0.40830
                                    5 1s   -0.86928     6 1s   -0.46657     6 1s    1.11404
   23.1     0.00000     1.17426     1 1s   -0.93472     1 1s    1.55150     1 2px   0.34270     1 2px  -0.47643     1 2pz  -0.34537
                                    2 1s   -0.93006     2 1s    1.54304     2 2px  -0.34123     2 2px   0.47383     2 2pz   0.34305
                                    3 1s    0.62978     3 1s   -1.13350     4 1s   -0.46550     5 1s   -0.45920     6 1s    0.62744
                                    6 1s   -1.12908
   24.1     0.00000     1.17748     1 1s   -0.71996     1 1s    1.25420     1 2px   0.27224     1 2pz   0.27974     1 2px  -0.49759
                                    1 2pz  -0.33462     2 1s    0.72566     2 1s   -1.26367     2 2px   0.27438     2 2pz   0.28104
                                    2 2px  -0.50052     2 2pz  -0.33667     3 1s    0.42317     3 1s   -0.80851     4 1s    0.59302
                                    4 1s   -0.92729     5 1s   -0.59425     5 1s    0.93008     6 1s   -0.42713     6 1s    0.81554
   25.1     0.00000     1.30561     1 1s    1.42907     1 1s   -4.51437     1 2px  -1.07075     1 2py   0.77072     1 2pz   1.15305
                                    2 1s   -1.43068     2 1s    4.51745     2 2px  -1.06969     2 2py   0.77002     2 2pz   1.15461
                                    3 1s    0.31999     4 1s    0.43481     4 1s    0.50094     5 1s   -0.43550     5 1s   -0.50140
                                    6 1s   -0.32139
   26.1     0.00000     1.35113     1 1s   -1.12372     1 1s    2.16731     1 2px  -0.75427     1 2py   0.47095     1 2pz  -1.14592
                                    2 1s   -1.12177     2 1s    2.16096     2 2px   0.75590     2 2py  -0.47209     2 2pz   1.14420
                                    3 1s   -0.54339     3 1s   -0.92235     4 1s   -0.49192     4 1s   -0.35424     5 1s   -0.49126
                                    5 1s   -0.35357     6 1s   -0.54309     6 1s   -0.92203
   27.1     0.00000     1.68760     1 1s   -0.48322     1 3d0  -0.30056     1 3d2-  0.34491     1 3d2+  0.36108     2 1s    0.48326
                                    2 3d0   0.30056     2 3d2- -0.34491     2 3d2+ -0.36109
   28.1     0.00000     1.86218     1 3d0   0.37129     1 3d1+  0.32740     1 3d2+  0.37982     1 3d1-  0.30018     2 3d0   0.37126
                                    2 3d1+  0.32743     2 3d2+  0.37982     2 3d1-  0.30019
   29.1     0.00000     2.03427     1 1s   -0.30137     1 1s    1.19697     1 2pz  -0.34056     1 3d1+  0.43325     1 3d2+  0.29792
                                    1 3d1-  0.39140     2 1s    0.30126     2 1s   -1.19687     2 2pz  -0.34050     2 3d1+ -0.43326
                                    2 3d2+ -0.29786     2 3d1- -0.39136     3 1s   -0.29325     6 1s    0.29325
   30.1     0.00000     2.08241     1 1s    0.43000     1 1s   -1.73315     1 2px  -0.25987     1 2py   0.29054     1 2pz   0.49968
                                    1 3d0   0.58269     2 1s   -0.42990     2 1s    1.73313     2 2px  -0.25978     2 2py   0.29047
                                    2 2pz   0.49967     2 3d0  -0.58266     3 1s    0.41912     4 1s    0.32362     5 1s   -0.32365
                                    6 1s   -0.41916
   31.1     0.00000     2.17119     1 1s    0.46947     1 1s   -0.28057     1 2px   0.26835     1 2px  -0.31105     1 3d1+  0.38257
                                    1 3d2+ -0.36767     2 1s    0.46960     2 1s   -0.28115     2 2px  -0.26834     2 2px   0.31120
                                    2 3d1+  0.38254     2 3d2+ -0.36766
   32.1     0.00000     2.29525     1 3d0   0.48825     1 3d2- -0.42244     1 3d1- -0.29857     2 3d0   0.48823     2 3d2- -0.42245
                                    2 3d1- -0.29858     4 1s    0.37029     5 1s    0.37030
   33.1     0.00000     2.52590     1 1s    0.50244     1 2px   0.28413     1 3d2-  0.45081     1 3d1-  0.58384     2 1s   -0.50250
                                    2 2px   0.28408     2 3d2- -0.45065     2 3d1- -0.58389     3 1s    0.44021     4 1s   -0.41825
                                    5 1s    0.41830     6 1s   -0.44012
   34.1     0.00000     2.59652     1 1s    0.27760     1 2py  -0.28951     1 3d2- -0.43813     1 3d2+ -0.47061     1 3d1-  0.50626
                                    2 1s    0.27750     2 2py   0.28946     2 3d2- -0.43824     2 3d2+ -0.47059     2 3d1-  0.50612
                                    4 1s   -0.35949     5 1s   -0.35940
   35.1     0.00000     2.71300     1 3d0  -0.38567     1 3d2- -0.45356     1 3d1+  0.47252     1 3d1- -0.31018     2 3d0  -0.38569
                                    2 3d2- -0.45366     2 3d1+  0.47262     2 3d1- -0.31030     3 1s   -0.48660     6 1s   -0.48678
   36.1     0.00000     2.91924     1 1s   -1.65989     1 2px  -0.34223     1 2px  -0.87202     1 2py   0.26724     1 2pz   0.44384
                                    1 3d2-  0.37560     1 3d1+  0.67361     1 3d2+ -0.60460     2 1s    1.65988     2 2px  -0.34223
                                    2 2px  -0.87201     2 2py   0.26723     2 2pz   0.44384     2 3d2- -0.37564     2 3d1+ -0.67357
                                    2 3d2+  0.60461


 HOMO      8.1    -0.377444 =     -10.2708eV
 LUMO      9.1     0.047422 =       1.2904eV
 LUMO-HOMO         0.424866 =      11.5612eV


 **********************************************************************************************************************************
 DATASETS  * FILE   NREC   LENGTH (MB)   RECORD NAMES
              1      19       31.12       500      610      700      900      950      970     1000      129      960     1100   
                                          VAR    BASINP    GEOM    SYMINP    ZMAT    AOBASIS   BASIS     P2S    ABASIS      S 
                                         1400     1410     1200     1210     1080     1600     1650     1300     1700   
                                           T        V       H0       H01     AOSYM     SMH    MOLCAS    ERIS     OPER   

              2       4        2.86       700     1000      520     2100   
                                         GEOM     BASIS   MCVARS     RHF  

 PROGRAMS   *        TOTAL    HF-SCF       INT
 CPU TIMES  *         0.51      0.17      0.22
 REAL TIME  *         0.96 SEC
 DISK USED  *        36.24 MB
 **********************************************************************************************************************************


 PROGRAM * MULTI (Direct Multiconfiguration SCF)       Authors: P.J. Knowles, H.-J. Werner (1984)


 Number of closed-shell orbitals:   7 (   7 )
 Number of active  orbitals:        2 (   2 )
 Number of external orbitals:      27 (  27 )

 State symmetry 1

 Number of electrons:     2    Spin symmetry=Singlet   Space symmetry=1
 Number of states:        3
 Number of CSFs:          3   (4 determinants, 4 intermediate states)

 Molecular orbitals read from record     2100.2  Type=RHF/CANONICAL (state 1.1)

 Wavefunction dump at record             2140.2

 Convergence thresholds  0.10E-01 (gradient)  0.10E-05 (energy)  0.10E-02 (step length)

 Weight factors for state symmetry  1:    0.33333   0.33333   0.33333

 Number of orbital rotations:      257   (    14 Core/Active    189 Core/Virtual   0 Active/Active     54 Active/Virtual)
 Total number of variables:        269

 Micro-Iterations solved by the two-step solver

 ITER. MIC  NCI  NEG     ENERGY(VAR)     ENERGY(PROJ)   ENERGY CHANGE     GRAD(0)  GRAD(ORB)   GRAD(CI)     STEP       TIME

   1    6    5    0     -77.68091725     -77.69867040   -0.01775316    0.16054774 0.00085712 0.00000000  0.13D+00      0.11
   2    6    5    0     -77.69850607     -77.69851802   -0.00001195    0.00543501 0.00000213 0.00000000  0.28D-02      0.20
   3    3    4    0     -77.69851803     -77.69851803   -0.00000000    0.00000707 0.00000000 0.00000000  0.68D-05      0.26

 ** WVFN ****  CONVERGENCE REACHED, FINAL GRADIENT:  0.36D-10



 Results for state 1.1
 =====================

 !MCSCF STATE  1.1 Energy             -77.808141831226
 Nuclear energy                        31.54058409
 Kinetic energy                        77.62955019
 One electron energy                 -166.12492586
 Two electron energy                   56.77619994
 Virial ratio                           2.00230056

 !MCSCF STATE  1.1 Dipole moment        0.00005946    -0.00002147    -0.00006360
 Dipole moment /Debye                   0.00015113    -0.00005458    -0.00016164

 Results for state 2.1
 =====================

 !MCSCF STATE  2.1 Energy             -77.726953121661
 Nuclear energy                        31.54058409
 Kinetic energy                        77.70123998
 One electron energy                 -165.98104212
 Two electron energy                   56.71350491
 Virial ratio                           2.00033092

 !MCSCF STATE  2.1 Dipole moment        0.00004833    -0.00003149    -0.00003682
 Dipole moment /Debye                   0.00012285    -0.00008003    -0.00009357

 Results for state 3.1
 =====================

 !MCSCF STATE  3.1 Energy             -77.560459150379
 Nuclear energy                        31.54058409
 Kinetic energy                        77.77174366
 One electron energy                 -165.84003304
 Two electron energy                   56.73898981
 Virial ratio                           1.99728327

 !MCSCF STATE  3.1 Dipole moment        0.00003693    -0.00004132    -0.00000955
 Dipole moment /Debye                   0.00009387    -0.00010502    -0.00002427

 State-averaged charge density matrix saved on record  2140.2 (density set 1)

 !MCSCF expec         <1.1|DMX|1.1>     0.000059464811 au =     0.000151134574 Debye
 !MCSCF trans         <2.1|DMX|1.1>     0.000010085829 au =     0.000025633942 Debye
 !MCSCF expec         <2.1|DMX|2.1>     0.000048334334 au =     0.000122845578 Debye
 !MCSCF trans         <3.1|DMX|1.1>     0.000001136724 au =     0.000002889075 Debye
 !MCSCF trans         <3.1|DMX|2.1>     0.000011148774 au =     0.000028335500 Debye
 !MCSCF expec         <3.1|DMX|3.1>     0.000036934179 au =     0.000093871171 Debye

 !MCSCF expec         <1.1|DMY|1.1>    -0.000021474295 au =    -0.000054578638 Debye
 !MCSCF trans         <2.1|DMY|1.1>    -0.000006836157 au =    -0.000017374640 Debye
 !MCSCF expec         <2.1|DMY|2.1>    -0.000031489003 au =    -0.000080031821 Debye
 !MCSCF trans         <3.1|DMY|1.1>     0.000001071872 au =     0.000002724248 Debye
 !MCSCF trans         <3.1|DMY|2.1>    -0.000007635492 au =    -0.000019406213 Debye
 !MCSCF expec         <3.1|DMY|3.1>    -0.000041319873 au =    -0.000105017762 Debye

 !MCSCF expec         <1.1|DMZ|1.1>    -0.000063598543 au =    -0.000161640786 Debye
 !MCSCF trans         <2.1|DMZ|1.1>    -0.000018182864 au =    -0.000046213202 Debye
 !MCSCF expec         <2.1|DMZ|2.1>    -0.000036816738 au =    -0.000093572685 Debye
 !MCSCF trans         <3.1|DMZ|1.1>    -0.000002753928 au =    -0.000006999328 Debye
 !MCSCF trans         <3.1|DMZ|2.1>    -0.000020068988 au =    -0.000051006937 Debye
 !MCSCF expec         <3.1|DMZ|3.1>    -0.000009549154 au =    -0.000024269940 Debye


 NATURAL ORBITALS (state averaged)
 =================================

  Orbital  Occupation    Energy     Coefficients
    1.1     2.00000   -11.26366     1 1s    0.70596     2 1s    0.70299
    2.1     2.00000   -11.26305     1 1s    0.70302     2 1s   -0.70599
    3.1     2.00000    -1.03196     1 1s    0.27510     1 1s    0.25426     2 1s    0.27511     2 1s    0.25426
    4.1     2.00000    -0.80129     1 1s   -0.31134     2 1s    0.31133
    5.1     2.00000    -0.58649     1 2py   0.29894     2 2py   0.29905
    6.1     2.00000    -0.55977     1 2px   0.28210     2 2px  -0.28210
    7.1     2.00000    -0.41536     1 2pz   0.31526     1 2pz   0.27800     2 2pz   0.31525     2 2pz   0.27799
    8.1     1.00000    -0.10297     1 1s    0.25993     1 2pz   0.40596     1 2pz   0.41296     2 1s    0.25991     2 2pz  -0.40597
                                    2 2pz  -0.41298
    9.1     1.00000    -0.22613     1 2px   0.27734     2 2px  -0.27734     4 1s   -0.30524     5 1s   -0.30524
   10.1    -0.00000     0.21904     1 1s   -1.04297     1 2px   0.48301     1 2py   0.44256     1 2pz   0.37834     2 1s   -1.04287
                                    2 2px  -0.48305     2 2py  -0.44257     2 2pz  -0.37828     3 1s    0.47726     4 1s    1.10948
                                    5 1s    1.10948     6 1s    0.47721
   11.1    -0.00000     0.25937     1 1s   -1.58431     1 2pz   0.49678     2 1s    1.58435     2 2pz   0.49670     3 1s    1.30542
                                    6 1s   -1.30531
   12.1    -0.00000     0.30978     1 1s   -0.87128     1 2px   0.47668     1 2py  -0.84475     1 2pz   0.45872     2 1s   -0.87158
                                    2 2px  -0.47668     2 2py   0.84481     2 2pz  -0.45875     3 1s    1.56546     4 1s   -0.26282
                                    5 1s   -0.26283     6 1s    1.56572
   13.1    -0.00000     0.31361     1 1s   -0.95113     1 2px   0.27791     1 2py   0.75893     1 2pz   0.33759     2 1s    0.95112
                                    2 2px   0.27790     2 2py   0.75891     2 2pz   0.33760     4 1s    1.63870     5 1s   -1.63867
   14.1    -0.00000     0.42328     1 1s    1.56102     1 2px   0.25798     1 2px   1.66661     1 2py  -0.57834     1 2pz  -0.66758
                                    2 1s   -1.56089     2 2px   0.25799     2 2px   1.66666     2 2py  -0.57842     2 2pz  -0.66757
                                    3 1s    0.79612     6 1s   -0.79633
   15.1    -0.00000     0.72215     1 2px  -0.53782     1 2px   0.90446     2 2px   0.53714     2 2px  -0.90176     3 1s    0.31304
                                    4 1s    0.26936     4 1s   -0.46451     5 1s    0.27033     5 1s   -0.46497     6 1s    0.31318
   16.1    -0.00000     0.72273     1 1s   -0.56010     1 2py  -0.39170     1 2px  -0.77532     1 2py   0.71641     2 1s    0.55964
                                    2 2py  -0.39104     2 2px  -0.77861     2 2py   0.71599     3 1s   -0.45433     4 1s    0.27353
                                    5 1s   -0.27257     6 1s    0.45449
   17.1    -0.00000     0.79857     1 2py  -0.51728     1 2pz  -0.39273     1 2py   1.03006     1 2pz   0.47338     2 2py   0.51724
                                    2 2pz   0.39323     2 2py  -1.03009     2 2pz  -0.47390
   18.1    -0.00000     0.80459     1 1s    0.28572     1 2pz   0.74647     1 2pz  -0.75937     2 1s   -0.28592     2 2pz   0.74623
                                    2 2pz  -0.75908
   19.1    -0.00000     0.86911     1 1s   -0.38296     1 2px  -0.29633     1 2py   0.26638     1 2pz  -0.58574     1 2px   0.56290
                                    1 2py  -0.70194     1 2pz   0.89789     2 1s   -0.38297     2 2px   0.29633     2 2py  -0.26638
                                    2 2pz   0.58573     2 2px  -0.56298     2 2py   0.70196     2 2pz  -0.89784     3 1s    0.34099
                                    6 1s    0.34103
   20.1    -0.00000     0.96628     1 1s   -0.31261     1 1s    0.50957     1 2px  -0.69912     1 2py  -0.34147     1 2px   1.29993
                                    1 2py   0.59647     2 1s    0.31256     2 1s   -0.50946     2 2px  -0.69911     2 2py  -0.34149
                                    2 2px   1.29996     2 2py   0.59647     4 1s    0.90060     5 1s   -0.90065
   21.1    -0.00000     1.07086     1 1s   -0.46179     1 1s    0.89912     1 2py   0.46787     1 2px  -0.30768     1 2py  -0.48211
                                    2 1s   -0.46184     2 1s    0.89925     2 2py  -0.46778     2 2px   0.30769     2 2py   0.48199
                                    3 1s   -0.29359     4 1s    0.63983     4 1s   -1.12891     5 1s    0.63976     5 1s   -1.12878
                                    6 1s   -0.29354
   22.1    -0.00000     1.10667     1 1s    0.29353     1 1s   -0.69339     1 2py  -0.60248     1 2px  -0.32978     1 2py   0.89186
                                    2 1s   -0.29375     2 1s    0.69371     2 2py  -0.60249     2 2px  -0.32969     2 2py   0.89191
                                    3 1s   -0.67972     4 1s   -0.63195     4 1s    1.17098     5 1s    0.63208     5 1s   -1.17118
                                    6 1s    0.67953
   23.1    -0.00000     1.16068     1 1s   -0.58065     1 1s    0.81656     1 2px   0.42050     1 2px  -0.80169     1 2py   0.32064
                                    2 1s    0.57885     2 1s   -0.81366     2 2px   0.41988     2 2px  -0.80084     2 2py   0.32024
                                    3 1s    0.58817     3 1s   -1.19282     4 1s    0.38114     4 1s   -0.49008     5 1s   -0.38090
                                    5 1s    0.48936     6 1s   -0.58689     6 1s    1.19060
   24.1    -0.00000     1.17564     1 1s   -0.88012     1 1s    1.42954     1 2px   0.32462     1 2px  -0.43201     1 2pz  -0.28070
                                    2 1s   -0.88099     2 1s    1.43037     2 2px  -0.32552     2 2px   0.43382     2 2pz   0.28083
                                    3 1s    0.67265     3 1s   -1.14399     4 1s   -0.33075     5 1s   -0.33135     6 1s    0.67389
                                    6 1s   -1.14645
   25.1    -0.00000     1.29780     1 1s    1.47050     1 1s   -4.58726     1 2px  -1.07672     1 2py   0.77613     1 2pz   1.15875
                                    2 1s   -1.47235     2 1s    4.59080     2 2px  -1.07550     2 2py   0.77534     2 2pz   1.16050
                                    3 1s    0.33761     4 1s    0.40170     4 1s    0.53879     5 1s   -0.40241     5 1s   -0.53939
                                    6 1s   -0.33920
   26.1    -0.00000     1.33869     1 1s   -1.15040     1 1s    2.22275     1 2px  -0.77310     1 2py   0.47913     1 2pz  -1.15440
                                    2 1s   -1.14816     2 1s    2.21558     2 2px   0.77491     2 2py  -0.48040     2 2pz   1.15249
                                    3 1s   -0.54848     3 1s   -0.93317     4 1s   -0.46455     4 1s   -0.39962     5 1s   -0.46386
                                    5 1s   -0.39881     6 1s   -0.54816     6 1s   -0.93278
   27.1    -0.00000     1.68227     1 1s   -0.49979     1 3d0  -0.29265     1 3d2-  0.34799     1 3d2+  0.36407     2 1s    0.49983
                                    2 3d0   0.29265     2 3d2- -0.34799     2 3d2+ -0.36408
   28.1    -0.00000     1.85932     1 3d0   0.36769     1 3d1+  0.32493     1 3d2+  0.38470     1 3d1-  0.30054     2 3d0   0.36766
                                    2 3d1+  0.32496     2 3d2+  0.38470     2 3d1-  0.30055
   29.1    -0.00000     2.03171     1 1s   -0.29458     1 1s    1.16983     1 2pz  -0.33284     1 3d1+  0.43408     1 3d2+  0.29793
                                    1 3d1-  0.39319     2 1s    0.29448     2 1s   -1.16974     2 2pz  -0.33278     2 3d1+ -0.43408
                                    2 3d2+ -0.29787     2 3d1- -0.39314     3 1s   -0.29123     6 1s    0.29123
   30.1    -0.00000     2.08364     1 1s    0.42904     1 1s   -1.71071     1 2px  -0.25051     1 2py   0.29005     1 2pz   0.49020
                                    1 3d0   0.58684     2 1s   -0.42893     2 1s    1.71068     2 2px  -0.25042     2 2py   0.28997
                                    2 2pz   0.49019     2 3d0  -0.58681     3 1s    0.41680     4 1s    0.31599     5 1s   -0.31602
                                    6 1s   -0.41683
   31.1    -0.00000     2.17119     1 1s    0.46113     1 1s   -0.27353     1 2px   0.27573     1 2px  -0.30770     1 3d2-  0.25227
                                    1 3d1+  0.39236     1 3d2+ -0.36700     2 1s    0.46127     2 1s   -0.27412     2 2px  -0.27572
                                    2 2px   0.30784     2 3d2-  0.25230     2 3d1+  0.39233     2 3d2+ -0.36699
   32.1    -0.00000     2.28804     1 2py   0.26395     1 3d0   0.49047     1 3d2- -0.42070     1 3d1- -0.31432     2 2py  -0.26398
                                    2 3d0   0.49044     2 3d2- -0.42071     2 3d1- -0.31433     4 1s    0.36068     5 1s    0.36069
   33.1    -0.00000     2.51958     1 1s    0.47082     1 2px   0.27057     1 3d2-  0.45806     1 3d1-  0.58222     2 1s   -0.47088
                                    2 2px   0.27051     2 3d2- -0.45790     2 3d1- -0.58228     3 1s    0.44561     4 1s   -0.40721
                                    5 1s    0.40727     6 1s   -0.44552
   34.1    -0.00000     2.58941     1 1s    0.27553     1 2py  -0.29887     1 3d2- -0.42928     1 3d2+ -0.47255     1 3d1-  0.51676
                                    2 1s    0.27543     2 2py   0.29882     2 3d2- -0.42939     2 3d2+ -0.47253     2 3d1-  0.51663
                                    4 1s   -0.35543     5 1s   -0.35534
   35.1    -0.00000     2.71909     1 3d0  -0.39468     1 3d2- -0.45453     1 3d1+  0.48065     1 3d1- -0.29512     2 3d0  -0.39469
                                    2 3d2- -0.45462     2 3d1+  0.48075     2 3d1- -0.29523     3 1s   -0.48681     6 1s   -0.48698
   36.1    -0.00000     2.91957     1 1s   -1.68735     1 2px  -0.33604     1 2px  -0.88479     1 2py   0.27616     1 2pz   0.45218
                                    1 3d2-  0.37068     1 3d1+  0.67730     1 3d2+ -0.60172     2 1s    1.68734     2 2px  -0.33604
                                    2 2px  -0.88479     2 2py   0.27616     2 2pz   0.45218     2 3d2- -0.37072     2 3d1+ -0.67726
                                    2 3d2+  0.60173


 Natural orbital dump (state averaged) at molpro section  2140.2    (Orbital set 2)



 **********************************************************************************************************************************
 DATASETS  * FILE   NREC   LENGTH (MB)   RECORD NAMES
              1      20       31.85       500      610      700      900      950      970     1000      129      960     1100   
                                          VAR    BASINP    GEOM    SYMINP    ZMAT    AOBASIS   BASIS     P2S    ABASIS      S 
                                         1400     1410     1200     1210     1080     1600     1650     1300     1700     1380   
                                           T        V       H0       H01     AOSYM     SMH    MOLCAS    ERIS     OPER     JKOP   

              2       5        5.42       700     1000      520     2100     2140   
                                         GEOM     BASIS   MCVARS     RHF     MCSCF   

 PROGRAMS   *        TOTAL     MULTI    HF-SCF       INT
 CPU TIMES  *         0.83      0.31      0.17      0.22
 REAL TIME  *         1.38 SEC
 DISK USED  *        39.04 MB
 **********************************************************************************************************************************
 Molecular orbitals read from record     2140.2  Type=MCSCF/NATURAL (state averaged)
 Occupation numbers read from record     2140.2  Type=MCSCF/NATURAL (state averaged)
 Orbital energies read from record       2140.2  Type=MCSCF/NATURAL (state averaged)
 Redundancy group numbers read from rec  2140.2  Type=MCSCF/NATURAL (state averaged)

 MULTI/6-31G* energy=    -77.560459150379

           MULTI          HF-SCF
    -77.56045915    -77.81490772
 **********************************************************************************************************************************
 Molpro calculation terminated
