
 Primary working directories    : /scratch.local/johan406.molpro_temp/molpro.ZEmDqh1LKE
 Secondary working directories  : /scratch.local/johan406.molpro_temp/molpro.ZEmDqh1LKE
 Wavefunction directory         : /home/goodpast/johan406/wfu/
 Main file repository           : /scratch.local/johan406.molpro_temp/molpro.ZEmDqh1LKE/

 id        : roweumn

 Nodes     nprocs
 acn09        1

 Using customized tuning parameters: mindgm=1; mindgv=20; mindgc=4; mindgr=1; noblas=0; minvec=7
 default implementation of scratch files=df  


 Variables initialized (934), CPU time= 0.00 sec
                                                                                 !leave this line blank
 
 gprint, orbitals=30
 memory, 125., m
 symmetry, nosym
 nelect=16
 basis=6-31g*
 
 geometry={
 C -0.6522 0.1635 0.3207
 C 0.6611 -0.2133 -0.3811
 H -1.4438 0.7897 -0.1623
 H -1.0615 -0.7852 -0.2184
 H 1.0705 0.7353 0.158
 H 1.4527 -0.8396 0.1019
 }
 
 hf
 {multi,
 closed 7
 occ 9
 wf,spin=0;STATE,3
 }
 
 Commands  initialized (763), CPU time= 0.00 sec, 617 directives.
 Default parameters read. Elapsed time= 0.08 sec

 Checking input...
 Passed
1


                                         ***  PROGRAM SYSTEM MOLPRO  ***
                                       Copyright, TTI GmbH Stuttgart, 2015
                                    Version 2019.2 linked Oct 25 2019 22:50:27


 **********************************************************************************************************************************
 LABEL *                                                                                 
  64 bit serial version                                                                  DATE: 07-Feb-23          TIME: 15:33:51  
 **********************************************************************************************************************************

 SHA1:             8dbd9ae1082e4ce945b0f27595c9eb2d4aa09004
 **********************************************************************************************************************************


 Variable memory set to  125000000 words,  buffer space 

 SETTING NELECT         =        16.00000000                                  
 SETTING BASIS          =    6-31G*
 ZSYMEL=NOSYM


Geometry recognized as XYZ



 Recomputing integrals since basis changed


 Using spherical harmonics

 Library entry C      S 6-31G                selected for orbital group  1
 Library entry C      P 6-31G                selected for orbital group  1
 Library entry C      D 6-31G*               selected for orbital group  1
 Library entry H      S 6-31G                selected for orbital group  2


 PROGRAM * SEWARD (Integral evaluation for generally contracted gaussian basis sets)     Author: Roland Lindh, 1990

 Geometry written to block  1 of record 700


 Point group  C1  



 ATOMIC COORDINATES

 NR  ATOM    CHARGE       X              Y              Z

   1  C       6.00   -1.232479378    0.308970221    0.606035168
   2  C       6.00    1.249297941   -0.403078582   -0.720174626
   3  H       1.00   -2.728386579    1.492316721   -0.306702550
   4  H       1.00   -2.005944281   -1.483812953   -0.412716186
   5  H       1.00    2.022951816    1.389515619    0.298576728
   6  H       1.00    2.745205141   -1.586614054    0.192563092

 Bond lengths in Bohr (Angstrom)

 1-2  2.902596179  1-3  2.114506427  1-4  2.202311010  2-5  2.202223561  2-6  2.114612188
     ( 1.535987751)     ( 1.118948614)     ( 1.165412798)     ( 1.165366522)     ( 1.119004580)

 Bond angles

  1-2-5   83.64574512   1-2-6  123.02049210   2-1-3  123.02085648   2-1-4   83.64055538

  3-1-4   90.42570123   5-2-6   90.42363527

 NUCLEAR CHARGE:                   16
 NUMBER OF PRIMITIVE AOS:          72
 NUMBER OF SYMMETRY AOS:           70
 NUMBER OF CONTRACTIONS:           36   (   36A   )
 NUMBER OF CORE ORBITALS:           2   (    2A   )
 NUMBER OF VALENCE ORBITALS:       12   (   12A   )


 NUCLEAR REPULSION ENERGY   31.15151212

 Eigenvalues of metric

         1 0.112E-01 0.261E-01 0.584E-01 0.762E-01 0.895E-01 0.234E+00 0.242E+00 0.294E+00


 Contracted 2-electron integrals neglected if value below      1.0D-11
 AO integral compression algorithm  1   Integral accuracy      1.0D-11

     1.573 MB (compressed) written to integral file ( 58.2%)


 NUMBER OF SORTED TWO-ELECTRON INTEGRALS:     222111.     BUFFER LENGTH:  32768
 NUMBER OF SEGMENTS:   1  SEGMENT LENGTH:     222111      RECORD LENGTH: 524288

 Memory used in sort:       0.78 MW

 SORT1 READ      284735. AND WROTE      212528. INTEGRALS IN      1 RECORDS. CPU TIME:     0.00 SEC, REAL TIME:     0.00 SEC
 SORT2 READ      212528. AND WROTE      222111. INTEGRALS IN      6 RECORDS. CPU TIME:     0.02 SEC, REAL TIME:     0.03 SEC

 FILE SIZES:   FILE 1:    31.7 MBYTE,  FILE 4:     4.2 MBYTE,   TOTAL:     35.9 MBYTE

 OPERATOR DM      FOR CENTER  0  COORDINATES:    0.000000    0.000000    0.000000


 **********************************************************************************************************************************
 DATASETS  * FILE   NREC   LENGTH (MB)   RECORD NAMES
              1      19       31.12       500      610      700      900      950      970     1000      129      960     1100   
                                          VAR    BASINP    GEOM    SYMINP    ZMAT    AOBASIS   BASIS     P2S    ABASIS      S 
                                         1400     1410     1200     1210     1080     1600     1650     1300     1700   
                                           T        V       H0       H01     AOSYM     SMH    MOLCAS    ERIS     OPER   

 PROGRAMS   *        TOTAL       INT
 CPU TIMES  *         0.30      0.21
 REAL TIME  *         0.48 SEC
 DISK USED  *        36.24 MB
 **********************************************************************************************************************************


 PROGRAM * RHF-SCF (CLOSED SHELL)       Authors: W. Meyer, H.-J. Werner


 NUMBER OF ELECTRONS:       8+    8-    SPACE SYMMETRY=1    SPIN SYMMETRY: Singlet 
 CONVERGENCE THRESHOLDS:    1.00E-05 (Density)    1.00E-07 (Energy)
 MAX. NUMBER OF ITERATIONS:       60
 INTERPOLATION TYPE:            DIIS
 INTERPOLATION STEPS:              2 (START)      1 (STEP)
 LEVEL SHIFTS:                  0.00 (CLOSED)  0.00 (OPEN) 



 Orbital guess generated from atomic densities. Full valence occupancy:    8

 Molecular orbital dump at record        2100.2

 Initial occupancy:   8

 ITERATION    DDIFF          GRAD             ENERGY        2-EL.EN.            DIPOLE MOMENTS         DIIS   ORB.
    1      0.000D+00      0.000D+00       -77.77120719    113.323872    0.00002   -0.00007   -0.00002    0    start
    2      0.000D+00      0.673D-02       -77.79125236    112.604597   -0.00000    0.00000    0.00002    1    diag
    3      0.741D-02      0.242D-02       -77.79487017    112.954306    0.00002   -0.00002   -0.00002    2    diag
    4      0.380D-02      0.105D-02       -77.79598244    112.812866   -0.00000    0.00001    0.00002    3    diag
    5      0.222D-02      0.552D-03       -77.79664913    112.831821    0.00003   -0.00002   -0.00004    4    diag
    6      0.215D-02      0.248D-03       -77.79685794    112.831490   -0.00006    0.00005    0.00011    5    diag
    7      0.134D-02      0.983D-04       -77.79689186    112.833755    0.00016   -0.00011   -0.00025    6    diag
    8      0.617D-03      0.341D-04       -77.79689483    112.833514   -0.00028    0.00021    0.00049    7    diag
    9      0.190D-03      0.115D-04       -77.79689494    112.833471    0.00016   -0.00012   -0.00026    8    diag
   10      0.274D-04      0.538D-05       -77.79689496    112.833446    0.00000   -0.00000    0.00001    9    orth
   11      0.126D-04      0.599D-06       -77.79689496    112.833418    0.00001   -0.00000   -0.00000    9    diag
   12      0.177D-05      0.878D-07       -77.79689496    112.833423    0.00001   -0.00000   -0.00000    0    orth

 Final occupancy:   8

 !RHF STATE  1.1 Energy               -77.796894957491
 Nuclear energy                        31.15151212
 One-electron energy                 -165.36511838
 Two-electron energy                   56.41671130
 Virial quotient                       -1.00268981
 !RHF STATE  1.1 Dipole moment          0.00000834    -0.00000430    -0.00000228
 Dipole moment /Debye                   0.00002121    -0.00001094    -0.00000580

 ELECTRON ORBITALS
 =================

  Orbital  Occupation    Energy     Coefficients
    1.1     2.00000   -11.27752     1 1s    0.70231     2 1s    0.70673
    2.1     2.00000   -11.27698     1 1s   -0.70679     2 1s    0.70236
    3.1     2.00000    -1.01092     1 1s    0.28263     1 1s    0.26179     2 1s    0.28263     2 1s    0.26179
    4.1     2.00000    -0.80453     1 1s   -0.29067     2 1s    0.29067
    5.1     2.00000    -0.57245     1 2py   0.31025     2 2py   0.31011
    6.1     2.00000    -0.56032     1 2px   0.32080     2 2px  -0.32076
    7.1     2.00000    -0.38956     1 1s    0.25136     1 2pz   0.29383     1 2pz   0.27468     2 1s   -0.25137     2 2pz   0.29383
                                    2 2pz   0.27468
    8.1     2.00000    -0.37356     1 2py   0.26174     2 2py  -0.26173     4 1s   -0.29720     5 1s   -0.29718
    9.1     0.00000     0.04281     1 1s    0.35325     1 2pz   0.33710     1 2pz   0.44187     2 1s    0.35326     2 2pz  -0.33710
                                    2 2pz  -0.44187
   10.1     0.00000     0.23310     1 1s   -1.02252     1 2px   0.48693     1 2py   0.42809     1 2pz   0.42156     2 1s   -1.02322
                                    2 2px  -0.48687     2 2py  -0.42781     2 2pz  -0.42178     3 1s    0.49810     4 1s    1.09793
                                    5 1s    1.09777     6 1s    0.49870
   11.1     0.00000     0.24932     1 1s   -1.41499     1 2py  -0.25800     1 2pz   0.47121     2 1s    1.41449     2 2py  -0.25844
                                    2 2pz   0.47104     3 1s    1.23870     6 1s   -1.23862
   12.1     0.00000     0.30375     1 1s   -0.80715     1 2px   0.48822     1 2py  -0.78887     1 2pz   0.48493     2 1s   -0.80681
                                    2 2px  -0.48829     2 2py   0.78875     2 2pz  -0.48482     3 1s    1.52124     4 1s   -0.28459
                                    5 1s   -0.28437     6 1s    1.52091
   13.1     0.00000     0.32097     1 1s    0.94804     1 2px  -0.45431     1 2py  -0.61890     1 2pz  -0.33091     2 1s   -0.94814
                                    2 2px  -0.45441     2 2py  -0.61914     2 2pz  -0.33096     4 1s   -1.56096     5 1s    1.56129
   14.1     0.00000     0.41405     1 1s    1.58264     1 2px   1.58717     1 2py  -0.68338     1 2pz  -0.72296     2 1s   -1.58275
                                    2 2px   1.58710     2 2py  -0.68337     2 2pz  -0.72301     3 1s    0.80812     4 1s   -0.38771
                                    5 1s    0.38772     6 1s   -0.80799
   15.1     0.00000     0.72005     1 1s   -0.49184     1 2py  -0.41864     1 2px  -0.76306     1 2py   0.66939     2 1s    0.49208
                                    2 2py  -0.41867     2 2px  -0.76268     2 2py   0.66935     3 1s   -0.44434     4 1s    0.25482
                                    5 1s   -0.25486     6 1s    0.44433
   16.1     0.00000     0.73719     1 2px  -0.55702     1 2px   0.91970     2 2px   0.55708     2 2px  -0.91988     3 1s    0.33676
                                    4 1s   -0.38855     5 1s   -0.38840     6 1s    0.33673
   17.1     0.00000     0.79989     1 1s    0.33238     1 2py  -0.48914     1 2pz  -0.48362     1 2py   0.92870     1 2pz   0.50698
                                    2 1s    0.33227     2 2py   0.48911     2 2pz   0.48401     2 2py  -0.92870     2 2pz  -0.50737
   18.1     0.00000     0.80713     1 2pz   0.75072     1 2pz  -0.68646     2 2pz   0.75046     2 2pz  -0.68617
   19.1     0.00000     0.87142     1 1s    0.42424     1 2px   0.30009     1 2py  -0.33852     1 2pz   0.55021     1 2px  -0.56923
                                    1 2py   0.79566     1 2pz  -0.78985     2 1s    0.42422     2 2px  -0.30007     2 2py   0.33860
                                    2 2pz  -0.55022     2 2px   0.56918     2 2py  -0.79577     2 2pz   0.78983     3 1s   -0.34535
                                    6 1s   -0.34537
   20.1     0.00000     0.95538     1 1s   -0.34671     1 1s    0.62887     1 2px  -0.69383     1 2py  -0.33184     1 2px   1.40822
                                    1 2py   0.53484     2 1s    0.34674     2 1s   -0.62888     2 2px  -0.69385     2 2py  -0.33175
                                    2 2px   1.40832     2 2py   0.53476     4 1s    0.90203     5 1s   -0.90195
   21.1     0.00000     1.07941     1 1s   -0.30107     1 1s    0.65899     1 2py   0.45075     1 2py  -0.45950     2 1s   -0.30077
                                    2 1s    0.65837     2 2py  -0.45073     2 2py   0.45946     3 1s   -0.45753     3 1s    0.44485
                                    4 1s    0.59166     4 1s   -1.06768     5 1s    0.59146     5 1s   -1.06744     6 1s   -0.45769
                                    6 1s    0.44514
   22.1     0.00000     1.11537     1 1s   -0.41388     1 2px   0.33694     1 2py  -0.59299     1 2px  -0.61992     1 2py   0.93622
                                    2 1s    0.41255     2 2px   0.33718     2 2py  -0.59311     2 2px  -0.62024     2 2py   0.93638
                                    3 1s    0.46574     3 1s   -1.08734     4 1s   -0.42332     4 1s    0.91771     5 1s    0.42309
                                    5 1s   -0.91723     6 1s   -0.46628     6 1s    1.08826
   23.1     0.00000     1.16369     1 1s   -0.99465     1 1s    1.65681     1 2px   0.34560     1 2px  -0.52218     1 2pz  -0.39627
                                    2 1s   -0.99808     2 1s    1.66366     2 2px  -0.34652     2 2px   0.52336     2 2pz   0.39816
                                    3 1s    0.56966     3 1s   -1.10455     4 1s   -0.57111     5 1s   -0.57577     6 1s    0.57093
                                    6 1s   -1.10691
   24.1     0.00000     1.16649     1 1s    0.79277     1 1s   -1.48909     1 2px  -0.30117     1 2pz  -0.28291     1 2px   0.45405
                                    1 2pz   0.40408     2 1s   -0.78883     2 1s    1.48256     2 2px  -0.29979     2 2pz  -0.28201
                                    2 2px   0.45199     2 2pz   0.40253     3 1s   -0.42658     3 1s    0.82821     4 1s   -0.55274
                                    4 1s    0.92839     5 1s    0.55195     5 1s   -0.92645     6 1s    0.42410     6 1s   -0.82352
   25.1     0.00000     1.31592     1 1s   -1.37265     1 1s    4.25670     1 2px   0.97745     1 2py  -0.75905     1 2pz  -1.11739
                                    2 1s    1.37197     2 1s   -4.25542     2 2px   0.97788     2 2py  -0.75937     2 2pz  -1.11675
                                    3 1s   -0.28383     4 1s   -0.47644     4 1s   -0.45762     5 1s    0.47619     5 1s    0.45749
                                    6 1s    0.28316
   26.1     0.00000     1.36225     1 1s   -1.07504     1 1s    2.07980     1 2px  -0.81276     1 2py   0.42225     1 2pz  -1.16154
                                    2 1s   -1.07581     2 1s    2.08212     2 2px   0.81215     2 2py  -0.42194     2 2pz   1.16214
                                    3 1s   -0.56242     3 1s   -0.88690     4 1s   -0.51633     4 1s   -0.30472     5 1s   -0.51660
                                    5 1s   -0.30494     6 1s   -0.56254     6 1s   -0.88696
   27.1     0.00000     1.68678     1 1s   -0.41551     1 3d0  -0.27057     1 3d2-  0.37032     1 3d2+  0.37421     2 1s    0.41543
                                    2 3d0   0.27053     2 3d2- -0.37028     2 3d2+ -0.37425
   28.1     0.00000     1.86794     1 3d0   0.38779     1 3d1+  0.31247     1 3d2+  0.39449     1 3d1-  0.28267     2 3d0   0.38783
                                    2 3d1+  0.31247     2 3d2+  0.39450     2 3d1-  0.28261
   29.1     0.00000     2.03629     1 1s   -0.81187     1 3d0   0.55660     1 3d2+  0.33583     2 1s    0.81199     2 3d0  -0.55666
                                    2 3d2+ -0.33579
   30.1     0.00000     2.09002     1 1s   -0.49924     1 1s    1.89093     1 2py  -0.32261     1 2pz  -0.56230     1 3d2- -0.27203
                                    1 3d1+  0.41841     1 3d1-  0.32934     2 1s    0.49938     2 1s   -1.89099     2 2py  -0.32266
                                    2 2pz  -0.56232     2 3d2-  0.27225     2 3d1+ -0.41826     2 3d1- -0.32932     3 1s   -0.47986
                                    4 1s   -0.35782     4 1s   -0.27463     5 1s    0.35770     5 1s    0.27476     6 1s    0.47985
   31.1     0.00000     2.13805     1 1s    0.45147     1 1s   -0.25664     1 2px   0.27077     1 2px  -0.31628     1 3d1+  0.38440
                                    1 3d2+ -0.35670     2 1s    0.45122     2 1s   -0.25570     2 2px  -0.27077     2 2px   0.31615
                                    2 3d1+  0.38454     2 3d2+ -0.35667
   32.1     0.00000     2.26802     1 3d0   0.46416     1 3d2- -0.44741     1 3d1- -0.28641     2 3d0   0.46415     2 3d2- -0.44733
                                    2 3d1- -0.28642     4 1s    0.36223     5 1s    0.36230
   33.1     0.00000     2.49138     1 1s    0.57880     1 2px   0.30628     1 3d2-  0.43495     1 3d1-  0.58046     2 1s   -0.57883
                                    2 2px   0.30622     2 3d2- -0.43515     2 3d1- -0.58050     3 1s    0.40864     4 1s   -0.42074
                                    5 1s    0.42086     6 1s   -0.40866
   34.1     0.00000     2.57504     1 1s    0.30576     1 2py  -0.28001     1 3d2- -0.42860     1 3d2+ -0.44802     1 3d1-  0.51034
                                    2 1s    0.30601     2 2py   0.28006     2 3d2- -0.42854     2 3d2+ -0.44798     2 3d1-  0.51042
                                    4 1s   -0.36080     5 1s   -0.36085
   35.1     0.00000     2.69415     1 3d0  -0.38755     1 3d2- -0.43271     1 3d1+  0.46727     1 3d1- -0.30690     2 3d0  -0.38756
                                    2 3d2- -0.43263     2 3d1+  0.46717     2 3d1- -0.30685     3 1s   -0.47614     6 1s   -0.47597
   36.1     0.00000     2.90285     1 1s   -1.63696     1 2px  -0.30634     1 2px  -0.86851     1 2py   0.27920     1 2pz   0.44661
                                    1 3d2-  0.38263     1 3d1+  0.66402     1 3d2+ -0.58861     2 1s    1.63695     2 2px  -0.30634
                                    2 2px  -0.86852     2 2py   0.27919     2 2pz   0.44659     2 3d2- -0.38265     2 3d1+ -0.66403
                                    2 3d2+  0.58863


 HOMO      8.1    -0.373556 =     -10.1650eV
 LUMO      9.1     0.042808 =       1.1649eV
 LUMO-HOMO         0.416364 =      11.3298eV


 **********************************************************************************************************************************
 DATASETS  * FILE   NREC   LENGTH (MB)   RECORD NAMES
              1      19       31.12       500      610      700      900      950      970     1000      129      960     1100   
                                          VAR    BASINP    GEOM    SYMINP    ZMAT    AOBASIS   BASIS     P2S    ABASIS      S 
                                         1400     1410     1200     1210     1080     1600     1650     1300     1700   
                                           T        V       H0       H01     AOSYM     SMH    MOLCAS    ERIS     OPER   

              2       4        2.86       700     1000      520     2100   
                                         GEOM     BASIS   MCVARS     RHF  

 PROGRAMS   *        TOTAL    HF-SCF       INT
 CPU TIMES  *         0.41      0.11      0.21
 REAL TIME  *         0.70 SEC
 DISK USED  *        36.24 MB
 **********************************************************************************************************************************


 PROGRAM * MULTI (Direct Multiconfiguration SCF)       Authors: P.J. Knowles, H.-J. Werner (1984)


 Number of closed-shell orbitals:   7 (   7 )
 Number of active  orbitals:        2 (   2 )
 Number of external orbitals:      27 (  27 )

 State symmetry 1

 Number of electrons:     2    Spin symmetry=Singlet   Space symmetry=1
 Number of states:        3
 Number of CSFs:          3   (4 determinants, 4 intermediate states)

 Molecular orbitals read from record     2100.2  Type=RHF/CANONICAL (state 1.1)

 Wavefunction dump at record             2140.2

 Convergence thresholds  0.10E-01 (gradient)  0.10E-05 (energy)  0.10E-02 (step length)

 Weight factors for state symmetry  1:    0.33333   0.33333   0.33333

 Number of orbital rotations:      257   (    14 Core/Active    189 Core/Virtual   0 Active/Active     54 Active/Virtual)
 Total number of variables:        269

 Micro-Iterations solved by the two-step solver

 ITER. MIC  NCI  NEG     ENERGY(VAR)     ENERGY(PROJ)   ENERGY CHANGE     GRAD(0)  GRAD(ORB)   GRAD(CI)     STEP       TIME

   1    6    5    0     -77.67030676     -77.68704827   -0.01674151    0.15504037 0.00055745 0.00000000  0.12D+00      0.13
   2    6    5    0     -77.68693819     -77.68694847   -0.00001028    0.00514700 0.00000172 0.00000000  0.24D-02      0.24
   3    3    4    0     -77.68694848     -77.68694848   -0.00000000    0.00000565 0.00000000 0.00000000  0.46D-05      0.31

 ** WVFN ****  CONVERGENCE REACHED, FINAL GRADIENT:  0.20D-10



 Results for state 1.1
 =====================

 !MCSCF STATE  1.1 Energy             -77.790168730474
 Nuclear energy                        31.15151212
 Kinetic energy                        77.54210208
 One electron energy                 -165.28032444
 Two electron energy                   56.33864359
 Virial ratio                           2.00319912

 !MCSCF STATE  1.1 Dipole moment        0.00001789     0.00002186    -0.00000704
 Dipole moment /Debye                   0.00004548     0.00005555    -0.00001789

 Results for state 2.1
 =====================

 !MCSCF STATE  2.1 Energy             -77.714569025826
 Nuclear energy                        31.15151212
 Kinetic energy                        77.60516581
 One electron energy                 -165.21827392
 Two electron energy                   56.35219278
 Virial ratio                           2.00140974

 !MCSCF STATE  2.1 Dipole moment       -0.00001549    -0.00002449     0.00001096
 Dipole moment /Debye                  -0.00003936    -0.00006225     0.00002787

 Results for state 3.1
 =====================

 !MCSCF STATE  3.1 Energy             -77.556107672208
 Nuclear energy                        31.15151212
 Kinetic energy                        77.68085917
 One electron energy                 -165.13134253
 Two electron energy                   56.42372274
 Virial ratio                           1.99839405

 !MCSCF STATE  3.1 Dipole moment       -0.00004632    -0.00008006     0.00002756
 Dipole moment /Debye                  -0.00011772    -0.00020347     0.00007005

 State-averaged charge density matrix saved on record  2140.2 (density set 1)

 !MCSCF expec         <1.1|DMX|1.1>     0.000017894609 au =     0.000045480581 Debye
 !MCSCF trans         <2.1|DMX|1.1>     0.000009688794 au =     0.000024624845 Debye
 !MCSCF expec         <2.1|DMX|2.1>    -0.000015487594 au =    -0.000039362960 Debye
 !MCSCF trans         <3.1|DMX|1.1>     0.000004091002 au =     0.000010397609 Debye
 !MCSCF trans         <3.1|DMX|2.1>     0.000012186574 au =     0.000030973152 Debye
 !MCSCF expec         <3.1|DMX|3.1>    -0.000046316696 au =    -0.000117717588 Debye

 !MCSCF expec         <1.1|DMY|1.1>     0.000021857627 au =     0.000055552907 Debye
 !MCSCF trans         <2.1|DMY|1.1>    -0.000038386211 au =    -0.000097561626 Debye
 !MCSCF expec         <2.1|DMY|2.1>    -0.000024494021 au =    -0.000062253513 Debye
 !MCSCF trans         <3.1|DMY|1.1>     0.000004268106 au =     0.000010847734 Debye
 !MCSCF trans         <3.1|DMY|2.1>    -0.000040914466 au =    -0.000103987389 Debye
 !MCSCF expec         <3.1|DMY|3.1>    -0.000080057921 au =    -0.000203473610 Debye

 !MCSCF expec         <1.1|DMZ|1.1>    -0.000007038749 au =    -0.000017889544 Debye
 !MCSCF trans         <2.1|DMZ|1.1>    -0.000005342361 au =    -0.000013578038 Debye
 !MCSCF expec         <2.1|DMZ|2.1>     0.000010964814 au =     0.000027867951 Debye
 !MCSCF trans         <3.1|DMZ|1.1>    -0.000002209532 au =    -0.000005615703 Debye
 !MCSCF trans         <3.1|DMZ|2.1>    -0.000006702992 au =    -0.000017036192 Debye
 !MCSCF expec         <3.1|DMZ|3.1>     0.000027562645 au =     0.000070052668 Debye


 NATURAL ORBITALS (state averaged)
 =================================

  Orbital  Occupation    Energy     Coefficients
    1.1     2.00000   -11.26831     1 1s    0.70510     2 1s    0.70389
    2.1     2.00000   -11.26775     1 1s   -0.70392     2 1s    0.70513
    3.1     2.00000    -1.02414     1 1s    0.27393     1 1s    0.25763     2 1s    0.27393     2 1s    0.25763
    4.1     2.00000    -0.80644     1 1s   -0.30898     2 1s    0.30898
    5.1     2.00000    -0.56897     1 2py   0.29668     2 2py   0.29644
    6.1     2.00000    -0.55790     1 2px   0.29164     2 2px  -0.29161
    7.1     2.00000    -0.41347     1 2pz   0.31055     1 2pz   0.27557     2 2pz   0.31054     2 2pz   0.27558
    8.1     1.00000    -0.10822     1 1s    0.25709     1 2pz   0.40373     1 2pz   0.40307     2 1s    0.25710     2 2pz  -0.40372
                                    2 2pz  -0.40307
    9.1     1.00000    -0.22441     1 2px   0.25671     2 2px  -0.25671     4 1s   -0.30928     5 1s   -0.30927
   10.1    -0.00000     0.21749     1 1s   -1.00120     1 2px   0.47954     1 2py   0.46185     1 2pz   0.37780     2 1s   -1.00148
                                    2 2px  -0.47951     2 2py  -0.46165     2 2pz  -0.37788     3 1s    0.44181     4 1s    1.10197
                                    5 1s    1.10183     6 1s    0.44207
   11.1    -0.00000     0.24696     1 1s   -1.49603     1 2pz   0.48489     2 1s    1.49585     2 2pz   0.48484     3 1s    1.24187
                                    6 1s   -1.24193
   12.1    -0.00000     0.30608     1 1s   -0.87252     1 2px   0.49984     1 2py  -0.77583     1 2pz   0.46306     2 1s   -0.87237
                                    2 2px  -0.49994     2 2py   0.77559     2 2pz  -0.46303     3 1s    1.54244     6 1s    1.54211
   13.1    -0.00000     0.30828     1 1s    0.94394     1 2px  -0.33220     1 2py  -0.71025     1 2pz  -0.35013     2 1s   -0.94391
                                    2 2px  -0.33223     2 2py  -0.71063     2 2pz  -0.35011     4 1s   -1.59944     5 1s    1.59982
   14.1    -0.00000     0.41940     1 1s    1.45646     1 2px   0.26249     1 2px   1.60630     1 2py  -0.59583     1 2pz  -0.64902
                                    2 1s   -1.45655     2 2px   0.26248     2 2px   1.60625     2 2py  -0.59581     2 2pz  -0.64906
                                    3 1s    0.83537     6 1s   -0.83524
   15.1    -0.00000     0.71803     1 1s   -0.57686     1 2py  -0.40557     1 2px  -0.80287     1 2py   0.68310     2 1s    0.57709
                                    2 2py  -0.40558     2 2px  -0.80253     2 2py   0.68305     3 1s   -0.44450     4 1s    0.27311
                                    5 1s   -0.27313     6 1s    0.44449
   16.1    -0.00000     0.73220     1 2px  -0.53416     1 2px   0.89257     2 2px   0.53420     2 2px  -0.89271     3 1s    0.34232
                                    4 1s    0.27829     4 1s   -0.45916     5 1s    0.27823     5 1s   -0.45903     6 1s    0.34229
   17.1    -0.00000     0.80292     1 1s    0.26816     1 2py  -0.48538     1 2pz  -0.45453     1 2py   0.92749     1 2pz   0.55046
                                    2 1s    0.26773     2 2py   0.48529     2 2pz   0.45549     2 2py  -0.92749     2 2pz  -0.55147
   18.1    -0.00000     0.80457     1 1s    0.27927     1 2pz   0.74907     1 2pz  -0.75634     2 1s   -0.27961     2 2pz   0.74846
                                    2 2pz  -0.75558
   19.1    -0.00000     0.87414     1 1s    0.40307     1 2px   0.32362     1 2py  -0.31248     1 2pz   0.53706     1 2px  -0.60200
                                    1 2py   0.76871     1 2pz  -0.82877     2 1s    0.40304     2 2px  -0.32359     2 2py   0.31258
                                    2 2pz  -0.53710     2 2px   0.60194     2 2py  -0.76883     2 2pz   0.82877     3 1s   -0.37213
                                    6 1s   -0.37214
   20.1    -0.00000     0.96107     1 1s   -0.36302     1 1s    0.62820     1 2px  -0.68709     1 2py  -0.32735     1 2px   1.36652
                                    1 2py   0.52433     2 1s    0.36307     2 1s   -0.62824     2 2px  -0.68710     2 2py  -0.32724
                                    2 2px   1.36662     2 2py   0.52423     4 1s    0.85107     5 1s   -0.85096
   21.1    -0.00000     1.05622     1 1s   -0.38773     1 1s    0.78305     1 2py   0.46898     1 2px  -0.28463     1 2py  -0.49032
                                    2 1s   -0.38738     2 1s    0.78229     2 2py  -0.46874     2 2px   0.28486     2 2py   0.48996
                                    3 1s   -0.35885     3 1s    0.33698     4 1s    0.62321     4 1s   -1.10026     5 1s    0.62278
                                    5 1s   -1.09964     6 1s   -0.35892     6 1s    0.33697
   22.1    -0.00000     1.09698     1 1s    0.32810     1 1s   -0.79737     1 2py  -0.59410     1 2px  -0.32619     1 2py   0.89281
                                    1 2pz   0.26585     2 1s   -0.32788     2 1s    0.79713     2 2py  -0.59444     2 2px  -0.32616
                                    2 2py   0.89317     2 2pz   0.26589     3 1s   -0.65836     4 1s   -0.63107     4 1s    1.20593
                                    5 1s    0.63128     5 1s   -1.20631     6 1s    0.65905
   23.1    -0.00000     1.15217     1 1s    0.63095     1 1s   -1.00231     1 2px  -0.43785     1 2px   0.74782     1 2py  -0.27355
                                    2 1s   -0.63353     2 1s    1.00651     2 2px  -0.43874     2 2px   0.74910     2 2py  -0.27392
                                    3 1s   -0.58603     3 1s    1.18960     4 1s   -0.34168     4 1s    0.47403     5 1s    0.34229
                                    5 1s   -0.47546     6 1s    0.58760     6 1s   -1.19243
   24.1    -0.00000     1.16319     1 1s   -0.94935     1 1s    1.54834     1 2px   0.33449     1 2px  -0.48373     1 2pz  -0.33004
                                    2 1s   -0.94802     2 1s    1.54657     2 2px  -0.33323     2 2px   0.48147     2 2pz   0.32964
                                    3 1s    0.62979     3 1s   -1.13838     4 1s   -0.43061     5 1s   -0.43003     6 1s    0.62809
                                    6 1s   -1.13490
   25.1    -0.00000     1.30764     1 1s   -1.42155     1 1s    4.35017     1 2px   0.98540     1 2py  -0.77821     1 2pz  -1.13142
                                    2 1s    1.42073     2 1s   -4.34863     2 2px   0.98593     2 2py  -0.77858     2 2pz  -1.13065
                                    3 1s   -0.29616     4 1s   -0.44012     4 1s   -0.51108     5 1s    0.43983     5 1s    0.51089
                                    6 1s    0.29538
   26.1    -0.00000     1.34984     1 1s   -1.10055     1 1s    2.13501     1 2px  -0.83502     1 2py   0.42853     1 2pz  -1.17436
                                    2 1s   -1.10150     2 1s    2.13783     2 2px   0.83431     2 2py  -0.42813     2 2pz   1.17508
                                    3 1s   -0.57086     3 1s   -0.89581     4 1s   -0.48886     4 1s   -0.35228     5 1s   -0.48917
                                    5 1s   -0.35257     6 1s   -0.57101     6 1s   -0.89591
   27.1    -0.00000     1.68152     1 1s   -0.42503     1 3d0  -0.26240     1 3d2-  0.37261     1 3d2+  0.37729     2 1s    0.42495
                                    2 3d0   0.26236     2 3d2- -0.37257     2 3d2+ -0.37733
   28.1    -0.00000     1.86466     1 3d0   0.38318     1 3d1+  0.31127     1 3d2+  0.39837     1 3d1-  0.28447     2 3d0   0.38322
                                    2 3d1+  0.31127     2 3d2+  0.39838     2 3d1-  0.28441
   29.1    -0.00000     2.03683     1 1s   -0.71974     1 3d0   0.54937     1 3d2+  0.34271     2 1s    0.71985     2 3d0  -0.54943
                                    2 3d2+ -0.34268
   30.1    -0.00000     2.08938     1 1s   -0.50308     1 1s    1.89557     1 2py  -0.32824     1 2pz  -0.56203     1 3d2- -0.26789
                                    1 3d1+  0.41416     1 3d1-  0.32544     2 1s    0.50323     2 1s   -1.89564     2 2py  -0.32828
                                    2 2pz  -0.56207     2 3d2-  0.26811     2 3d1+ -0.41399     2 3d1- -0.32541     3 1s   -0.48401
                                    4 1s   -0.35401     4 1s   -0.28484     5 1s    0.35388     5 1s    0.28497     6 1s    0.48401
   31.1    -0.00000     2.14013     1 1s    0.44137     1 2px   0.27808     1 2px  -0.31487     1 3d1+  0.39432     1 3d2+ -0.35574
                                    2 1s    0.44112     2 2px  -0.27809     2 2px   0.31474     2 3d1+  0.39447     2 3d2+ -0.35570
   32.1    -0.00000     2.26009     1 3d0   0.46792     1 3d2- -0.44549     1 3d1- -0.30273     2 3d0   0.46791     2 3d2- -0.44540
                                    2 3d1- -0.30274     4 1s    0.35256     5 1s    0.35263
   33.1    -0.00000     2.48459     1 1s    0.53672     1 2px   0.29040     1 3d2-  0.44435     1 3d1-  0.57701     2 1s   -0.53676
                                    2 2px   0.29033     2 3d2- -0.44455     2 3d1- -0.57705     3 1s    0.41582     4 1s   -0.40812
                                    5 1s    0.40823     6 1s   -0.41583
   34.1    -0.00000     2.56876     1 1s    0.30280     1 2py  -0.28954     1 3d2- -0.41553     1 3d2+ -0.45368     1 3d1-  0.52333
                                    2 1s    0.30306     2 2py   0.28959     2 3d2- -0.41548     2 3d2+ -0.45364     2 3d1-  0.52341
                                    4 1s   -0.35777     5 1s   -0.35782
   35.1    -0.00000     2.70082     1 3d0  -0.39671     1 3d2- -0.43780     1 3d1+  0.47736     1 3d1- -0.28616     2 3d0  -0.39671
                                    2 3d2- -0.43773     2 3d1+  0.47727     2 3d1- -0.28611     3 1s   -0.47748     6 1s   -0.47732
   36.1    -0.00000     2.90525     1 1s   -1.66255     1 2px  -0.30047     1 2px  -0.88110     1 2py   0.28820     1 2pz   0.45493
                                    1 3d2-  0.37680     1 3d1+  0.66781     1 3d2+ -0.58578     2 1s    1.66254     2 2px  -0.30047
                                    2 2px  -0.88111     2 2py   0.28820     2 2pz   0.45491     2 3d2- -0.37682     2 3d1+ -0.66782
                                    2 3d2+  0.58580


 Natural orbital dump (state averaged) at molpro section  2140.2    (Orbital set 2)



 **********************************************************************************************************************************
 DATASETS  * FILE   NREC   LENGTH (MB)   RECORD NAMES
              1      20       31.85       500      610      700      900      950      970     1000      129      960     1100   
                                          VAR    BASINP    GEOM    SYMINP    ZMAT    AOBASIS   BASIS     P2S    ABASIS      S 
                                         1400     1410     1200     1210     1080     1600     1650     1300     1700     1380   
                                           T        V       H0       H01     AOSYM     SMH    MOLCAS    ERIS     OPER     JKOP   

              2       5        5.42       700     1000      520     2100     2140   
                                         GEOM     BASIS   MCVARS     RHF     MCSCF   

 PROGRAMS   *        TOTAL     MULTI    HF-SCF       INT
 CPU TIMES  *         0.77      0.36      0.11      0.21
 REAL TIME  *         1.14 SEC
 DISK USED  *        39.03 MB
 **********************************************************************************************************************************
 Molecular orbitals read from record     2140.2  Type=MCSCF/NATURAL (state averaged)
 Occupation numbers read from record     2140.2  Type=MCSCF/NATURAL (state averaged)
 Orbital energies read from record       2140.2  Type=MCSCF/NATURAL (state averaged)
 Redundancy group numbers read from rec  2140.2  Type=MCSCF/NATURAL (state averaged)

 MULTI/6-31G* energy=    -77.556107672208

           MULTI          HF-SCF
    -77.55610767    -77.79689496
 **********************************************************************************************************************************
 Molpro calculation terminated
