
 Primary working directories    : /scratch.local/johan406.molpro_temp/molpro.9YnFiBaed2
 Secondary working directories  : /scratch.local/johan406.molpro_temp/molpro.9YnFiBaed2
 Wavefunction directory         : /home/goodpast/johan406/wfu/
 Main file repository           : /scratch.local/johan406.molpro_temp/molpro.9YnFiBaed2/

 id        : roweumn

 Nodes     nprocs
 acn09        1

 Using customized tuning parameters: mindgm=1; mindgv=20; mindgc=4; mindgr=1; noblas=0; minvec=7
 default implementation of scratch files=df  


 Variables initialized (934), CPU time= 0.01 sec
                                                                                 !leave this line blank
 
 gprint, orbitals=30
 memory, 125., m
 symmetry, nosym
 nelect=16
 basis=6-31g*
 
 geometry={
 C -0.6531 0.1643 0.3215
 C 0.662 -0.2142 -0.3818
 H -1.4495 0.7862 -0.1626
 H -1.0648 -0.7826 -0.221
 H 1.0737 0.7327 0.1606
 H 1.4584 -0.8361 0.1021
 }
 
 hf
 {multi,
 closed 7
 occ 9
 wf,spin=0;STATE,3
 }
 
 Commands  initialized (763), CPU time= 0.01 sec, 617 directives.
 Default parameters read. Elapsed time= 0.09 sec

 Checking input...
 Passed
1


                                         ***  PROGRAM SYSTEM MOLPRO  ***
                                       Copyright, TTI GmbH Stuttgart, 2015
                                    Version 2019.2 linked Oct 25 2019 22:50:27


 **********************************************************************************************************************************
 LABEL *                                                                                 
  64 bit serial version                                                                  DATE: 07-Feb-23          TIME: 15:34:06  
 **********************************************************************************************************************************

 SHA1:             8dbd9ae1082e4ce945b0f27595c9eb2d4aa09004
 **********************************************************************************************************************************


 Variable memory set to  125000000 words,  buffer space 

 SETTING NELECT         =        16.00000000                                  
 SETTING BASIS          =    6-31G*
 ZSYMEL=NOSYM


Geometry recognized as XYZ



 Recomputing integrals since basis changed


 Using spherical harmonics

 Library entry C      S 6-31G                selected for orbital group  1
 Library entry C      P 6-31G                selected for orbital group  1
 Library entry C      D 6-31G*               selected for orbital group  1
 Library entry H      S 6-31G                selected for orbital group  2


 PROGRAM * SEWARD (Integral evaluation for generally contracted gaussian basis sets)     Author: Roland Lindh, 1990

 Geometry written to block  1 of record 700


 Point group  C1  



 ATOMIC COORDINATES

 NR  ATOM    CHARGE       X              Y              Z

   1  C       6.00   -1.234180132    0.310482002    0.607546949
   2  C       6.00    1.250998694   -0.404779336   -0.721497434
   3  H       1.00   -2.739158018    1.485702679   -0.307269468
   4  H       1.00   -2.012180377   -1.478899665   -0.417629474
   5  H       1.00    2.028998940    1.384602331    0.303490016
   6  H       1.00    2.755976580   -1.580000013    0.192941037

 Bond lengths in Bohr (Angstrom)

 1-2  2.907588615  1-3  2.117307524  1-4  2.204122916  2-5  2.204035028  2-6  2.117144254
     ( 1.538629634)     ( 1.120430890)     ( 1.166371617)     ( 1.166325109)     ( 1.120344492)

 Bond angles

  1-2-5   83.65110742   1-2-6  123.14127225   2-1-3  123.13280478   2-1-4   83.64910237

  3-1-4   89.92875417   5-2-6   89.93562518

 NUCLEAR CHARGE:                   16
 NUMBER OF PRIMITIVE AOS:          72
 NUMBER OF SYMMETRY AOS:           70
 NUMBER OF CONTRACTIONS:           36   (   36A   )
 NUMBER OF CORE ORBITALS:           2   (    2A   )
 NUMBER OF VALENCE ORBITALS:       12   (   12A   )


 NUCLEAR REPULSION ENERGY   31.10793887

 Eigenvalues of metric

         1 0.113E-01 0.262E-01 0.585E-01 0.766E-01 0.897E-01 0.235E+00 0.242E+00 0.294E+00


 Contracted 2-electron integrals neglected if value below      1.0D-11
 AO integral compression algorithm  1   Integral accuracy      1.0D-11

     1.573 MB (compressed) written to integral file ( 58.1%)


 NUMBER OF SORTED TWO-ELECTRON INTEGRALS:     222111.     BUFFER LENGTH:  32768
 NUMBER OF SEGMENTS:   1  SEGMENT LENGTH:     222111      RECORD LENGTH: 524288

 Memory used in sort:       0.78 MW

 SORT1 READ      284735. AND WROTE      212528. INTEGRALS IN      1 RECORDS. CPU TIME:     0.00 SEC, REAL TIME:     0.01 SEC
 SORT2 READ      212528. AND WROTE      222111. INTEGRALS IN      6 RECORDS. CPU TIME:     0.02 SEC, REAL TIME:     0.03 SEC

 FILE SIZES:   FILE 1:    31.7 MBYTE,  FILE 4:     4.2 MBYTE,   TOTAL:     35.9 MBYTE

 OPERATOR DM      FOR CENTER  0  COORDINATES:    0.000000    0.000000    0.000000


 **********************************************************************************************************************************
 DATASETS  * FILE   NREC   LENGTH (MB)   RECORD NAMES
              1      19       31.12       500      610      700      900      950      970     1000      129      960     1100   
                                          VAR    BASINP    GEOM    SYMINP    ZMAT    AOBASIS   BASIS     P2S    ABASIS      S 
                                         1400     1410     1200     1210     1080     1600     1650     1300     1700   
                                           T        V       H0       H01     AOSYM     SMH    MOLCAS    ERIS     OPER   

 PROGRAMS   *        TOTAL       INT
 CPU TIMES  *         0.31      0.20
 REAL TIME  *         0.78 SEC
 DISK USED  *        36.24 MB
 **********************************************************************************************************************************


 PROGRAM * RHF-SCF (CLOSED SHELL)       Authors: W. Meyer, H.-J. Werner


 NUMBER OF ELECTRONS:       8+    8-    SPACE SYMMETRY=1    SPIN SYMMETRY: Singlet 
 CONVERGENCE THRESHOLDS:    1.00E-05 (Density)    1.00E-07 (Energy)
 MAX. NUMBER OF ITERATIONS:       60
 INTERPOLATION TYPE:            DIIS
 INTERPOLATION STEPS:              2 (START)      1 (STEP)
 LEVEL SHIFTS:                  0.00 (CLOSED)  0.00 (OPEN) 



 Orbital guess generated from atomic densities. Full valence occupancy:    8

 Molecular orbital dump at record        2100.2

 Initial occupancy:   8

 ITERATION    DDIFF          GRAD             ENERGY        2-EL.EN.            DIPOLE MOMENTS         DIIS   ORB.
    1      0.000D+00      0.000D+00       -77.76891704    113.231984    0.00003    0.00001   -0.00014    0    start
    2      0.000D+00      0.673D-02       -77.78908036    112.520520    0.00012   -0.00001   -0.00013    1    diag
    3      0.742D-02      0.243D-02       -77.79277419    112.868618    0.00013   -0.00001   -0.00013    2    diag
    4      0.384D-02      0.105D-02       -77.79391796    112.726587    0.00015   -0.00001   -0.00014    3    diag
    5      0.225D-02      0.561D-03       -77.79460623    112.746006    0.00015   -0.00001   -0.00013    4    diag
    6      0.218D-02      0.252D-03       -77.79482056    112.745428    0.00018   -0.00003   -0.00018    5    diag
    7      0.135D-02      0.101D-03       -77.79485664    112.747664    0.00011    0.00002   -0.00006    6    diag
    8      0.637D-03      0.351D-04       -77.79485988    112.747376    0.00025   -0.00009   -0.00031    7    diag
    9      0.204D-03      0.810D-05       -77.79485996    112.747346    0.00002    0.00009    0.00009    8    diag
   10      0.303D-04      0.412D-05       -77.79485997    112.747320    0.00017   -0.00002   -0.00016    9    orth
   11      0.547D-05      0.698D-06       -77.79485997    112.747297    0.00014   -0.00000   -0.00012    0    orth

 Final occupancy:   8

 !RHF STATE  1.1 Energy               -77.794859969926
 Nuclear energy                        31.10793887
 One-electron energy                 -165.27644755
 Two-electron energy                   56.37364871
 Virial quotient                       -1.00274044
 !RHF STATE  1.1 Dipole moment          0.00014170    -0.00000374    -0.00011825
 Dipole moment /Debye                   0.00036015    -0.00000950    -0.00030054

 ELECTRON ORBITALS
 =================

  Orbital  Occupation    Energy     Coefficients
    1.1     2.00000   -11.27812     1 1s    0.70965     2 1s    0.69936
    2.1     2.00000   -11.27759     1 1s    0.69942     2 1s   -0.70970
    3.1     2.00000    -1.01013     1 1s    0.28256     1 1s    0.26212     2 1s    0.28259     2 1s    0.26213
    4.1     2.00000    -0.80505     1 1s   -0.29071     2 1s    0.29067
    5.1     2.00000    -0.57086     1 2py   0.30981     2 2py   0.31030
    6.1     2.00000    -0.56011     1 2px   0.32121     2 2px  -0.32130
    7.1     2.00000    -0.38953     1 1s    0.25269     1 2pz   0.29326     1 2pz   0.27411     2 1s   -0.25257     2 2pz   0.29323
                                    2 2pz   0.27409
    8.1     2.00000    -0.37318     1 2py   0.26255     2 2py  -0.26249     4 1s   -0.29757     5 1s   -0.29753
    9.1     0.00000     0.04239     1 1s    0.35205     1 2pz   0.33695     1 2pz   0.44043     2 1s    0.35200     2 2pz  -0.33699
                                    2 2pz  -0.44050
   10.1     0.00000     0.23299     1 1s   -1.01867     1 2px   0.48628     1 2py   0.42937     1 2pz   0.42098     2 1s   -1.01850
                                    2 2px  -0.48632     2 2py  -0.42936     2 2pz  -0.42083     3 1s    0.49477     4 1s    1.09678
                                    5 1s    1.09674     6 1s    0.49467
   11.1     0.00000     0.24794     1 1s   -1.40506     1 2py  -0.25670     1 2pz   0.46995     2 1s    1.40516     2 2py  -0.25653
                                    2 2pz   0.46979     3 1s    1.23130     6 1s   -1.23113
   12.1     0.00000     0.30332     1 1s   -0.80591     1 2px   0.48993     1 2py  -0.78174     1 2pz   0.48495     2 1s   -0.80657
                                    2 2px  -0.48999     2 2py   0.78175     2 2pz  -0.48508     3 1s    1.51789     4 1s   -0.28184
                                    5 1s   -0.28162     6 1s    1.51838
   13.1     0.00000     0.32022     1 1s   -0.94660     1 2px   0.45851     1 2py   0.61401     1 2pz   0.33180     2 1s    0.94668
                                    2 2px   0.45850     2 2py   0.61423     2 2pz   0.33172     4 1s    1.55542     5 1s   -1.55565
   14.1     0.00000     0.41364     1 1s    1.57045     1 2px   1.58007     1 2py  -0.68325     1 2pz  -0.72110     2 1s   -1.57019
                                    2 2px   1.58019     2 2py  -0.68341     2 2pz  -0.72106     3 1s    0.81022     4 1s   -0.39267
                                    5 1s    0.39275     6 1s   -0.81065
   15.1     0.00000     0.71972     1 1s   -0.49467     1 2py  -0.42009     1 2px  -0.76635     1 2py   0.66639     2 1s    0.49444
                                    2 2py  -0.42023     2 2px  -0.76609     2 2py   0.66674     3 1s   -0.44323     4 1s    0.25441
                                    5 1s   -0.25454     6 1s    0.44326
   16.1     0.00000     0.73830     1 2px   0.55647     1 2px  -0.91772     2 2px  -0.55657     2 2px   0.91819     3 1s   -0.33931
                                    4 1s    0.38745     5 1s    0.38729     6 1s   -0.33940
   17.1     0.00000     0.80024     1 1s    0.33577     1 2py  -0.48388     1 2pz  -0.49057     1 2py   0.91577     1 2pz   0.51507
                                    2 1s    0.33568     2 2py   0.48374     2 2pz   0.49133     2 2py  -0.91574     2 2pz  -0.51580
   18.1     0.00000     0.80716     1 2pz   0.75093     1 2pz  -0.68640     2 2pz   0.75045     2 2pz  -0.68588
   19.1     0.00000     0.87193     1 1s    0.42502     1 2px   0.30327     1 2py  -0.34393     1 2pz   0.54405     1 2px  -0.57409
                                    1 2py   0.80276     1 2pz  -0.78262     2 1s    0.42505     2 2px  -0.30324     2 2py   0.34389
                                    2 2pz  -0.54406     2 2px   0.57422     2 2py  -0.80281     2 2pz   0.78254     3 1s   -0.34983
                                    6 1s   -0.34991
   20.1     0.00000     0.95486     1 1s   -0.35093     1 1s    0.63751     1 2px  -0.69270     1 2py  -0.33057     1 2px   1.41279
                                    1 2py   0.52829     2 1s    0.35087     2 1s   -0.63728     2 2px  -0.69267     2 2py  -0.33055
                                    2 2px   1.41288     2 2py   0.52826     4 1s    0.89627     5 1s   -0.89635
   21.1     0.00000     1.07759     1 1s   -0.29245     1 1s    0.64525     1 2py   0.44969     1 2py  -0.45950     2 1s   -0.29249
                                    2 1s    0.64524     2 2py  -0.44921     2 2py   0.45874     3 1s   -0.46393     3 1s    0.45507
                                    4 1s    0.58925     4 1s   -1.06336     5 1s    0.58878     5 1s   -1.06252     6 1s   -0.46357
                                    6 1s    0.45407
   22.1     0.00000     1.11433     1 1s   -0.41910     1 2px   0.33517     1 2py  -0.59179     1 2px  -0.61725     1 2py   0.93479
                                    2 1s    0.42085     2 2px   0.33481     2 2py  -0.59216     2 2px  -0.61674     2 2py   0.93523
                                    3 1s    0.46597     3 1s   -1.08478     4 1s   -0.42467     4 1s    0.92260     5 1s    0.42539
                                    5 1s   -0.92400     6 1s   -0.46588     6 1s    1.08441
   23.1     0.00000     1.16242     1 1s   -1.01023     1 1s    1.68533     1 2px   0.34898     1 2px  -0.53137     1 2pz  -0.40669
                                    2 1s   -0.99333     2 1s    1.65311     2 2px  -0.34292     2 2px   0.52254     2 2pz   0.39776
                                    3 1s    0.56872     3 1s   -1.11086     4 1s    0.25271     4 1s   -0.59263     5 1s   -0.57240
                                    6 1s    0.56017     6 1s   -1.09436
   24.1     0.00000     1.16507     1 1s   -0.78457     1 1s    1.48268     1 2px   0.29974     1 2pz   0.28019     1 2px  -0.44538
                                    1 2pz  -0.40395     2 1s    0.80567     2 1s   -1.51791     2 2px   0.30707     2 2pz   0.28486
                                    2 2px  -0.45655     2 2pz  -0.41238     3 1s    0.41984     3 1s   -0.81567     4 1s    0.54574
                                    4 1s   -0.91975     5 1s   -0.55101     5 1s    0.93210     6 1s   -0.43171     6 1s    0.83890
   25.1     0.00000     1.31687     1 1s    1.36604     1 1s   -4.22728     1 2px  -0.96919     1 2py   0.75832     1 2pz   1.11183
                                    2 1s   -1.36897     2 1s    4.23302     2 2px  -0.96693     2 2py   0.75716     2 2pz   1.11492
                                    3 1s    0.27921     4 1s    0.47879     4 1s    0.45327     5 1s   -0.48023     5 1s   -0.45407
                                    6 1s   -0.28175
   26.1     0.00000     1.36215     1 1s   -1.07088     1 1s    2.07328     1 2px  -0.81448     1 2py   0.41485     1 2pz  -1.16267
                                    2 1s   -1.06715     2 1s    2.06161     2 2px   0.81737     2 2py  -0.41701     2 2pz   1.15937
                                    3 1s   -0.56366     3 1s   -0.88114     4 1s   -0.51940     4 1s   -0.29844     5 1s   -0.51803
                                    5 1s   -0.29726     6 1s   -0.56303     6 1s   -0.88055
   27.1     0.00000     1.68683     1 1s   -0.40742     1 3d0  -0.26708     1 3d2-  0.37309     1 3d2+  0.37548     2 1s    0.40737
                                    2 3d0   0.26708     2 3d2- -0.37310     2 3d2+ -0.37549
   28.1     0.00000     1.86983     1 3d0   0.38984     1 3d1+  0.31024     1 3d2+  0.39596     1 3d1-  0.28033     2 3d0   0.38970
                                    2 3d1+  0.31040     2 3d2+  0.39599     2 3d1-  0.28045
   29.1     0.00000     2.03272     1 1s   -0.86266     1 2pz   0.25993     1 3d0   0.56523     1 3d2+  0.32689     2 1s    0.86283
                                    2 2pz   0.26003     2 3d0  -0.56518     2 3d2+ -0.32695
   30.1     0.00000     2.09497     1 1s    0.49447     1 1s   -1.86094     1 2py   0.31878     1 2pz   0.55567     1 3d2-  0.26627
                                    1 3d1+ -0.42599     1 3d1- -0.33441     2 1s   -0.49387     2 1s    1.86052     2 2py   0.31859
                                    2 2pz   0.55543     2 3d2- -0.26606     2 3d1+  0.42615     2 3d1-  0.33410     3 1s    0.47450
                                    4 1s    0.35421     4 1s    0.27320     5 1s   -0.35420     5 1s   -0.27301     6 1s   -0.47454
   31.1     0.00000     2.13441     1 1s    0.44877     1 1s   -0.25205     1 2px   0.27101     1 2px  -0.31660     1 3d1+  0.38498
                                    1 3d2+ -0.35533     2 1s    0.44931     2 1s   -0.25415     2 2px  -0.27098     2 2px   0.31695
                                    2 3d1+  0.38465     2 3d2+ -0.35548
   32.1     0.00000     2.26508     1 3d0   0.46123     1 3d2- -0.45001     1 3d1- -0.28562     2 3d0   0.46127     2 3d2- -0.44992
                                    2 3d1- -0.28553     4 1s    0.36142     5 1s    0.36146
   33.1     0.00000     2.48748     1 1s    0.58615     1 2px   0.30789     1 3d2-  0.43342     1 3d1-  0.58032     2 1s   -0.58617
                                    2 2px   0.30784     2 3d2- -0.43337     2 3d1- -0.58023     3 1s    0.40508     4 1s   -0.42106
                                    5 1s    0.42112     6 1s   -0.40495
   34.1     0.00000     2.57259     1 1s    0.30860     1 2py  -0.27911     1 3d2- -0.42744     1 3d2+ -0.44541     1 3d1-  0.51083
                                    2 1s    0.30869     2 2py   0.27913     2 3d2- -0.42746     2 3d2+ -0.44541     2 3d1-  0.51080
                                    4 1s   -0.36100     5 1s   -0.36102
   35.1     0.00000     2.69159     1 3d0  -0.38782     1 3d2- -0.43002     1 3d1+  0.46656     1 3d1- -0.30628     2 3d0  -0.38781
                                    2 3d2- -0.43020     2 3d1+  0.46682     2 3d1- -0.30651     3 1s   -0.47449     6 1s   -0.47483
   36.1     0.00000     2.90103     1 1s   -1.63454     1 2px  -0.30249     1 2px  -0.86799     1 2py   0.28045     1 2pz   0.44695
                                    1 3d2-  0.38307     1 3d1+  0.66304     1 3d2+ -0.58688     2 1s    1.63451     2 2px  -0.30249
                                    2 2px  -0.86799     2 2py   0.28043     2 2pz   0.44694     2 3d2- -0.38316     2 3d1+ -0.66296
                                    2 3d2+  0.58693


 HOMO      8.1    -0.373180 =     -10.1547eV
 LUMO      9.1     0.042386 =       1.1534eV
 LUMO-HOMO         0.415566 =      11.3081eV


 **********************************************************************************************************************************
 DATASETS  * FILE   NREC   LENGTH (MB)   RECORD NAMES
              1      19       31.12       500      610      700      900      950      970     1000      129      960     1100   
                                          VAR    BASINP    GEOM    SYMINP    ZMAT    AOBASIS   BASIS     P2S    ABASIS      S 
                                         1400     1410     1200     1210     1080     1600     1650     1300     1700   
                                           T        V       H0       H01     AOSYM     SMH    MOLCAS    ERIS     OPER   

              2       4        2.86       700     1000      520     2100   
                                         GEOM     BASIS   MCVARS     RHF  

 PROGRAMS   *        TOTAL    HF-SCF       INT
 CPU TIMES  *         0.43      0.12      0.20
 REAL TIME  *         1.07 SEC
 DISK USED  *        36.24 MB
 **********************************************************************************************************************************


 PROGRAM * MULTI (Direct Multiconfiguration SCF)       Authors: P.J. Knowles, H.-J. Werner (1984)


 Number of closed-shell orbitals:   7 (   7 )
 Number of active  orbitals:        2 (   2 )
 Number of external orbitals:      27 (  27 )

 State symmetry 1

 Number of electrons:     2    Spin symmetry=Singlet   Space symmetry=1
 Number of states:        3
 Number of CSFs:          3   (4 determinants, 4 intermediate states)

 Molecular orbitals read from record     2100.2  Type=RHF/CANONICAL (state 1.1)

 Wavefunction dump at record             2140.2

 Convergence thresholds  0.10E-01 (gradient)  0.10E-05 (energy)  0.10E-02 (step length)

 Weight factors for state symmetry  1:    0.33333   0.33333   0.33333

 Number of orbital rotations:      257   (    14 Core/Active    189 Core/Virtual   0 Active/Active     54 Active/Virtual)
 Total number of variables:        269

 Micro-Iterations solved by the two-step solver

 ITER. MIC  NCI  NEG     ENERGY(VAR)     ENERGY(PROJ)   ENERGY CHANGE     GRAD(0)  GRAD(ORB)   GRAD(CI)     STEP       TIME

   1    6    5    0     -77.66897755     -77.68560214   -0.01662459    0.15435357 0.00052943 0.00000000  0.12D+00      0.12
   2    6    5    0     -77.68549770     -77.68550784   -0.00001015    0.00512248 0.00000168 0.00000000  0.24D-02      0.22
   3    4    4    0     -77.68550785     -77.68550785   -0.00000000    0.00000553 0.00000000 0.00000000  0.44D-05      0.29

 ** WVFN ****  CONVERGENCE REACHED, FINAL GRADIENT:  0.19D-10



 Results for state 1.1
 =====================

 !MCSCF STATE  1.1 Energy             -77.788148549681
 Nuclear energy                        31.10793887
 Kinetic energy                        77.53257117
 One electron energy                 -165.18587288
 Two electron energy                   56.28978546
 Virial ratio                           2.00329639

 !MCSCF STATE  1.1 Dipole moment        0.00018733     0.00000083    -0.00012498
 Dipole moment /Debye                   0.00047612     0.00000211    -0.00031766

 Results for state 2.1
 =====================

 !MCSCF STATE  2.1 Energy             -77.712987498128
 Nuclear energy                        31.10793887
 Kinetic energy                        77.59443026
 One electron energy                 -165.13253280
 Two electron energy                   56.31160643
 Virial ratio                           2.00152791

 !MCSCF STATE  2.1 Dipole moment        0.00007717    -0.00004630    -0.00011991
 Dipole moment /Debye                   0.00019614    -0.00011769    -0.00030477

 Results for state 3.1
 =====================

 !MCSCF STATE  3.1 Energy             -77.555387502110
 Nuclear energy                        31.10793887
 Kinetic energy                        77.67072289
 One electron energy                 -165.05149168
 Two electron energy                   56.38816531
 Virial ratio                           1.99851507

 !MCSCF STATE  3.1 Dipole moment       -0.00005971    -0.00008811    -0.00008951
 Dipole moment /Debye                  -0.00015175    -0.00022393    -0.00022749

 State-averaged charge density matrix saved on record  2140.2 (density set 1)

 !MCSCF expec         <1.1|DMX|1.1>     0.000187332584 au =     0.000476120749 Debye
 !MCSCF trans         <2.1|DMX|1.1>    -0.000099016294 au =    -0.000251657832 Debye
 !MCSCF expec         <2.1|DMX|2.1>     0.000077170820 au =     0.000196135812 Debye
 !MCSCF trans         <3.1|DMX|1.1>     0.000009764005 au =     0.000024816001 Debye
 !MCSCF trans         <3.1|DMX|2.1>    -0.000105365205 au =    -0.000267794098 Debye
 !MCSCF expec         <3.1|DMX|3.1>    -0.000059706762 au =    -0.000151749513 Debye

 !MCSCF expec         <1.1|DMY|1.1>     0.000000829721 au =     0.000002108803 Debye
 !MCSCF trans         <2.1|DMY|1.1>     0.000018158618 au =     0.000046151580 Debye
 !MCSCF expec         <2.1|DMY|2.1>    -0.000046304402 au =    -0.000117686342 Debye
 !MCSCF trans         <3.1|DMY|1.1>     0.000006023152 au =     0.000015308323 Debye
 !MCSCF trans         <3.1|DMY|2.1>     0.000022448604 au =     0.000057054923 Debye
 !MCSCF expec         <3.1|DMY|3.1>    -0.000088107821 au =    -0.000223933075 Debye

 !MCSCF expec         <1.1|DMZ|1.1>    -0.000124983968 au =    -0.000317656752 Debye
 !MCSCF trans         <2.1|DMZ|1.1>     0.000091605954 au =     0.000232823860 Debye
 !MCSCF expec         <2.1|DMZ|2.1>    -0.000119913984 au =    -0.000304770983 Debye
 !MCSCF trans         <3.1|DMZ|1.1>     0.000002204925 au =     0.000005603994 Debye
 !MCSCF trans         <3.1|DMZ|2.1>     0.000101975206 au =     0.000259178145 Debye
 !MCSCF expec         <3.1|DMZ|3.1>    -0.000089507286 au =    -0.000227489927 Debye


 NATURAL ORBITALS (state averaged)
 =================================

  Orbital  Occupation    Energy     Coefficients
    1.1     2.00000   -11.26884     1 1s    0.71099     2 1s    0.69793
    2.1     2.00000   -11.26829     1 1s    0.69797     2 1s   -0.71103
    3.1     2.00000    -1.02327     1 1s    0.27379     1 1s    0.25798     2 1s    0.27381     2 1s    0.25798
    4.1     2.00000    -0.80695     1 1s   -0.30873     2 1s    0.30871
    5.1     2.00000    -0.56708     1 2py   0.29596     2 2py   0.29655
    6.1     2.00000    -0.55764     1 2px   0.29255     2 2px  -0.29259
    7.1     2.00000    -0.41325     1 2pz   0.31002     1 2pz   0.27526     2 2pz   0.30999     2 2pz   0.27526
    8.1     1.00000    -0.22425     1 2px   0.25429     2 2px  -0.25430     4 1s   -0.30964     5 1s   -0.30961
    9.1     1.00000    -0.10873     1 1s    0.25669     1 2pz   0.40333     1 2pz   0.40186     2 1s    0.25666     2 2pz  -0.40337
                                    2 2pz  -0.40191
   10.1    -0.00000     0.21727     1 1s   -0.99663     1 2px   0.47885     1 2py   0.46353     1 2pz   0.37779     2 1s   -0.99636
                                    2 2px  -0.47888     2 2py  -0.46349     2 2pz  -0.37761     3 1s    0.43804     4 1s    1.10078
                                    5 1s    1.10066     6 1s    0.43791
   11.1    -0.00000     0.24557     1 1s   -1.48562     1 2pz   0.48338     2 1s    1.48572     2 2pz   0.48323     3 1s    1.23508
                                    6 1s   -1.23486
   12.1    -0.00000     0.30564     1 1s   -0.87043     1 2px   0.50160     1 2py  -0.76922     1 2pz   0.46277     2 1s   -0.87315
                                    2 2px  -0.50235     2 2py   0.76772     2 2pz  -0.46365     3 1s    1.53907     6 1s    1.53966
   13.1    -0.00000     0.30764     1 1s   -0.94409     1 2px   0.33832     1 2py   0.70419     1 2pz   0.35194     2 1s    0.94232
                                    2 2px   0.33726     2 2py   0.70606     2 2pz   0.35092     4 1s    1.59459     5 1s   -1.59534
   14.1    -0.00000     0.41890     1 1s    1.44555     1 2px   0.26288     1 2px   1.59920     1 2py  -0.59726     1 2pz  -0.64704
                                    2 1s   -1.44528     2 2px   0.26289     2 2px   1.59933     2 2py  -0.59741     2 2pz  -0.64700
                                    3 1s    0.83826     6 1s   -0.83870
   15.1    -0.00000     0.71779     1 1s   -0.57735     1 2py  -0.40713     1 2px  -0.80492     1 2py   0.67975     2 1s    0.57714
                                    2 2py  -0.40725     2 2px  -0.80460     2 2py   0.68005     3 1s   -0.44348     4 1s    0.27288
                                    5 1s   -0.27302     6 1s    0.44349
   16.1    -0.00000     0.73330     1 2px   0.53362     1 2px  -0.89086     2 2px  -0.53372     2 2px   0.89138     3 1s   -0.34506
                                    4 1s   -0.27923     4 1s    0.45851     5 1s   -0.27908     5 1s    0.45834     6 1s   -0.34514
   17.1    -0.00000     0.80337     1 1s    0.27196     1 2py  -0.48171     1 2pz  -0.45927     1 2py   0.91597     1 2pz   0.55653
                                    2 1s    0.27029     2 2py   0.48124     2 2pz   0.46369     2 2py  -0.91586     2 2pz  -0.56102
   18.1    -0.00000     0.80449     1 1s    0.27896     1 2pz   0.75022     1 2pz  -0.75749     2 1s   -0.28068     2 2pz   0.74752
                                    2 2pz  -0.75422
   19.1    -0.00000     0.87475     1 1s    0.40455     1 2px   0.32683     1 2py  -0.31735     1 2pz   0.53140     1 2px  -0.60637
                                    1 2py   0.77527     1 2pz  -0.82099     2 1s    0.40458     2 2px  -0.32681     2 2py   0.31731
                                    2 2pz  -0.53139     2 2px   0.60650     2 2py  -0.77532     2 2pz   0.82091     3 1s   -0.37560
                                    6 1s   -0.37568
   20.1    -0.00000     0.96047     1 1s   -0.36804     1 1s    0.63945     1 2px  -0.68574     1 2py  -0.32561     1 2px   1.37220
                                    1 2py   0.51677     2 1s    0.36797     2 1s   -0.63920     2 2px  -0.68572     2 2py  -0.32559
                                    2 2px   1.37230     2 2py   0.51675     4 1s    0.84489     5 1s   -0.84497
   21.1    -0.00000     1.05456     1 1s   -0.38052     1 1s    0.77144     1 2py   0.46860     1 2px  -0.28228     1 2py  -0.49090
                                    2 1s   -0.38031     2 1s    0.77100     2 2py  -0.46811     2 2px   0.28256     2 2py   0.49014
                                    3 1s   -0.36507     3 1s    0.34650     4 1s    0.62152     4 1s   -1.09739     5 1s    0.62088
                                    5 1s   -1.09631     6 1s   -0.36490     6 1s    0.34585
   22.1    -0.00000     1.09586     1 1s    0.33098     1 1s   -0.80576     1 2py  -0.59303     1 2px  -0.32373     1 2py   0.89228
                                    1 2pz   0.26982     2 1s   -0.33149     2 1s    0.80666     2 2py  -0.59348     2 2px  -0.32346
                                    2 2py   0.89281     2 2pz   0.26998     3 1s   -0.65548     4 1s   -0.63113     4 1s    1.20977
                                    5 1s    0.63176     5 1s   -1.21088     6 1s    0.65564
   23.1    -0.00000     1.15105     1 1s   -0.63856     1 1s    1.02182     1 2px   0.44125     1 2px  -0.74655     1 2py   0.27116
                                    2 1s    0.63208     2 1s   -1.01134     2 2px   0.43904     2 2px  -0.74334     2 2py   0.27000
                                    3 1s    0.58924     3 1s   -1.19490     4 1s    0.33830     4 1s   -0.47285     5 1s   -0.33719
                                    5 1s    0.46992     6 1s   -0.58500     6 1s    1.18726
   24.1    -0.00000     1.16176     1 1s   -0.95269     1 1s    1.55432     1 2px   0.33279     1 2px  -0.48447     1 2pz  -0.33385
                                    2 1s   -0.95673     2 1s    1.56044     2 2px  -0.33588     2 2px   0.48981     2 2pz   0.33520
                                    3 1s    0.62226     3 1s   -1.13087     4 1s   -0.43761     5 1s   -0.44050     6 1s    0.62635
                                    6 1s   -1.13911
   25.1    -0.00000     1.30857     1 1s    1.41511     1 1s   -4.32150     1 2px  -0.97732     1 2py   0.77868     1 2pz   1.12632
                                    2 1s   -1.41832     2 1s    4.32779     2 2px  -0.97486     2 2py   0.77746     2 2pz   1.12961
                                    3 1s    0.29080     4 1s    0.44236     4 1s    0.50775     5 1s   -0.44377     5 1s   -0.50878
                                    6 1s   -0.29354
   26.1    -0.00000     1.34979     1 1s   -1.09675     1 1s    2.12952     1 2px  -0.83702     1 2py   0.42077     1 2pz  -1.17620
                                    2 1s   -1.09270     2 1s    2.11701     2 2px   0.84009     2 2py  -0.42309     2 2pz   1.17271
                                    3 1s   -0.57246     3 1s   -0.89000     4 1s   -0.49187     4 1s   -0.34655     5 1s   -0.49051
                                    5 1s   -0.34516     6 1s   -0.57181     6 1s   -0.88937
   27.1    -0.00000     1.68159     1 1s   -0.41611     1 3d0  -0.25891     1 3d2-  0.37528     1 3d2+  0.37855     2 1s    0.41607
                                    2 3d0   0.25892     2 3d2- -0.37528     2 3d2+ -0.37856
   28.1    -0.00000     1.86650     1 3d0   0.38513     1 3d1+  0.30920     1 3d2+  0.39975     1 3d1-  0.28231     2 3d0   0.38498
                                    2 3d1+  0.30935     2 3d2+  0.39978     2 3d1-  0.28242
   29.1    -0.00000     2.03347     1 1s   -0.78100     1 3d0   0.56017     1 3d2+  0.33342     2 1s    0.78118     2 3d0  -0.56012
                                    2 3d2+ -0.33348
   30.1    -0.00000     2.09426     1 1s    0.49793     1 1s   -1.86458     1 2py   0.32419     1 2pz   0.55518     1 3d2-  0.26219
                                    1 3d1+ -0.42305     1 3d1- -0.33236     2 1s   -0.49738     2 1s    1.86421     2 2py   0.32400
                                    2 2pz   0.55496     2 3d2- -0.26197     2 3d1+  0.42320     2 3d1-  0.33206     3 1s    0.47803
                                    4 1s    0.35030     4 1s    0.28305     5 1s   -0.35031     5 1s   -0.28287     6 1s   -0.47807
   31.1    -0.00000     2.13671     1 1s    0.43852     1 2px   0.27830     1 2px  -0.31539     1 3d1+  0.39490     1 3d2+ -0.35433
                                    2 1s    0.43903     2 2px  -0.27826     2 2px   0.31572     2 3d1+  0.39459     2 3d2+ -0.35445
   32.1    -0.00000     2.25708     1 3d0   0.46517     1 3d2- -0.44803     1 3d1- -0.30198     2 3d0   0.46522     2 3d2- -0.44793
                                    2 3d1- -0.30189     4 1s    0.35174     5 1s    0.35179
   33.1    -0.00000     2.48064     1 1s    0.54286     1 2px   0.29178     1 3d2-  0.44304     1 3d1-  0.57665     2 1s   -0.54288
                                    2 2px   0.29174     2 3d2- -0.44302     2 3d1- -0.57655     3 1s    0.41247     4 1s   -0.40823
                                    5 1s    0.40830     6 1s   -0.41236
   34.1    -0.00000     2.56641     1 1s    0.30553     1 2py  -0.28863     1 3d2- -0.41395     1 3d2+ -0.45153     1 3d1-  0.52407
                                    2 1s    0.30567     2 2py   0.28867     2 3d2- -0.41395     2 3d2+ -0.45153     2 3d1-  0.52407
                                    4 1s   -0.35807     5 1s   -0.35810
   35.1    -0.00000     2.69831     1 3d0  -0.39698     1 3d2- -0.43559     1 3d1+  0.47690     1 3d1- -0.28489     2 3d0  -0.39698
                                    2 3d2- -0.43576     2 3d1+  0.47715     2 3d1- -0.28511     3 1s   -0.47598     6 1s   -0.47632
   36.1    -0.00000     2.90364     1 1s   -1.65989     1 2px  -0.29667     1 2px  -0.88054     1 2py   0.28945     1 2pz   0.45526
                                    1 3d2-  0.37716     1 3d1+  0.66682     1 3d2+ -0.58407     2 1s    1.65986     2 2px  -0.29667
                                    2 2px  -0.88053     2 2py   0.28943     2 2pz   0.45525     2 3d2- -0.37725     2 3d1+ -0.66674
                                    2 3d2+  0.58411


 Natural orbital dump (state averaged) at molpro section  2140.2    (Orbital set 2)



 **********************************************************************************************************************************
 DATASETS  * FILE   NREC   LENGTH (MB)   RECORD NAMES
              1      20       31.85       500      610      700      900      950      970     1000      129      960     1100   
                                          VAR    BASINP    GEOM    SYMINP    ZMAT    AOBASIS   BASIS     P2S    ABASIS      S 
                                         1400     1410     1200     1210     1080     1600     1650     1300     1700     1380   
                                           T        V       H0       H01     AOSYM     SMH    MOLCAS    ERIS     OPER     JKOP   

              2       5        5.42       700     1000      520     2100     2140   
                                         GEOM     BASIS   MCVARS     RHF     MCSCF   

 PROGRAMS   *        TOTAL     MULTI    HF-SCF       INT
 CPU TIMES  *         0.78      0.34      0.12      0.20
 REAL TIME  *         1.48 SEC
 DISK USED  *        39.03 MB
 **********************************************************************************************************************************
 Molecular orbitals read from record     2140.2  Type=MCSCF/NATURAL (state averaged)
 Occupation numbers read from record     2140.2  Type=MCSCF/NATURAL (state averaged)
 Orbital energies read from record       2140.2  Type=MCSCF/NATURAL (state averaged)
 Redundancy group numbers read from rec  2140.2  Type=MCSCF/NATURAL (state averaged)

 MULTI/6-31G* energy=    -77.555387502110

           MULTI          HF-SCF
    -77.55538750    -77.79485997
 **********************************************************************************************************************************
 Molpro calculation terminated
