
 Primary working directories    : /scratch.local/johan406.molpro_temp/molpro.tWEC0luFWJ
 Secondary working directories  : /scratch.local/johan406.molpro_temp/molpro.tWEC0luFWJ
 Wavefunction directory         : /home/goodpast/johan406/wfu/
 Main file repository           : /scratch.local/johan406.molpro_temp/molpro.tWEC0luFWJ/

 id        : roweumn

 Nodes     nprocs
 acn09        1

 Using customized tuning parameters: mindgm=1; mindgv=20; mindgc=4; mindgr=1; noblas=0; minvec=7
 default implementation of scratch files=df  


 Variables initialized (934), CPU time= 0.01 sec
                                                                                 !leave this line blank
 
 gprint, orbitals=30
 memory, 125., m
 symmetry, nosym
 nelect=16
 basis=6-31g*
 
 geometry={
 C -0.6265 0.1377 0.2987
 C 0.6354 -0.1876 -0.359
 H -1.2671 0.8964 -0.155
 H -0.9622 -0.8662 -0.1374
 H 0.9711 0.8163 0.077
 H 1.276 -0.9463 0.0945
 }
 
 hf
 {multi,
 closed 7
 occ 9
 wf,spin=0;STATE,3
 }
 
 Commands  initialized (763), CPU time= 0.01 sec, 617 directives.
 Default parameters read. Elapsed time= 0.08 sec

 Checking input...
 Passed
1


                                         ***  PROGRAM SYSTEM MOLPRO  ***
                                       Copyright, TTI GmbH Stuttgart, 2015
                                    Version 2019.2 linked Oct 25 2019 22:50:27


 **********************************************************************************************************************************
 LABEL *                                                                                 
  64 bit serial version                                                                  DATE: 07-Feb-23          TIME: 15:34:32  
 **********************************************************************************************************************************

 SHA1:             8dbd9ae1082e4ce945b0f27595c9eb2d4aa09004
 **********************************************************************************************************************************


 Variable memory set to  125000000 words,  buffer space 

 SETTING NELECT         =        16.00000000                                  
 SETTING BASIS          =    6-31G*
 ZSYMEL=NOSYM


Geometry recognized as XYZ



 Recomputing integrals since basis changed


 Using spherical harmonics

 Library entry C      S 6-31G                selected for orbital group  1
 Library entry C      P 6-31G                selected for orbital group  1
 Library entry C      D 6-31G*               selected for orbital group  1
 Library entry H      S 6-31G                selected for orbital group  2


 PROGRAM * SEWARD (Integral evaluation for generally contracted gaussian basis sets)     Author: Roland Lindh, 1990

 Geometry written to block  1 of record 700


 Point group  C1  



 ATOMIC COORDINATES

 NR  ATOM    CHARGE       X              Y              Z

   1  C       6.00   -1.183913417    0.260215287    0.564461193
   2  C       6.00    1.200731980   -0.354512621   -0.678411679
   3  H       1.00   -2.394471972    1.693950498   -0.292907549
   4  H       1.00   -1.818294477   -1.636880769   -0.259648370
   5  H       1.00    1.835113040    1.542583435    0.145508912
   6  H       1.00    2.411290535   -1.788247832    0.178579119

 Bond lengths in Bohr (Angstrom)

 1-2  2.758470055  1-3  2.063038980  1-4  2.163462352  2-5  2.163390375  2-6  2.062881940
     ( 1.459719490)     ( 1.091713213)     ( 1.144854973)     ( 1.144816885)     ( 1.091630111)

 Bond angles

  1-2-5   83.48168133   1-2-6  118.35981048   2-1-3  118.35208214   2-1-4   83.47962954

  3-1-4  106.20252939   5-2-6  106.21068024

 NUCLEAR CHARGE:                   16
 NUMBER OF PRIMITIVE AOS:          72
 NUMBER OF SYMMETRY AOS:           70
 NUMBER OF CONTRACTIONS:           36   (   36A   )
 NUMBER OF CORE ORBITALS:           2   (    2A   )
 NUMBER OF VALENCE ORBITALS:       12   (   12A   )


 NUCLEAR REPULSION ENERGY   32.36627592

 Eigenvalues of metric

         1 0.926E-02 0.273E-01 0.596E-01 0.644E-01 0.801E-01 0.218E+00 0.237E+00 0.272E+00


 Contracted 2-electron integrals neglected if value below      1.0D-11
 AO integral compression algorithm  1   Integral accuracy      1.0D-11

     1.573 MB (compressed) written to integral file ( 59.2%)


 NUMBER OF SORTED TWO-ELECTRON INTEGRALS:     222111.     BUFFER LENGTH:  32768
 NUMBER OF SEGMENTS:   1  SEGMENT LENGTH:     222111      RECORD LENGTH: 524288

 Memory used in sort:       0.78 MW

 SORT1 READ      284735. AND WROTE      212531. INTEGRALS IN      1 RECORDS. CPU TIME:     0.00 SEC, REAL TIME:     0.01 SEC
 SORT2 READ      212531. AND WROTE      222111. INTEGRALS IN      6 RECORDS. CPU TIME:     0.02 SEC, REAL TIME:     0.03 SEC

 FILE SIZES:   FILE 1:    31.7 MBYTE,  FILE 4:     4.2 MBYTE,   TOTAL:     35.9 MBYTE

 OPERATOR DM      FOR CENTER  0  COORDINATES:    0.000000    0.000000    0.000000


 **********************************************************************************************************************************
 DATASETS  * FILE   NREC   LENGTH (MB)   RECORD NAMES
              1      19       31.13       500      610      700      900      950      970     1000      129      960     1100   
                                          VAR    BASINP    GEOM    SYMINP    ZMAT    AOBASIS   BASIS     P2S    ABASIS      S 
                                         1400     1410     1200     1210     1080     1600     1650     1300     1700   
                                           T        V       H0       H01     AOSYM     SMH    MOLCAS    ERIS     OPER   

 PROGRAMS   *        TOTAL       INT
 CPU TIMES  *         0.34      0.22
 REAL TIME  *         0.54 SEC
 DISK USED  *        36.24 MB
 **********************************************************************************************************************************


 PROGRAM * RHF-SCF (CLOSED SHELL)       Authors: W. Meyer, H.-J. Werner


 NUMBER OF ELECTRONS:       8+    8-    SPACE SYMMETRY=1    SPIN SYMMETRY: Singlet 
 CONVERGENCE THRESHOLDS:    1.00E-05 (Density)    1.00E-07 (Energy)
 MAX. NUMBER OF ITERATIONS:       60
 INTERPOLATION TYPE:            DIIS
 INTERPOLATION STEPS:              2 (START)      1 (STEP)
 LEVEL SHIFTS:                  0.00 (CLOSED)  0.00 (OPEN) 



 Orbital guess generated from atomic densities. Full valence occupancy:    8

 Molecular orbital dump at record        2100.2

 Initial occupancy:   8

 ITERATION    DDIFF          GRAD             ENERGY        2-EL.EN.            DIPOLE MOMENTS         DIIS   ORB.
    1      0.000D+00      0.000D+00       -77.82781376    115.940158    0.00005    0.00001   -0.00014    0    start
    2      0.000D+00      0.704D-02       -77.84581068    114.918058    0.00012   -0.00001   -0.00013    1    diag
    3      0.753D-02      0.228D-02       -77.84789085    115.335616    0.00013   -0.00001   -0.00013    2    diag
    4      0.295D-02      0.827D-03       -77.84833604    115.206926    0.00015   -0.00002   -0.00014    3    diag
    5      0.160D-02      0.294D-03       -77.84847521    115.214518    0.00015   -0.00001   -0.00014    4    diag
    6      0.987D-03      0.131D-03       -77.84852158    115.216173    0.00016   -0.00002   -0.00016    5    diag
    7      0.618D-03      0.440D-04       -77.84852675    115.217556    0.00014   -0.00001   -0.00012    6    diag
    8      0.220D-03      0.131D-04       -77.84852714    115.217961    0.00018   -0.00003   -0.00018    7    diag
    9      0.627D-04      0.377D-05       -77.84852716    115.217932    0.00012    0.00001   -0.00009    8    diag
   10      0.112D-04      0.132D-05       -77.84852716    115.217931    0.00017   -0.00003   -0.00017    9    orth
   11      0.234D-05      0.634D-06       -77.84852716    115.217934    0.00014   -0.00000   -0.00012    0    orth

 Final occupancy:   8

 !RHF STATE  1.1 Energy               -77.848527159727
 Nuclear energy                        32.36627592
 One-electron energy                 -167.82377002
 Two-electron energy                   57.60896694
 Virial quotient                       -1.00122297
 !RHF STATE  1.1 Dipole moment          0.00013738    -0.00000482    -0.00011765
 Dipole moment /Debye                   0.00034916    -0.00001224    -0.00029902

 ELECTRON ORBITALS
 =================

  Orbital  Occupation    Energy     Coefficients
    1.1     2.00000   -11.25988     1 1s    0.70789     2 1s    0.70098
    2.1     2.00000   -11.25902     1 1s    0.70109     2 1s   -0.70799
    3.1     2.00000    -1.03714     1 1s    0.28299     2 1s    0.28301
    4.1     2.00000    -0.78431     1 1s   -0.29275     2 1s    0.29272
    5.1     2.00000    -0.62187     1 2py   0.30822     2 2py   0.30835
    6.1     2.00000    -0.56162     1 2px   0.29901     2 2px  -0.29902
    7.1     2.00000    -0.39186     1 2pz   0.30906     1 2pz   0.28606     2 2pz   0.30914     2 2pz   0.28611
    8.1     2.00000    -0.38722     1 2px   0.27393     2 2px  -0.27403     4 1s   -0.28602     5 1s   -0.28601
    9.1     0.00000     0.06331     1 1s    0.39812     1 2pz   0.33057     1 2pz   0.46870     2 1s    0.39808     2 2pz  -0.33060
                                    2 2pz  -0.46876
   10.1     0.00000     0.23153     1 1s   -1.09774     1 2px   0.48316     1 2py   0.36684     1 2pz   0.43326     2 1s   -1.09763
                                    2 2px  -0.48322     2 2py  -0.36682     2 2pz  -0.43312     3 1s    0.57410     4 1s    1.08740
                                    5 1s    1.08738     6 1s    0.57406
   11.1     0.00000     0.28223     1 1s   -1.56852     1 2py  -0.35904     1 2pz   0.46170     2 1s    1.56841     2 2py  -0.35865
                                    2 2pz   0.46141     3 1s    1.44688     6 1s   -1.44636
   12.1     0.00000     0.31317     1 1s   -0.75118     1 2px   0.39813     1 2py  -1.01536     1 2pz   0.45357     2 1s   -0.75215
                                    2 2px  -0.39819     2 2py   1.01554     2 2pz  -0.45376     3 1s    1.56045     4 1s   -0.42690
                                    5 1s   -0.42679     6 1s    1.56136
   13.1     0.00000     0.33535     1 1s   -1.05436     1 2px   0.28470     1 2py   0.75954     1 2pz   0.31933     2 1s    1.05439
                                    2 2px   0.28469     2 2py   0.75974     2 2pz   0.31925     4 1s    1.69731     5 1s   -1.69750
   14.1     0.00000     0.42353     1 1s    2.03079     1 2px   1.78128     1 2py  -0.63324     1 2pz  -0.78941     2 1s   -2.03057
                                    2 2px   1.78137     2 2py  -0.63339     2 2pz  -0.78939     3 1s    0.62740     6 1s   -0.62775
   15.1     0.00000     0.70265     1 2px  -0.55001     1 2px   0.92970     2 2px   0.55001     2 2px  -0.92975     4 1s   -0.42737
                                    5 1s   -0.42732
   16.1     0.00000     0.75838     1 1s   -0.31225     1 2py  -0.37621     1 2px  -0.61942     1 2py   0.79067     2 1s    0.31191
                                    2 2py  -0.37621     2 2px  -0.61963     2 2py   0.79096     3 1s   -0.48590     6 1s    0.48593
   17.1     0.00000     0.78922     1 2py  -0.58749     1 2pz  -0.26009     1 2py   1.23658     2 2py   0.58746     2 2pz   0.26042
                                    2 2py  -1.23673     4 1s    0.28351     5 1s    0.28356
   18.1     0.00000     0.79985     1 2pz  -0.73399     1 2pz   0.70973     2 2pz  -0.73392     2 2pz   0.70967
   19.1     0.00000     0.86472     1 1s   -0.35474     1 2pz  -0.68747     1 2px   0.45494     1 2py  -0.53792     1 2pz   0.96087
                                    2 1s   -0.35475     2 2pz   0.68743     2 2px  -0.45511     2 2py   0.53795     2 2pz  -0.96078
   20.1     0.00000     0.97399     1 2px   0.71683     1 2py   0.37091     1 2px  -1.15182     1 2py  -0.77319     2 2px   0.71675
                                    2 2py   0.37095     2 2px  -1.15182     2 2py  -0.77329     4 1s   -1.04774     5 1s    1.04790
   21.1     0.00000     1.11947     1 1s   -0.67184     1 1s    1.23040     1 2px   0.25096     1 2py   0.40318     1 2px  -0.35642
                                    1 2py  -0.39110     2 1s   -0.67183     2 1s    1.23050     2 2px  -0.25120     2 2py  -0.40260
                                    2 2px   0.35667     2 2py   0.39027     4 1s    0.65212     4 1s   -1.19021     5 1s    0.65149
                                    5 1s   -1.18920
   22.1     0.00000     1.13697     1 2px  -0.39506     1 2py   0.60317     1 2px   0.72509     1 2py  -0.96477     2 2px  -0.39449
                                    2 2py   0.60318     2 2px   0.72449     2 2py  -0.96490     3 1s   -0.51089     3 1s    1.22776
                                    4 1s    0.31050     4 1s   -0.67290     5 1s   -0.31109     5 1s    0.67398     6 1s    0.51004
                                    6 1s   -1.22651
   23.1     0.00000     1.18222     1 1s    0.34837     1 2pz  -0.26267     1 2px   0.75745     2 1s   -0.34744     2 2pz  -0.26249
                                    2 2px   0.75712     3 1s   -0.38187     3 1s    0.62737     4 1s   -0.73995     4 1s    0.90780
                                    5 1s    0.74061     5 1s   -0.90805     6 1s    0.38177     6 1s   -0.62622
   24.1     0.00000     1.19046     1 1s   -0.60964     1 1s    0.96432     1 2px   0.29222     1 2py  -0.31413     1 2px  -0.29186
                                    1 2py   0.30659     2 1s   -0.60897     2 1s    0.96130     2 2px  -0.29287     2 2py   0.31485
                                    2 2px   0.29388     2 2py  -0.30815     3 1s    0.76797     3 1s   -1.07904     6 1s    0.76882
                                    6 1s   -1.08059
   25.1     0.00000     1.25897     1 1s   -1.18410     1 1s    2.12671     1 2px  -0.53323     1 2py   0.54987     1 2pz  -0.98641
                                    2 1s   -1.19113     2 1s    2.14800     2 2px   0.52856     2 2py  -0.54691     2 2pz   0.99127
                                    3 1s   -0.40543     3 1s   -0.92603     4 1s   -0.42930     4 1s   -0.34661     5 1s   -0.42964
                                    5 1s   -0.34991     6 1s   -0.40532     6 1s   -0.92860
   26.1     0.00000     1.28608     1 1s   -1.60498     1 1s    5.11909     1 2px   1.24567     1 2py  -0.76236     1 2pz  -1.22708
                                    2 1s    1.60025     2 1s   -5.11055     2 2px   1.24777     2 2py  -0.76453     2 2pz  -1.22285
                                    3 1s   -0.46466     4 1s   -0.66940     5 1s    0.66792     6 1s    0.46134
   27.1     0.00000     1.69564     1 1s    0.58850     1 3d0   0.34941     1 3d2- -0.29718     1 3d2+ -0.32639     2 1s   -0.58842
                                    2 3d0  -0.34940     2 3d2-  0.29718     2 3d2+  0.32640
   28.1     0.00000     1.91942     1 1s    0.31788     1 1s   -0.66798     1 2pz   0.35097     1 3d0   0.35548     1 3d1+  0.34168
                                    1 3d2+  0.34469     1 3d1-  0.31728     2 1s    0.31720     2 1s   -0.66499     2 2pz  -0.35013
                                    2 3d0   0.35517     2 3d1+  0.34234     2 3d2+  0.34492     2 3d1-  0.31796     3 1s    0.27978
                                    6 1s    0.27980
   29.1     0.00000     1.94036     1 1s   -0.31019     1 1s    1.38242     1 2px   0.32183     1 2pz  -0.35917     1 3d2- -0.30637
                                    1 3d1+  0.39508     1 3d1-  0.38495     2 1s    0.31059     2 1s   -1.38342     2 2px   0.32151
                                    2 2pz  -0.35967     2 3d2-  0.30623     2 3d1+ -0.39443     2 3d1- -0.38441     3 1s   -0.32886
                                    6 1s    0.32925
   30.1     0.00000     2.18193     1 1s    0.34688     1 1s   -1.65295     1 2px  -0.38264     1 2py   0.27767     1 2pz   0.44370
                                    1 3d0   0.56710     1 3d2+  0.35544     2 1s   -0.34687     2 1s    1.65310     2 2px  -0.38254
                                    2 2py   0.27754     2 2pz   0.44378     2 3d0  -0.56711     2 3d2+ -0.35554     3 1s    0.35357
                                    4 1s    0.33264     5 1s   -0.33269     6 1s   -0.35371
   31.1     0.00000     2.25060     1 1s    0.49503     1 1s   -0.32181     1 2px   0.26129     1 2px  -0.29660     1 3d2-  0.30103
                                    1 3d1+  0.38589     1 3d2+ -0.38967     2 1s    0.49507     2 1s   -0.32209     2 2px  -0.26126
                                    2 2px   0.29674     2 3d2-  0.30097     2 3d1+  0.38592     2 3d2+ -0.38967
   32.1     0.00000     2.34940     1 2py   0.36319     1 3d0   0.51365     1 3d2- -0.36832     1 3d1- -0.36357     2 2py  -0.36333
                                    2 3d0   0.51370     2 3d2- -0.36831     2 3d1- -0.36351     3 1s   -0.27598     4 1s    0.39929
                                    5 1s    0.39936     6 1s   -0.27591
   33.1     0.00000     2.58299     1 1s    0.28494     1 2py  -0.29599     1 3d2-  0.48201     1 3d1-  0.59781     2 1s   -0.28501
                                    2 2py  -0.29616     2 3d2- -0.48163     2 3d1- -0.59789     3 1s    0.48973     4 1s   -0.41130
                                    5 1s    0.41147     6 1s   -0.48950
   34.1     0.00000     2.64426     1 2py   0.32008     1 3d2-  0.44587     1 3d2+  0.51806     1 3d1- -0.50402     2 2py  -0.32001
                                    2 3d2-  0.44612     2 3d2+  0.51805     2 3d1- -0.50371     4 1s    0.35981     5 1s    0.35965
   35.1     0.00000     2.72151     1 3d0  -0.40680     1 3d2- -0.48356     1 3d1+  0.49677     1 3d1- -0.27574     2 3d0  -0.40684
                                    2 3d2- -0.48388     2 3d1+  0.49692     2 3d1- -0.27605     3 1s   -0.47475     6 1s   -0.47520
   36.1     0.00000     2.95995     1 1s   -1.71940     1 2px  -0.43586     1 2px  -0.87400     1 2pz   0.43978     1 3d2-  0.34700
                                    1 3d1+  0.69643     1 3d2+ -0.64466     2 1s    1.71937     2 2px  -0.43587     2 2px  -0.87400
                                    2 2pz   0.43977     2 3d2- -0.34703     2 3d1+ -0.69639     2 3d2+  0.64468


 HOMO      8.1    -0.387224 =     -10.5369eV
 LUMO      9.1     0.063308 =       1.7227eV
 LUMO-HOMO         0.450532 =      12.2596eV


 **********************************************************************************************************************************
 DATASETS  * FILE   NREC   LENGTH (MB)   RECORD NAMES
              1      19       31.13       500      610      700      900      950      970     1000      129      960     1100   
                                          VAR    BASINP    GEOM    SYMINP    ZMAT    AOBASIS   BASIS     P2S    ABASIS      S 
                                         1400     1410     1200     1210     1080     1600     1650     1300     1700   
                                           T        V       H0       H01     AOSYM     SMH    MOLCAS    ERIS     OPER   

              2       4        2.86       700     1000      520     2100   
                                         GEOM     BASIS   MCVARS     RHF  

 PROGRAMS   *        TOTAL    HF-SCF       INT
 CPU TIMES  *         0.47      0.12      0.22
 REAL TIME  *         0.73 SEC
 DISK USED  *        36.24 MB
 **********************************************************************************************************************************


 PROGRAM * MULTI (Direct Multiconfiguration SCF)       Authors: P.J. Knowles, H.-J. Werner (1984)


 Number of closed-shell orbitals:   7 (   7 )
 Number of active  orbitals:        2 (   2 )
 Number of external orbitals:      27 (  27 )

 State symmetry 1

 Number of electrons:     2    Spin symmetry=Singlet   Space symmetry=1
 Number of states:        3
 Number of CSFs:          3   (4 determinants, 4 intermediate states)

 Molecular orbitals read from record     2100.2  Type=RHF/CANONICAL (state 1.1)

 Wavefunction dump at record             2140.2

 Convergence thresholds  0.10E-01 (gradient)  0.10E-05 (energy)  0.10E-02 (step length)

 Weight factors for state symmetry  1:    0.33333   0.33333   0.33333

 Number of orbital rotations:      257   (    14 Core/Active    189 Core/Virtual   0 Active/Active     54 Active/Virtual)
 Total number of variables:        269

 Micro-Iterations solved by the two-step solver

 ITER. MIC  NCI  NEG     ENERGY(VAR)     ENERGY(PROJ)   ENERGY CHANGE     GRAD(0)  GRAD(ORB)   GRAD(CI)     STEP       TIME

   1    6    5    0     -77.69193853     -77.71144283   -0.01950430    0.16730539 0.00171554 0.00000000  0.14D+00      0.11
   2    5    5    0     -77.71114141     -77.71116039   -0.00001898    0.00644064 0.00000365 0.00000000  0.45D-02      0.20
   3    4    4    0     -77.71116042     -77.71116042   -0.00000000    0.00001229 0.00000000 0.00000000  0.17D-04      0.28

 ** WVFN ****  CONVERGENCE REACHED, FINAL GRADIENT:  0.14D-09



 Results for state 1.1
 =====================

 !MCSCF STATE  1.1 Energy             -77.842142372020
 Nuclear energy                        32.36627592
 Kinetic energy                        77.80927563
 One electron energy                 -167.90030723
 Two electron energy                   57.69188893
 Virial ratio                           2.00042240

 !MCSCF STATE  1.1 Dipole moment        0.00018572    -0.00000946    -0.00016093
 Dipole moment /Debye                   0.00047202    -0.00002403    -0.00040901

 Results for state 2.1
 =====================

 !MCSCF STATE  2.1 Energy             -77.738861963999
 Nuclear energy                        32.36627592
 Kinetic energy                        77.88501660
 One electron energy                 -167.59543486
 Two electron energy                   57.49029698
 Virial ratio                           1.99812346

 !MCSCF STATE  2.1 Dipole moment        0.00005805    -0.00004120    -0.00010120
 Dipole moment /Debye                   0.00014755    -0.00010471    -0.00025721

 Results for state 3.1
 =====================

 !MCSCF STATE  3.1 Energy             -77.552476910707
 Nuclear energy                        32.36627592
 Kinetic energy                        77.94656108
 One electron energy                 -167.33728799
 Two electron energy                   57.41853516
 Virial ratio                           1.99494417

 !MCSCF STATE  3.1 Dipole moment       -0.00004013    -0.00008582    -0.00007642
 Dipole moment /Debye                  -0.00010200    -0.00021811    -0.00019423

 State-averaged charge density matrix saved on record  2140.2 (density set 1)

 !MCSCF expec         <1.1|DMX|1.1>     0.000185720145 au =     0.000472022607 Debye
 !MCSCF trans         <2.1|DMX|1.1>    -0.000059570804 au =    -0.000151403965 Debye
 !MCSCF expec         <2.1|DMX|2.1>     0.000058053874 au =     0.000147548566 Debye
 !MCSCF trans         <3.1|DMX|1.1>     0.000015622913 au =     0.000039706882 Debye
 !MCSCF trans         <3.1|DMX|2.1>    -0.000074207039 au =    -0.000188603126 Debye
 !MCSCF expec         <3.1|DMX|3.1>    -0.000040131118 au =    -0.000101996446 Debye

 !MCSCF expec         <1.1|DMY|1.1>    -0.000009455709 au =    -0.000024032441 Debye
 !MCSCF trans         <2.1|DMY|1.1>     0.000029377964 au =     0.000074666445 Debye
 !MCSCF expec         <2.1|DMY|2.1>    -0.000041197646 au =    -0.000104707112 Debye
 !MCSCF trans         <3.1|DMY|1.1>     0.000001457471 au =     0.000003704280 Debye
 !MCSCF trans         <3.1|DMY|2.1>     0.000029364787 au =     0.000074632956 Debye
 !MCSCF expec         <3.1|DMY|3.1>    -0.000085818346 au =    -0.000218114191 Debye

 !MCSCF expec         <1.1|DMZ|1.1>    -0.000160927728 au =    -0.000409010696 Debye
 !MCSCF trans         <2.1|DMZ|1.1>     0.000074121276 au =     0.000188385154 Debye
 !MCSCF expec         <2.1|DMZ|2.1>    -0.000101202142 au =    -0.000257213340 Debye
 !MCSCF trans         <3.1|DMZ|1.1>    -0.000009849009 au =    -0.000025032043 Debye
 !MCSCF trans         <3.1|DMZ|2.1>     0.000084763650 au =     0.000215433598 Debye
 !MCSCF expec         <3.1|DMZ|3.1>    -0.000076421028 au =    -0.000194230157 Debye


 NATURAL ORBITALS (state averaged)
 =================================

  Orbital  Occupation    Energy     Coefficients
    1.1     2.00000   -11.25459     1 1s    0.70853     2 1s    0.70031
    2.1     2.00000   -11.25385     1 1s    0.70037     2 1s   -0.70859
    3.1     2.00000    -1.04989     1 1s    0.27793     2 1s    0.27795
    4.1     2.00000    -0.78518     1 1s   -0.31795     2 1s    0.31793
    5.1     2.00000    -0.62485     1 2py   0.30178     2 2py   0.30191
    6.1     2.00000    -0.56000     1 2px   0.25917     2 2px  -0.25917
    7.1     2.00000    -0.41936     1 2pz   0.32504     1 2pz   0.28071     2 2pz   0.32503     2 2pz   0.28070
    8.1     1.00000    -0.08684     1 1s    0.26747     1 2pz   0.40446     1 2pz   0.42969     2 1s    0.26745     2 2pz  -0.40449
                                    2 2pz  -0.42973
    9.1     1.00000    -0.23075     1 2px   0.31018     2 2px  -0.31018     4 1s   -0.29430     5 1s   -0.29427
   10.1    -0.00000     0.21952     1 1s   -1.10567     1 2px   0.47899     1 2py   0.38212     1 2pz   0.37498     2 1s   -1.10547
                                    2 2px  -0.47904     2 2py  -0.38208     2 2pz  -0.37481     3 1s    0.54182     4 1s    1.09723
                                    5 1s    1.09714     6 1s    0.54175
   11.1    -0.00000     0.28124     1 1s   -1.65917     1 2py  -0.29260     1 2pz   0.47908     2 1s    1.65905     2 2py  -0.29217
                                    2 2pz   0.47880     3 1s    1.43632     6 1s   -1.43576
   12.1    -0.00000     0.31565     1 1s   -0.80512     1 2px   0.39918     1 2py  -1.00861     1 2pz   0.42951     2 1s   -0.80729
                                    2 2px  -0.39940     2 2py   1.00786     2 2pz  -0.43006     3 1s    1.57907     4 1s   -0.38554
                                    5 1s   -0.38353     6 1s    1.57982
   13.1    -0.00000     0.31968     1 1s   -1.05144     1 2py   0.84242     1 2pz   0.32914     2 1s    1.05061     2 2py   0.84374
                                    2 2pz   0.32864     4 1s    1.70872     5 1s   -1.70936
   14.1    -0.00000     0.42971     1 1s    1.89220     1 2px   1.79298     1 2py  -0.52686     1 2pz  -0.73162     2 1s   -1.89198
                                    2 2px   1.79307     2 2py  -0.52700     2 2pz  -0.73160     3 1s    0.62798     6 1s   -0.62830
   15.1    -0.00000     0.69926     1 2px  -0.53502     1 2px   0.90633     2 2px   0.53502     2 2px  -0.90637     4 1s    0.25060
                                    4 1s   -0.48456     5 1s    0.25063     5 1s   -0.48451
   16.1    -0.00000     0.75543     1 1s   -0.42119     1 2py  -0.36602     1 2px  -0.66883     1 2py   0.80781     2 1s    0.42090
                                    2 2py  -0.36594     2 2px  -0.66901     2 2py   0.80793     3 1s   -0.48274     4 1s    0.25957
                                    5 1s   -0.25948     6 1s    0.48275
   17.1    -0.00000     0.78836     1 2py  -0.56234     1 2pz  -0.25829     1 2py   1.21773     1 2pz   0.30233     2 2py   0.56236
                                    2 2pz   0.25863     2 2py  -1.21799     2 2pz  -0.30274     4 1s    0.28659     5 1s    0.28668
   18.1    -0.00000     0.79991     1 1s   -0.36796     1 2pz  -0.73015     1 2pz   0.77507     2 1s    0.36818     2 2pz  -0.73009
                                    2 2pz   0.77501
   19.1    -0.00000     0.86282     1 1s   -0.31191     1 2px  -0.25284     1 2pz  -0.66250     1 2px   0.49141     1 2py  -0.54456
                                    1 2pz   1.01583     2 1s   -0.31191     2 2px   0.25289     2 2pz   0.66244     2 2px  -0.49157
                                    2 2py   0.54459     2 2pz  -1.01572     3 1s    0.27749     6 1s    0.27754
   20.1    -0.00000     0.98069     1 2px   0.71399     1 2py   0.37777     1 2px  -1.07184     1 2py  -0.79234     2 2px   0.71391
                                    2 2py   0.37780     2 2px  -1.07185     2 2py  -0.79243     4 1s   -1.01212     5 1s    1.01227
   21.1    -0.00000     1.09363     1 1s   -0.64380     1 1s    1.16720     1 2px   0.27875     1 2py   0.42072     1 2px  -0.35918
                                    1 2py  -0.43216     2 1s   -0.64357     2 1s    1.16700     2 2px  -0.27890     2 2py  -0.42017
                                    2 2px   0.35916     2 2py   0.43145     4 1s    0.66171     4 1s   -1.16079     5 1s    0.66092
                                    5 1s   -1.15959
   22.1    -0.00000     1.12381     1 1s    0.26321     1 2px  -0.25671     1 2py   0.60869     1 2px   0.25674     1 2py  -0.84113
                                    2 1s   -0.26447     2 2px  -0.25619     2 2py   0.60893     2 2px   0.25634     2 2py  -0.84154
                                    3 1s    0.72036     4 1s    0.64166     4 1s   -1.06546     5 1s   -0.64241     5 1s    1.06651
                                    6 1s   -0.71979
   23.1    -0.00000     1.15956     1 1s    0.31412     1 2px  -0.37189     1 2px   1.06885     1 2py  -0.49280     2 1s   -0.31302
                                    2 2px  -0.37175     2 2px   1.06846     2 2py  -0.49218     3 1s   -0.58999     3 1s    1.16345
                                    4 1s   -0.47590     4 1s    0.46705     5 1s    0.47634     5 1s   -0.46718     6 1s    0.58933
                                    6 1s   -1.16192
   24.1    -0.00000     1.19500     1 1s   -0.54306     1 1s    0.83196     1 2px   0.27988     1 2py  -0.32320     1 2py   0.29240
                                    2 1s   -0.54207     2 1s    0.82793     2 2px  -0.28056     2 2py   0.32387     2 2py  -0.29402
                                    3 1s    0.78960     3 1s   -1.03016     6 1s    0.79046     6 1s   -1.03158
   25.1    -0.00000     1.24999     1 1s   -1.24170     1 1s    2.22710     1 2px  -0.55595     1 2py   0.56794     1 2pz  -0.98891
                                    2 1s   -1.24764     2 1s    2.24500     2 2px   0.55204     2 2py  -0.56574     2 2pz   0.99288
                                    3 1s   -0.37872     3 1s   -0.97615     4 1s   -0.39440     4 1s   -0.40107     5 1s   -0.39478
                                    5 1s   -0.40356     6 1s   -0.37854     6 1s   -0.97852
   26.1    -0.00000     1.28001     1 1s   -1.61112     1 1s    5.12236     1 2px   1.25501     1 2py  -0.72538     1 2pz  -1.21054
                                    2 1s    1.60706     2 1s   -5.11501     2 2px   1.25681     2 2py  -0.72723     2 2pz  -1.20693
                                    3 1s   -0.48427     4 1s   -0.63345     5 1s    0.63203     6 1s    0.48153
   27.1    -0.00000     1.69034     1 1s    0.61627     1 3d0   0.34308     1 3d2- -0.30125     1 3d2+ -0.32838     2 1s   -0.61619
                                    2 3d0  -0.34307     2 3d2-  0.30125     2 3d2+  0.32839
   28.1    -0.00000     1.91667     1 1s    0.30779     1 1s   -0.65625     1 2pz   0.34500     1 3d0   0.35322     1 3d1+  0.33735
                                    1 3d2+  0.35182     1 3d1-  0.31648     2 1s    0.30714     2 1s   -0.65344     2 2pz  -0.34421
                                    2 3d0   0.35292     2 3d1+  0.33799     2 3d2+  0.35204     2 3d1-  0.31713     3 1s    0.27644
                                    6 1s    0.27648
   29.1    -0.00000     1.93721     1 1s   -0.30281     1 1s    1.34935     1 2px   0.31105     1 2pz  -0.35004     1 3d2- -0.30378
                                    1 3d1+  0.39815     1 3d1-  0.38366     2 1s    0.30318     2 1s   -1.35029     2 2px   0.31073
                                    2 2pz  -0.35050     2 3d2-  0.30363     2 3d1+ -0.39754     2 3d1- -0.38315     3 1s   -0.33040
                                    6 1s    0.33078
   30.1    -0.00000     2.18209     1 1s    0.35040     1 1s   -1.64059     1 2px  -0.37710     1 2py   0.27979     1 2pz   0.43773
                                    1 3d0   0.57040     1 3d2+  0.35798     2 1s   -0.35037     2 1s    1.64074     2 2px  -0.37699
                                    2 2py   0.27965     2 2pz   0.43781     2 3d0  -0.57040     2 3d2+ -0.35809     3 1s    0.35252
                                    4 1s    0.32737     5 1s   -0.32742     6 1s   -0.35267
   31.1    -0.00000     2.24593     1 1s    0.48983     1 1s   -0.32633     1 2px   0.26759     1 2px  -0.28842     1 3d2-  0.31475
                                    1 3d1+  0.39442     1 3d2+ -0.38833     2 1s    0.48988     2 1s   -0.32663     2 2px  -0.26757
                                    2 2px   0.28856     2 3d2-  0.31469     2 3d1+  0.39445     2 3d2+ -0.38832
   32.1    -0.00000     2.34335     1 2py   0.37929     1 3d0   0.51387     1 3d2- -0.36269     1 3d1- -0.37692     2 2py  -0.37944
                                    2 3d0   0.51393     2 3d2- -0.36268     2 3d1- -0.37686     3 1s   -0.28943     4 1s    0.38769
                                    5 1s    0.38776     6 1s   -0.28935
   33.1    -0.00000     2.57758     1 1s    0.26972     1 2py  -0.29605     1 3d2-  0.48471     1 3d1-  0.59882     2 1s   -0.26980
                                    2 2py  -0.29625     2 3d2- -0.48434     2 3d1- -0.59893     3 1s    0.49322     4 1s   -0.40196
                                    5 1s    0.40215     6 1s   -0.49301
   34.1    -0.00000     2.63596     1 2py   0.32601     1 3d2-  0.45101     1 3d2+  0.51337     1 3d1- -0.50624     2 2py  -0.32592
                                    2 3d2-  0.45128     2 3d2+  0.51335     2 3d1- -0.50591     4 1s    0.35126     5 1s    0.35110
   35.1    -0.00000     2.72639     1 3d0  -0.41466     1 3d2- -0.47321     1 3d1+  0.50160     1 3d1- -0.27489     2 3d0  -0.41470
                                    2 3d2- -0.47351     2 3d1+  0.50174     2 3d1- -0.27517     3 1s   -0.47271     6 1s   -0.47314
   36.1    -0.00000     2.95553     1 1s   -1.74982     1 2px  -0.42962     1 2px  -0.88619     1 2pz   0.44779     1 3d2-  0.34478
                                    1 3d1+  0.69931     1 3d2+ -0.64193     2 1s    1.74980     2 2px  -0.42963     2 2px  -0.88619
                                    2 2pz   0.44778     2 3d2- -0.34482     2 3d1+ -0.69927     2 3d2+  0.64195


 Natural orbital dump (state averaged) at molpro section  2140.2    (Orbital set 2)



 **********************************************************************************************************************************
 DATASETS  * FILE   NREC   LENGTH (MB)   RECORD NAMES
              1      20       31.86       500      610      700      900      950      970     1000      129      960     1100   
                                          VAR    BASINP    GEOM    SYMINP    ZMAT    AOBASIS   BASIS     P2S    ABASIS      S 
                                         1400     1410     1200     1210     1080     1600     1650     1300     1700     1380   
                                           T        V       H0       H01     AOSYM     SMH    MOLCAS    ERIS     OPER     JKOP   

              2       5        5.42       700     1000      520     2100     2140   
                                         GEOM     BASIS   MCVARS     RHF     MCSCF   

 PROGRAMS   *        TOTAL     MULTI    HF-SCF       INT
 CPU TIMES  *         0.80      0.33      0.12      0.22
 REAL TIME  *         1.14 SEC
 DISK USED  *        39.04 MB
 **********************************************************************************************************************************
 Molecular orbitals read from record     2140.2  Type=MCSCF/NATURAL (state averaged)
 Occupation numbers read from record     2140.2  Type=MCSCF/NATURAL (state averaged)
 Orbital energies read from record       2140.2  Type=MCSCF/NATURAL (state averaged)
 Redundancy group numbers read from rec  2140.2  Type=MCSCF/NATURAL (state averaged)

 MULTI/6-31G* energy=    -77.552476910707

           MULTI          HF-SCF
    -77.55247691    -77.84852716
 **********************************************************************************************************************************
 Molpro calculation terminated
