
 Primary working directories    : /scratch.local/johan406.molpro_temp/molpro.p3hw68K5Nw
 Secondary working directories  : /scratch.local/johan406.molpro_temp/molpro.p3hw68K5Nw
 Wavefunction directory         : /home/goodpast/johan406/wfu/
 Main file repository           : /scratch.local/johan406.molpro_temp/molpro.p3hw68K5Nw/

 id        : roweumn

 Nodes     nprocs
 acn09        1

 Using customized tuning parameters: mindgm=1; mindgv=20; mindgc=4; mindgr=1; noblas=0; minvec=7
 default implementation of scratch files=df  


 Variables initialized (934), CPU time= 0.01 sec
                                                                                 !leave this line blank
 
 gprint, orbitals=30
 memory, 125., m
 symmetry, nosym
 nelect=16
 basis=6-31g*
 
 geometry={
 C -0.6214 0.1415 0.2987
 C 0.6302 -0.1914 -0.359
 H -1.2729 0.8881 -0.1562
 H -0.9238 -0.8559 -0.1554
 H 0.9327 0.806 0.095
 H 1.2818 -0.938 0.0958
 }
 
 hf
 {multi,
 closed 7
 occ 9
 wf,spin=0;STATE,3
 }
 
 Commands  initialized (763), CPU time= 0.01 sec, 617 directives.
 Default parameters read. Elapsed time= 0.07 sec

 Checking input...
 Passed
1


                                         ***  PROGRAM SYSTEM MOLPRO  ***
                                       Copyright, TTI GmbH Stuttgart, 2015
                                    Version 2019.2 linked Oct 25 2019 22:50:27


 **********************************************************************************************************************************
 LABEL *                                                                                 
  64 bit serial version                                                                  DATE: 07-Feb-23          TIME: 15:35:56  
 **********************************************************************************************************************************

 SHA1:             8dbd9ae1082e4ce945b0f27595c9eb2d4aa09004
 **********************************************************************************************************************************


 Variable memory set to  125000000 words,  buffer space 

 SETTING NELECT         =        16.00000000                                  
 SETTING BASIS          =    6-31G*
 ZSYMEL=NOSYM


Geometry recognized as XYZ



 Recomputing integrals since basis changed


 Using spherical harmonics

 Library entry C      S 6-31G                selected for orbital group  1
 Library entry C      P 6-31G                selected for orbital group  1
 Library entry C      D 6-31G*               selected for orbital group  1
 Library entry H      S 6-31G                selected for orbital group  2


 PROGRAM * SEWARD (Integral evaluation for generally contracted gaussian basis sets)     Author: Roland Lindh, 1990

 Geometry written to block  1 of record 700


 Point group  C1  



 ATOMIC COORDINATES

 NR  ATOM    CHARGE       X              Y              Z

   1  C       6.00   -1.174275814    0.267396247    0.564461193
   2  C       6.00    1.190905404   -0.361693580   -0.678411679
   3  H       1.00   -2.405432384    1.678265771   -0.295175221
   4  H       1.00   -1.745728994   -1.617416590   -0.293663440
   5  H       1.00    1.762547556    1.523119256    0.179523982
   6  H       1.00    2.422250946   -1.772563105    0.181035763

 Bond lengths in Bohr (Angstrom)

 1-2  2.744916971  1-3  2.060406290  1-4  2.148361248  2-5  2.148336049  2-6  2.060440382
     ( 1.452547507)     ( 1.090320054)     ( 1.136863813)     ( 1.136850478)     ( 1.090338094)

 Bond angles

  1-2-5   81.22137222   1-2-6  118.88167996   2-1-3  118.87431461   2-1-4   81.21477285

  3-1-4  105.97163751   5-2-6  105.97134170

 NUCLEAR CHARGE:                   16
 NUMBER OF PRIMITIVE AOS:          72
 NUMBER OF SYMMETRY AOS:           70
 NUMBER OF CONTRACTIONS:           36   (   36A   )
 NUMBER OF CORE ORBITALS:           2   (    2A   )
 NUMBER OF VALENCE ORBITALS:       12   (   12A   )


 NUCLEAR REPULSION ENERGY   32.59567409

 Eigenvalues of metric

         1 0.922E-02 0.265E-01 0.583E-01 0.623E-01 0.802E-01 0.215E+00 0.238E+00 0.269E+00


 Contracted 2-electron integrals neglected if value below      1.0D-11
 AO integral compression algorithm  1   Integral accuracy      1.0D-11

     1.573 MB (compressed) written to integral file ( 59.4%)


 NUMBER OF SORTED TWO-ELECTRON INTEGRALS:     222111.     BUFFER LENGTH:  32768
 NUMBER OF SEGMENTS:   1  SEGMENT LENGTH:     222111      RECORD LENGTH: 524288

 Memory used in sort:       0.78 MW

 SORT1 READ      284735. AND WROTE      212531. INTEGRALS IN      1 RECORDS. CPU TIME:     0.01 SEC, REAL TIME:     0.01 SEC
 SORT2 READ      212531. AND WROTE      222111. INTEGRALS IN      6 RECORDS. CPU TIME:     0.02 SEC, REAL TIME:     0.03 SEC

 FILE SIZES:   FILE 1:    31.7 MBYTE,  FILE 4:     4.2 MBYTE,   TOTAL:     35.9 MBYTE

 OPERATOR DM      FOR CENTER  0  COORDINATES:    0.000000    0.000000    0.000000


 **********************************************************************************************************************************
 DATASETS  * FILE   NREC   LENGTH (MB)   RECORD NAMES
              1      19       31.13       500      610      700      900      950      970     1000      129      960     1100   
                                          VAR    BASINP    GEOM    SYMINP    ZMAT    AOBASIS   BASIS     P2S    ABASIS      S 
                                         1400     1410     1200     1210     1080     1600     1650     1300     1700   
                                           T        V       H0       H01     AOSYM     SMH    MOLCAS    ERIS     OPER   

 PROGRAMS   *        TOTAL       INT
 CPU TIMES  *         0.29      0.19
 REAL TIME  *         0.50 SEC
 DISK USED  *        36.24 MB
 **********************************************************************************************************************************


 PROGRAM * RHF-SCF (CLOSED SHELL)       Authors: W. Meyer, H.-J. Werner


 NUMBER OF ELECTRONS:       8+    8-    SPACE SYMMETRY=1    SPIN SYMMETRY: Singlet 
 CONVERGENCE THRESHOLDS:    1.00E-05 (Density)    1.00E-07 (Energy)
 MAX. NUMBER OF ITERATIONS:       60
 INTERPOLATION TYPE:            DIIS
 INTERPOLATION STEPS:              2 (START)      1 (STEP)
 LEVEL SHIFTS:                  0.00 (CLOSED)  0.00 (OPEN) 



 Orbital guess generated from atomic densities. Full valence occupancy:    8

 Molecular orbital dump at record        2100.2

 Initial occupancy:   8

 ITERATION    DDIFF          GRAD             ENERGY        2-EL.EN.            DIPOLE MOMENTS         DIIS   ORB.
    1      0.000D+00      0.000D+00       -77.81375518    116.361612    0.00016   -0.00004   -0.00017    0    start
    2      0.000D+00      0.706D-02       -77.83162135    115.322298    0.00007    0.00003   -0.00003    1    diag
    3      0.777D-02      0.227D-02       -77.83365418    115.743192    0.00015   -0.00002   -0.00014    2    diag
    4      0.296D-02      0.820D-03       -77.83408341    115.614816    0.00009    0.00002   -0.00005    3    diag
    5      0.163D-02      0.285D-03       -77.83421397    115.622200    0.00017   -0.00003   -0.00016    4    diag
    6      0.969D-03      0.133D-03       -77.83426393    115.624148   -0.00001    0.00010    0.00011    5    diag
    7      0.629D-03      0.547D-04       -77.83427308    115.625865    0.00036   -0.00016   -0.00047    6    diag
    8      0.306D-03      0.186D-04       -77.83427384    115.626509   -0.00017    0.00020    0.00035    7    diag
    9      0.884D-04      0.991D-05       -77.83427391    115.626626    0.00016   -0.00002   -0.00016    8    diag
   10      0.232D-04      0.293D-05       -77.83427392    115.626602    0.00012    0.00001   -0.00009    9    orth
   11      0.811D-05      0.604D-06       -77.83427392    115.626607    0.00012    0.00001   -0.00009    0    orth

 Final occupancy:   8

 !RHF STATE  1.1 Energy               -77.834273924479
 Nuclear energy                        32.59567409
 One-electron energy                 -168.24325176
 Two-electron energy                   57.81330375
 Virial quotient                       -1.00038684
 !RHF STATE  1.1 Dipole moment          0.00012022     0.00000558    -0.00009168
 Dipole moment /Debye                   0.00030556     0.00001417    -0.00023301

 ELECTRON ORBITALS
 =================

  Orbital  Occupation    Energy     Coefficients
    1.1     2.00000   -11.25810     1 1s    0.69916     2 1s    0.70967
    2.1     2.00000   -11.25722     1 1s    0.70977     2 1s   -0.69926
    3.1     2.00000    -1.04524     1 1s    0.28206     2 1s    0.28206
    4.1     2.00000    -0.78420     1 1s   -0.29400     2 1s    0.29401
    5.1     2.00000    -0.62674     1 2py   0.30881     2 2py   0.30881
    6.1     2.00000    -0.56581     1 2px   0.29899     2 2px  -0.29898
    7.1     2.00000    -0.39521     1 2pz   0.30840     1 2pz   0.28309     2 2pz   0.30842     2 2pz   0.28311
    8.1     2.00000    -0.37580     1 2px   0.27642     2 2px  -0.27642     4 1s   -0.29379     5 1s   -0.29377
    9.1     0.00000     0.06286     1 1s    0.39856     1 2pz   0.32972     1 2pz   0.46919     2 1s    0.39860     2 2pz  -0.32973
                                    2 2pz  -0.46921
   10.1     0.00000     0.22979     1 1s   -1.09461     1 2px   0.45788     1 2py   0.38003     1 2pz   0.42231     2 1s   -1.09454
                                    2 2px  -0.45793     2 2py  -0.38004     2 2pz  -0.42220     3 1s    0.54208     4 1s    1.10116
                                    5 1s    1.10119     6 1s    0.54200
   11.1     0.00000     0.28088     1 1s   -1.57574     1 2py  -0.34870     1 2pz   0.46249     2 1s    1.57600     2 2py  -0.34894
                                    2 2pz   0.46259     3 1s    1.44474     6 1s   -1.44515
   12.1     0.00000     0.31222     1 1s   -0.78783     1 2px   0.42985     1 2py  -0.99147     1 2pz   0.47413     2 1s   -0.78723
                                    2 2px  -0.42998     2 2py   0.99132     2 2pz  -0.47391     3 1s    1.58008     4 1s   -0.38822
                                    5 1s   -0.38815     6 1s    1.57963
   13.1     0.00000     0.34208     1 1s   -1.03677     1 2px   0.30282     1 2py   0.78173     1 2pz   0.33435     2 1s    1.03671
                                    2 2px   0.30289     2 2py   0.78190     2 2pz   0.33429     4 1s    1.74986     5 1s   -1.74990
   14.1     0.00000     0.42599     1 1s    2.07553     1 2px   1.79923     1 2py  -0.65306     1 2pz  -0.80577     2 1s   -2.07544
                                    2 2px   1.79927     2 2py  -0.65308     2 2pz  -0.80579     3 1s    0.63946     6 1s   -0.63960
   15.1     0.00000     0.70337     1 2px  -0.54853     1 2px   0.94058     2 2px   0.54849     2 2px  -0.94061     4 1s   -0.45540
                                    5 1s   -0.45528
   16.1     0.00000     0.75668     1 1s   -0.36180     1 2py  -0.37564     1 2px  -0.63140     1 2py   0.81166     2 1s    0.36182
                                    2 2py  -0.37533     2 2px  -0.63149     2 2py   0.81107     3 1s   -0.48288     4 1s    0.25000
                                    6 1s    0.48285
   17.1     0.00000     0.78339     1 2py   0.58098     1 2pz   0.25158     1 2py  -1.21038     2 2py  -0.58115     2 2pz  -0.25171
                                    2 2py   1.21084     4 1s   -0.29700     5 1s   -0.29712
   18.1     0.00000     0.79849     1 2pz  -0.73056     1 2pz   0.71921     2 2pz  -0.73052     2 2pz   0.71916
   19.1     0.00000     0.86589     1 1s   -0.36068     1 2pz  -0.68799     1 2px   0.46831     1 2py  -0.52467     1 2pz   0.96409
                                    2 1s   -0.36071     2 2pz   0.68797     2 2px  -0.46857     2 2py   0.52482     2 2pz  -0.96398
   20.1     0.00000     0.97336     1 2px   0.70359     1 2py   0.38239     1 2px  -1.10078     1 2py  -0.84001     2 2px   0.70356
                                    2 2py   0.38246     2 2px  -1.10089     2 2py  -0.84019     4 1s   -1.11761     5 1s    1.11769
   21.1     0.00000     1.11807     1 1s   -0.64368     1 1s    1.19506     1 2py   0.42216     1 2px  -0.33365     1 2py  -0.41500
                                    2 1s   -0.64381     2 1s    1.19606     2 2py  -0.42230     2 2px   0.33273     2 2py   0.41546
                                    4 1s    0.64965     4 1s   -1.19737     5 1s    0.64937     5 1s   -1.19721
   22.1     0.00000     1.14112     1 2px  -0.43775     1 2py   0.56086     1 2px   0.87469     1 2py  -0.94361     2 2px  -0.43794
                                    2 2py   0.56075     2 2px   0.87498     2 2py  -0.94355     3 1s   -0.56209     3 1s    1.30680
                                    4 1s   -0.50957     5 1s    0.50894     6 1s    0.56221     6 1s   -1.30713
   23.1     0.00000     1.18099     1 1s    0.83037     1 2py  -0.25097     1 2px   0.84620     2 1s   -0.82795     2 2py  -0.25055
                                    2 2px   0.84697     3 1s   -0.29953     3 1s    0.34565     4 1s   -0.80095     4 1s    0.89543
                                    5 1s    0.80146     5 1s   -0.89608     6 1s    0.30118     6 1s   -0.34790
   24.1     0.00000     1.19249     1 1s   -0.69266     1 1s    1.11135     1 2px   0.30139     1 2py  -0.30504     1 2px  -0.33502
                                    1 2py   0.31797     2 1s   -0.69244     2 1s    1.11311     2 2px  -0.30113     2 2py   0.30541
                                    2 2px   0.33302     2 2py  -0.31766     3 1s    0.74322     3 1s   -1.12446     6 1s    0.74239
                                    6 1s   -1.12328
   25.1     0.00000     1.27044     1 1s    1.63045     1 1s   -5.03894     1 2px  -1.13983     1 2py   0.77192     1 2pz   1.21770
                                    2 1s   -1.63620     2 1s    5.04953     2 2px  -1.13708     2 2py   0.76915     2 2pz   1.22268
                                    3 1s    0.52761     4 1s    0.81123     5 1s   -0.81300     6 1s   -0.53211
   26.1     0.00000     1.27544     1 1s   -1.17186     1 1s    2.16428     1 2px  -0.53138     1 2py   0.56961     1 2pz  -1.01433
                                    2 1s   -1.16372     2 1s    2.13849     2 2px   0.53740     2 2py  -0.57355     2 2pz   1.00794
                                    3 1s   -0.45465     3 1s   -0.90942     4 1s   -0.42782     4 1s   -0.37775     5 1s   -0.42714
                                    5 1s   -0.37378     6 1s   -0.45448     6 1s   -0.90679
   27.1     0.00000     1.70729     1 1s    0.64453     1 3d0   0.37752     1 3d2- -0.28557     1 3d2+ -0.31761     2 1s   -0.64427
                                    2 3d0  -0.37742     2 3d2-  0.28557     2 3d2+  0.31771
   28.1     0.00000     1.90565     1 1s    0.30297     1 1s   -0.65170     1 2pz   0.34380     1 3d0   0.34690     1 3d1+  0.33703
                                    1 3d2+  0.35067     1 3d1-  0.32466     2 1s    0.30287     2 1s   -0.65117     2 2pz  -0.34361
                                    2 3d0   0.34692     2 3d1+  0.33706     2 3d2+  0.35064     2 3d1-  0.32481     3 1s    0.27615
                                    6 1s    0.27612
   29.1     0.00000     1.95592     1 1s   -0.29869     1 1s    1.38454     1 2px   0.31637     1 2pz  -0.36536     1 3d2- -0.31699
                                    1 3d1+  0.38901     1 3d1-  0.39446     2 1s    0.29868     2 1s   -1.38460     2 2px   0.31626
                                    2 2pz  -0.36538     2 3d2-  0.31694     2 3d1+ -0.38893     2 3d1- -0.39443     3 1s   -0.33178
                                    6 1s    0.33182
   30.1     0.00000     2.16790     1 1s    0.31816     1 1s   -1.57427     1 2px  -0.35544     1 2py   0.28084     1 2pz   0.42934
                                    1 3d0   0.55322     1 3d2+  0.36940     2 1s   -0.31807     2 1s    1.57421     2 2px  -0.35532
                                    2 2py   0.28080     2 2pz   0.42934     2 3d0  -0.55310     2 3d2+ -0.36943     3 1s    0.34575
                                    4 1s    0.33231     5 1s   -0.33224     6 1s   -0.34580
   31.1     0.00000     2.25455     1 1s    0.50374     1 1s   -0.34747     1 2px   0.26249     1 2px  -0.28544     1 3d2-  0.31707
                                    1 3d1+  0.40010     1 3d2+ -0.38298     2 1s    0.50373     2 1s   -0.34755     2 2px  -0.26247
                                    2 2px   0.28553     2 3d2-  0.31699     2 3d1+  0.40014     2 3d2+ -0.38296
   32.1     0.00000     2.35201     1 2py   0.34425     1 3d0   0.52998     1 3d2- -0.36226     1 3d1- -0.35224     2 2py  -0.34441
                                    2 3d0   0.53015     2 3d2- -0.36233     2 3d1- -0.35229     3 1s   -0.27012     4 1s    0.38902
                                    5 1s    0.38919     6 1s   -0.27006
   33.1     0.00000     2.57725     1 2py  -0.28839     1 3d2-  0.46986     1 3d1-  0.60495     2 2py  -0.28834     2 3d2- -0.46987
                                    2 3d1- -0.60484     3 1s    0.49585     4 1s   -0.40732     5 1s    0.40737     6 1s   -0.49572
   34.1     0.00000     2.66083     1 2py   0.30390     1 3d2-  0.47190     1 3d2+  0.50675     1 3d1- -0.49891     2 2py  -0.30392
                                    2 3d2-  0.47189     2 3d2+  0.50674     2 3d1- -0.49886     4 1s    0.36825     5 1s    0.36822
   35.1     0.00000     2.73738     1 3d0  -0.40440     1 3d2- -0.45454     1 3d1+  0.49748     1 3d1- -0.31539     2 3d0  -0.40439
                                    2 3d2- -0.45453     2 3d1+  0.49757     2 3d1- -0.31535     3 1s   -0.47574     6 1s   -0.47578
   36.1     0.00000     2.96402     1 1s   -1.74657     1 2px  -0.44483     1 2px  -0.88253     1 2py   0.25012     1 2pz   0.44726
                                    1 3d2-  0.35639     1 3d1+  0.70023     1 3d2+ -0.64198     2 1s    1.74656     2 2px  -0.44484
                                    2 2px  -0.88253     2 2py   0.25010     2 2pz   0.44726     2 3d2- -0.35645     2 3d1+ -0.70018
                                    2 3d2+  0.64200


 HOMO      8.1    -0.375800 =     -10.2260eV
 LUMO      9.1     0.062858 =       1.7105eV
 LUMO-HOMO         0.438658 =      11.9365eV


 **********************************************************************************************************************************
 DATASETS  * FILE   NREC   LENGTH (MB)   RECORD NAMES
              1      19       31.13       500      610      700      900      950      970     1000      129      960     1100   
                                          VAR    BASINP    GEOM    SYMINP    ZMAT    AOBASIS   BASIS     P2S    ABASIS      S 
                                         1400     1410     1200     1210     1080     1600     1650     1300     1700   
                                           T        V       H0       H01     AOSYM     SMH    MOLCAS    ERIS     OPER   

              2       4        2.86       700     1000      520     2100   
                                         GEOM     BASIS   MCVARS     RHF  

 PROGRAMS   *        TOTAL    HF-SCF       INT
 CPU TIMES  *         0.43      0.14      0.19
 REAL TIME  *         0.81 SEC
 DISK USED  *        36.24 MB
 **********************************************************************************************************************************


 PROGRAM * MULTI (Direct Multiconfiguration SCF)       Authors: P.J. Knowles, H.-J. Werner (1984)


 Number of closed-shell orbitals:   7 (   7 )
 Number of active  orbitals:        2 (   2 )
 Number of external orbitals:      27 (  27 )

 State symmetry 1

 Number of electrons:     2    Spin symmetry=Singlet   Space symmetry=1
 Number of states:        3
 Number of CSFs:          3   (4 determinants, 4 intermediate states)

 Molecular orbitals read from record     2100.2  Type=RHF/CANONICAL (state 1.1)

 Wavefunction dump at record             2140.2

 Convergence thresholds  0.10E-01 (gradient)  0.10E-05 (energy)  0.10E-02 (step length)

 Weight factors for state symmetry  1:    0.33333   0.33333   0.33333

 Number of orbital rotations:      257   (    14 Core/Active    189 Core/Virtual   0 Active/Active     54 Active/Virtual)
 Total number of variables:        269

 Micro-Iterations solved by the two-step solver

 ITER. MIC  NCI  NEG     ENERGY(VAR)     ENERGY(PROJ)   ENERGY CHANGE     GRAD(0)  GRAD(ORB)   GRAD(CI)     STEP       TIME

   1    6    5    0     -77.69129860     -77.71045519   -0.01915659    0.16811118 0.00137078 0.00000000  0.14D+00      0.12
   2    5    5    0     -77.71015059     -77.71016845   -0.00001786    0.00620889 0.00000277 0.00000000  0.44D-02      0.21
   3    3    4    0     -77.71016848     -77.71016848   -0.00000000    0.00001135 0.00000000 0.00000000  0.16D-04      0.28

 ** WVFN ****  CONVERGENCE REACHED, FINAL GRADIENT:  0.11D-09



 Results for state 1.1
 =====================

 !MCSCF STATE  1.1 Energy             -77.828080539712
 Nuclear energy                        32.59567409
 Kinetic energy                        77.86231322
 One electron energy                 -168.32307624
 Two electron energy                   57.89932161
 Virial ratio                           1.99956034

 !MCSCF STATE  1.1 Dipole moment        0.00013674     0.00000959    -0.00011224
 Dipole moment /Debye                   0.00034754     0.00002439    -0.00028526

 Results for state 2.1
 =====================

 !MCSCF STATE  2.1 Energy             -77.737309411012
 Nuclear energy                        32.59567409
 Kinetic energy                        77.93103635
 One electron energy                 -168.02394569
 Two electron energy                   57.69096219
 Virial ratio                           1.99751412

 !MCSCF STATE  2.1 Dipole moment        0.00003646    -0.00000170    -0.00005886
 Dipole moment /Debye                   0.00009267    -0.00000432    -0.00014959

 Results for state 3.1
 =====================

 !MCSCF STATE  3.1 Energy             -77.565115474957
 Nuclear energy                        32.59567409
 Kinetic energy                        77.98086763
 One electron energy                 -167.76600891
 Two electron energy                   57.60521935
 Virial ratio                           1.99466854

 !MCSCF STATE  3.1 Dipole moment       -0.00003829    -0.00001649    -0.00004419
 Dipole moment /Debye                  -0.00009731    -0.00004191    -0.00011232

 State-averaged charge density matrix saved on record  2140.2 (density set 1)

 !MCSCF expec         <1.1|DMX|1.1>     0.000136740762 au =     0.000347537585 Debye
 !MCSCF trans         <2.1|DMX|1.1>    -0.000045205487 au =    -0.000114893361 Debye
 !MCSCF expec         <2.1|DMX|2.1>     0.000036460571 au =     0.000092667459 Debye
 !MCSCF trans         <3.1|DMX|1.1>     0.000013518297 au =     0.000034357833 Debye
 !MCSCF trans         <3.1|DMX|2.1>    -0.000057883138 au =    -0.000147114626 Debye
 !MCSCF expec         <3.1|DMX|3.1>    -0.000038287355 au =    -0.000097310375 Debye

 !MCSCF expec         <1.1|DMY|1.1>     0.000009594685 au =     0.000024385660 Debye
 !MCSCF trans         <2.1|DMY|1.1>     0.000007281815 au =     0.000018507314 Debye
 !MCSCF expec         <2.1|DMY|2.1>    -0.000001697893 au =    -0.000004315331 Debye
 !MCSCF trans         <3.1|DMY|1.1>     0.000000790295 au =     0.000002008599 Debye
 !MCSCF trans         <3.1|DMY|2.1>     0.000006961461 au =     0.000017693109 Debye
 !MCSCF expec         <3.1|DMY|3.1>    -0.000016491306 au =    -0.000041913972 Debye

 !MCSCF expec         <1.1|DMZ|1.1>    -0.000112238071 au =    -0.000285262036 Debye
 !MCSCF trans         <2.1|DMZ|1.1>     0.000072820519 au =     0.000185079175 Debye
 !MCSCF expec         <2.1|DMZ|2.1>    -0.000058856978 au =    -0.000149589718 Debye
 !MCSCF trans         <3.1|DMZ|1.1>    -0.000010080705 au =    -0.000025620918 Debye
 !MCSCF trans         <3.1|DMZ|2.1>     0.000083932605 au =     0.000213321431 Debye
 !MCSCF expec         <3.1|DMZ|3.1>    -0.000044193624 au =    -0.000112321632 Debye


 NATURAL ORBITALS (state averaged)
 =================================

  Orbital  Occupation    Energy     Coefficients
    1.1     2.00000   -11.25366     1 1s    0.70415     2 1s    0.70470
    2.1     2.00000   -11.25289     1 1s    0.70476     2 1s   -0.70421
    3.1     2.00000    -1.05883     1 1s    0.27736     2 1s    0.27736
    4.1     2.00000    -0.78577     1 1s   -0.31768     2 1s    0.31769
    5.1     2.00000    -0.63001     1 2py   0.30214     2 2py   0.30211
    6.1     2.00000    -0.56483     1 2px   0.26329     2 2px  -0.26329
    7.1     2.00000    -0.42251     1 2pz   0.32370     1 2pz   0.27719     2 2pz   0.32370     2 2pz   0.27719
    8.1     1.00000    -0.08747     1 1s    0.26887     1 2pz   0.40368     1 2pz   0.42916     2 1s    0.26890     2 2pz  -0.40369
                                    2 2pz  -0.42918
    9.1     1.00000    -0.21793     1 2px   0.30886     2 2px  -0.30885     4 1s   -0.30404     5 1s   -0.30403
   10.1    -0.00000     0.21796     1 1s   -1.10352     1 2px   0.45473     1 2py   0.39049     1 2pz   0.36707     2 1s   -1.10340
                                    2 2px  -0.45477     2 2py  -0.39049     2 2pz  -0.36694     3 1s    0.51654     4 1s    1.10681
                                    5 1s    1.10678     6 1s    0.51643
   11.1    -0.00000     0.27968     1 1s   -1.64554     1 2py  -0.29555     1 2pz   0.47529     2 1s    1.64574     2 2py  -0.29564
                                    2 2pz   0.47533     3 1s    1.43669     6 1s   -1.43691
   12.1    -0.00000     0.31453     1 1s   -0.83766     1 2px   0.42697     1 2py  -0.98639     1 2pz   0.44653     2 1s   -0.83746
                                    2 2px  -0.42709     2 2py   0.98616     2 2pz  -0.44644     3 1s    1.59484     4 1s   -0.34999
                                    5 1s   -0.34966     6 1s    1.59455
   13.1    -0.00000     0.32717     1 1s   -1.06829     1 2py   0.86161     1 2pz   0.35424     2 1s    1.06811     2 2py   0.86194
                                    2 2pz   0.35413     4 1s    1.76559     5 1s   -1.76570
   14.1    -0.00000     0.43212     1 1s    1.93267     1 2px   1.81255     1 2py  -0.53954     1 2pz  -0.74530     2 1s   -1.93258
                                    2 2px   1.81260     2 2py  -0.53956     2 2pz  -0.74532     3 1s    0.63941     6 1s   -0.63956
   15.1    -0.00000     0.70016     1 2px  -0.53401     1 2px   0.91723     2 2px   0.53395     2 2px  -0.91724     4 1s   -0.51413
                                    5 1s   -0.51404
   16.1    -0.00000     0.75350     1 1s   -0.48082     1 2py  -0.36443     1 2px  -0.68497     1 2py   0.83120     2 1s    0.48088
                                    2 2py  -0.36402     2 2px  -0.68498     2 2py   0.83037     3 1s   -0.47987     4 1s    0.26427
                                    5 1s   -0.26399     6 1s    0.47980
   17.1    -0.00000     0.78186     1 2py   0.55472     1 2pz   0.25128     1 2py  -1.19143     1 2pz  -0.30452     2 2py  -0.55495
                                    2 2pz  -0.25133     2 2py   1.19203     2 2pz   0.30470     4 1s   -0.29902     5 1s   -0.29918
   18.1    -0.00000     0.79876     1 1s   -0.39242     1 2pz  -0.72622     1 2pz   0.78383     2 1s    0.39249     2 2pz  -0.72616
                                    2 2pz   0.78372
   19.1    -0.00000     0.86385     1 1s   -0.31798     1 2px  -0.25472     1 2pz  -0.66322     1 2px   0.50458     1 2py  -0.53122
                                    1 2pz   1.01984     2 1s   -0.31801     2 2px   0.25477     2 2pz   0.66326     2 2px  -0.50485
                                    2 2py   0.53138     2 2pz  -1.01979     3 1s    0.27972     6 1s    0.27981
   20.1    -0.00000     0.97921     1 2px   0.69912     1 2py   0.38774     1 2px  -1.01066     1 2py  -0.86214     2 2px   0.69909
                                    2 2py   0.38783     2 2px  -1.01078     2 2py  -0.86234     4 1s   -1.08141     5 1s    1.08149
   21.1    -0.00000     1.09316     1 1s   -0.63405     1 1s    1.16259     1 2px   0.26495     1 2py   0.43611     1 2px  -0.34466
                                    1 2py  -0.44988     2 1s   -0.63412     2 1s    1.16325     2 2px  -0.26481     2 2py  -0.43597
                                    2 2px   0.34408     2 2py   0.44990     4 1s    0.65594     4 1s   -1.17234     5 1s    0.65552
                                    5 1s   -1.17183
   22.1    -0.00000     1.13431     1 2px  -0.29074     1 2py   0.61402     1 2px   0.26462     1 2py  -0.81797     2 2px  -0.29061
                                    2 2py   0.61412     2 2px   0.26456     2 2py  -0.81812     3 1s   -0.26528     3 1s    0.80787
                                    4 1s    0.62664     4 1s   -0.99824     5 1s   -0.62686     5 1s    0.99847     6 1s    0.26518
                                    6 1s   -0.80782
   23.1    -0.00000     1.15478     1 1s    0.65844     1 2px  -0.37460     1 2px   1.21007     1 2py  -0.49953     2 1s   -0.65763
                                    2 2px  -0.37493     2 2px   1.21036     2 2py  -0.49948     3 1s   -0.57526     3 1s    1.06976
                                    4 1s   -0.52181     4 1s    0.47991     5 1s    0.52223     5 1s   -0.48043     6 1s    0.57568
                                    6 1s   -1.07026
   24.1    -0.00000     1.19658     1 1s   -0.64108     1 1s    1.00411     1 2px   0.28699     1 2py  -0.32108     1 2px  -0.29505
                                    1 2py   0.31565     2 1s   -0.64075     2 1s    1.00386     2 2px  -0.28691     2 2py   0.32106
                                    2 2px   0.29461     2 2py  -0.31546     3 1s    0.76228     3 1s   -1.09134     6 1s    0.76197
                                    6 1s   -1.09072
   25.1    -0.00000     1.26316     1 1s    1.63328     1 1s   -5.07256     1 2px  -1.17805     1 2py   0.72257     1 2pz   1.20477
                                    2 1s   -1.64061     2 1s    5.08603     2 2px  -1.17460     2 2py   0.71909     2 2pz   1.21084
                                    3 1s    0.54536     4 1s    0.72422     5 1s   -0.72671     6 1s   -0.55113
   26.1    -0.00000     1.26683     1 1s   -1.21712     1 1s    2.24601     1 2px  -0.54787     1 2py   0.58528     1 2pz  -1.01726
                                    2 1s   -1.20726     2 1s    2.21481     2 2px   0.55527     2 2py  -0.58974     2 2pz   1.00968
                                    3 1s   -0.43965     3 1s   -0.94409     4 1s   -0.39897     4 1s   -0.42456     5 1s   -0.39798
                                    5 1s   -0.42019     6 1s   -0.43947     6 1s   -0.94080
   27.1    -0.00000     1.70239     1 1s    0.67749     1 3d0   0.36994     1 3d2- -0.29076     1 3d2+ -0.32035     2 1s   -0.67721
                                    2 3d0  -0.36984     2 3d2-  0.29075     2 3d2+  0.32046
   28.1    -0.00000     1.90270     1 1s    0.29316     1 1s   -0.63992     1 2pz   0.33771     1 3d0   0.34472     1 3d1+  0.33293
                                    1 3d2+  0.35722     1 3d1-  0.32390     2 1s    0.29310     2 1s   -0.63950     2 2pz  -0.33755
                                    2 3d0   0.34474     2 3d1+  0.33291     2 3d2+  0.35716     2 3d1-  0.32401     3 1s    0.27281
                                    6 1s    0.27279
   29.1    -0.00000     1.95232     1 1s   -0.29237     1 1s    1.35520     1 2px   0.30645     1 2pz  -0.35762     1 3d2- -0.31457
                                    1 3d1+  0.39202     1 3d1-  0.39303     2 1s    0.29233     2 1s   -1.35519     2 2px   0.30636
                                    2 2pz  -0.35761     2 3d2-  0.31451     2 3d1+ -0.39197     2 3d1- -0.39304     3 1s   -0.33422
                                    6 1s    0.33424
   30.1    -0.00000     2.16748     1 1s    0.32091     1 1s   -1.55808     1 2px  -0.34916     1 2py   0.28229     1 2pz   0.42254
                                    1 3d0   0.55714     1 3d2+  0.37172     2 1s   -0.32083     2 1s    1.55803     2 2px  -0.34903
                                    2 2py   0.28224     2 2pz   0.42255     2 3d0  -0.55702     2 3d2+ -0.37175     3 1s    0.34439
                                    4 1s    0.32604     5 1s   -0.32596     6 1s   -0.34444
   31.1    -0.00000     2.24974     1 1s    0.49653     1 1s   -0.34954     1 2px   0.26816     1 2px  -0.27668     1 3d2-  0.33000
                                    1 3d1+  0.40668     1 3d2+ -0.38074     2 1s    0.49652     2 1s   -0.34956     2 2px  -0.26815
                                    2 2px   0.27674     2 3d2-  0.32992     2 3d1+  0.40671     2 3d2+ -0.38072
   32.1    -0.00000     2.34654     1 2py   0.35791     1 3d0   0.52952     1 3d2- -0.35730     1 3d1- -0.36280     2 2py  -0.35808
                                    2 3d0   0.52971     2 3d2- -0.35737     2 3d1- -0.36285     3 1s   -0.28182     4 1s    0.37779
                                    5 1s    0.37796     6 1s   -0.28175
   33.1    -0.00000     2.57222     1 2py  -0.28941     1 3d2-  0.47234     1 3d1-  0.60592     2 2py  -0.28936     2 3d2- -0.47235
                                    2 3d1- -0.60581     3 1s    0.49900     4 1s   -0.39845     5 1s    0.39850     6 1s   -0.49886
   34.1    -0.00000     2.65271     1 2py   0.31149     1 3d2-  0.47161     1 3d2+  0.50383     1 3d1- -0.50420     2 2py  -0.31151
                                    2 3d2-  0.47160     2 3d2+  0.50381     2 3d1- -0.50414     4 1s    0.36288     5 1s    0.36285
   35.1    -0.00000     2.74219     1 3d0  -0.41203     1 3d2- -0.44854     1 3d1+  0.50274     1 3d1- -0.31027     2 3d0  -0.41203
                                    2 3d2- -0.44855     2 3d1+  0.50284     2 3d1- -0.31025     3 1s   -0.47436     6 1s   -0.47441
   36.1    -0.00000     2.95967     1 1s   -1.77509     1 2px  -0.43864     1 2px  -0.89403     1 2py   0.25775     1 2pz   0.45486
                                    1 3d2-  0.35476     1 3d1+  0.70295     1 3d2+ -0.63923     2 1s    1.77508     2 2px  -0.43864
                                    2 2px  -0.89403     2 2py   0.25772     2 2pz   0.45486     2 3d2- -0.35483     2 3d1+ -0.70290
                                    2 3d2+  0.63924


 Natural orbital dump (state averaged) at molpro section  2140.2    (Orbital set 2)



 **********************************************************************************************************************************
 DATASETS  * FILE   NREC   LENGTH (MB)   RECORD NAMES
              1      20       31.86       500      610      700      900      950      970     1000      129      960     1100   
                                          VAR    BASINP    GEOM    SYMINP    ZMAT    AOBASIS   BASIS     P2S    ABASIS      S 
                                         1400     1410     1200     1210     1080     1600     1650     1300     1700     1380   
                                           T        V       H0       H01     AOSYM     SMH    MOLCAS    ERIS     OPER     JKOP   

              2       5        5.42       700     1000      520     2100     2140   
                                         GEOM     BASIS   MCVARS     RHF     MCSCF   

 PROGRAMS   *        TOTAL     MULTI    HF-SCF       INT
 CPU TIMES  *         0.77      0.34      0.14      0.19
 REAL TIME  *         1.24 SEC
 DISK USED  *        39.05 MB
 **********************************************************************************************************************************
 Molecular orbitals read from record     2140.2  Type=MCSCF/NATURAL (state averaged)
 Occupation numbers read from record     2140.2  Type=MCSCF/NATURAL (state averaged)
 Orbital energies read from record       2140.2  Type=MCSCF/NATURAL (state averaged)
 Redundancy group numbers read from rec  2140.2  Type=MCSCF/NATURAL (state averaged)

 MULTI/6-31G* energy=    -77.565115474957

           MULTI          HF-SCF
    -77.56511547    -77.83427392
 **********************************************************************************************************************************
 Molpro calculation terminated
