
 Primary working directories    : /scratch.local/johan406.molpro_temp/molpro.jXzUwUU4qY
 Secondary working directories  : /scratch.local/johan406.molpro_temp/molpro.jXzUwUU4qY
 Wavefunction directory         : /home/goodpast/johan406/wfu/
 Main file repository           : /scratch.local/johan406.molpro_temp/molpro.jXzUwUU4qY/

 id        : roweumn

 Nodes     nprocs
 cn0391       1

 Using customized tuning parameters: mindgm=1; mindgv=20; mindgc=4; mindgr=1; noblas=0; minvec=7
 default implementation of scratch files=df  


 Variables initialized (934), CPU time= 0.00 sec
                                                                                 !leave this line blank
 
 gprint, orbitals=30
 memory, 125., m
 symmetry, nosym
 nelect=16
 basis=6-31g*
 
 geometry={
 C -0.6338 0.1475 0.3035
 C 0.628 -0.1778 -0.3541
 H -1.3159 0.8354 -0.2086
 H -0.8255 -0.9077 -0.1472
 H 1.1077 0.7748 0.0673
 H 1.2272 -1.0073 0.0408
 }
 
 hf
 {multi,
 closed 7
 occ 9
 wf,spin=0;STATE,3
 }
 
 Commands  initialized (763), CPU time= 0.01 sec, 617 directives.
 Default parameters read. Elapsed time= 0.08 sec

 Checking input...
 Passed
1


                                         ***  PROGRAM SYSTEM MOLPRO  ***
                                       Copyright, TTI GmbH Stuttgart, 2015
                                    Version 2019.2 linked Oct 25 2019 22:50:27


 **********************************************************************************************************************************
 LABEL *                                                                                 
  64 bit serial version                                                                  DATE: 07-Feb-23          TIME: 14:54:49  
 **********************************************************************************************************************************

 SHA1:             8dbd9ae1082e4ce945b0f27595c9eb2d4aa09004
 **********************************************************************************************************************************


 Variable memory set to  125000000 words,  buffer space 

 SETTING NELECT         =        16.00000000                                  
 SETTING BASIS          =    6-31G*
 ZSYMEL=NOSYM


Geometry recognized as XYZ



 Recomputing integrals since basis changed


 Using spherical harmonics

 Library entry C      S 6-31G                selected for orbital group  1
 Library entry C      P 6-31G                selected for orbital group  1
 Library entry C      D 6-31G*               selected for orbital group  1
 Library entry H      S 6-31G                selected for orbital group  2


 PROGRAM * SEWARD (Integral evaluation for generally contracted gaussian basis sets)     Author: Roland Lindh, 1990

 Geometry written to block  1 of record 700


 Point group  C1  



 ATOMIC COORDINATES

 NR  ATOM    CHARGE       X              Y              Z

   1  C       6.00   -1.197708418    0.278734603    0.573531879
   2  C       6.00    1.186748006   -0.335993305   -0.669152021
   3  H       1.00   -2.486690607    1.578677204   -0.394196870
   4  H       1.00   -1.559968916   -1.715304403   -0.278167686
   5  H       1.00    2.093249628    1.464159801    0.127178568
   6  H       1.00    2.319071900   -1.903521125    0.077100826

 Bond lengths in Bohr (Angstrom)

 1-2  2.758221549  1-3  2.070706348  1-4  2.198366752  2-5  2.167126854  2-6  2.072726267
     ( 1.459587986)     ( 1.095770610)     ( 1.163325586)     ( 1.146794145)     ( 1.096839505)

 Bond angles

  1-2-5   90.62614897   1-2-6  118.59456695   2-1-3  117.87147040   2-1-4   76.45262015

  3-1-4  106.60620172   5-2-6  105.50893623

 NUCLEAR CHARGE:                   16
 NUMBER OF PRIMITIVE AOS:          72
 NUMBER OF SYMMETRY AOS:           70
 NUMBER OF CONTRACTIONS:           36   (   36A   )
 NUMBER OF CORE ORBITALS:           2   (    2A   )
 NUMBER OF VALENCE ORBITALS:       12   (   12A   )


 NUCLEAR REPULSION ENERGY   32.30007276

 Eigenvalues of metric

         1 0.943E-02 0.278E-01 0.597E-01 0.644E-01 0.812E-01 0.219E+00 0.237E+00 0.272E+00


 Contracted 2-electron integrals neglected if value below      1.0D-11
 AO integral compression algorithm  1   Integral accuracy      1.0D-11

     1.573 MB (compressed) written to integral file ( 59.2%)


 NUMBER OF SORTED TWO-ELECTRON INTEGRALS:     222111.     BUFFER LENGTH:  32768
 NUMBER OF SEGMENTS:   1  SEGMENT LENGTH:     222111      RECORD LENGTH: 524288

 Memory used in sort:       0.78 MW

 SORT1 READ      284735. AND WROTE      212531. INTEGRALS IN      1 RECORDS. CPU TIME:     0.00 SEC, REAL TIME:     0.00 SEC
 SORT2 READ      212531. AND WROTE      222111. INTEGRALS IN      6 RECORDS. CPU TIME:     0.02 SEC, REAL TIME:     0.02 SEC

 FILE SIZES:   FILE 1:    31.7 MBYTE,  FILE 4:     4.2 MBYTE,   TOTAL:     35.9 MBYTE

 OPERATOR DM      FOR CENTER  0  COORDINATES:    0.000000    0.000000    0.000000


 **********************************************************************************************************************************
 DATASETS  * FILE   NREC   LENGTH (MB)   RECORD NAMES
              1      19       31.13       500      610      700      900      950      970     1000      129      960     1100   
                                          VAR    BASINP    GEOM    SYMINP    ZMAT    AOBASIS   BASIS     P2S    ABASIS      S 
                                         1400     1410     1200     1210     1080     1600     1650     1300     1700   
                                           T        V       H0       H01     AOSYM     SMH    MOLCAS    ERIS     OPER   

 PROGRAMS   *        TOTAL       INT
 CPU TIMES  *         0.37      0.27
 REAL TIME  *         0.65 SEC
 DISK USED  *        36.24 MB
 **********************************************************************************************************************************


 PROGRAM * RHF-SCF (CLOSED SHELL)       Authors: W. Meyer, H.-J. Werner


 NUMBER OF ELECTRONS:       8+    8-    SPACE SYMMETRY=1    SPIN SYMMETRY: Singlet 
 CONVERGENCE THRESHOLDS:    1.00E-05 (Density)    1.00E-07 (Energy)
 MAX. NUMBER OF ITERATIONS:       60
 INTERPOLATION TYPE:            DIIS
 INTERPOLATION STEPS:              2 (START)      1 (STEP)
 LEVEL SHIFTS:                  0.00 (CLOSED)  0.00 (OPEN) 



 Orbital guess generated from atomic densities. Full valence occupancy:    8

 Molecular orbital dump at record        2100.2

 Initial occupancy:   8

 ITERATION    DDIFF          GRAD             ENERGY        2-EL.EN.            DIPOLE MOMENTS         DIIS   ORB.
    1      0.000D+00      0.000D+00       -77.82331611    115.780534    0.07027   -0.09152   -0.12022    0    start
    2      0.000D+00      0.706D-02       -77.84134372    114.783259    0.01702    0.00736   -0.02112    1    diag
    3      0.775D-02      0.240D-02       -77.84343590    115.180918    0.07675   -0.03161   -0.10646    2    diag
    4      0.306D-02      0.108D-02       -77.84394939    115.087619    0.04037   -0.00362   -0.04978    3    diag
    5      0.170D-02      0.472D-03       -77.84406954    115.062511    0.05756   -0.01349   -0.07395    4    diag
    6      0.638D-03      0.228D-03       -77.84414985    115.072317    0.05645   -0.01243   -0.07079    5    diag
    7      0.719D-03      0.990D-04       -77.84417718    115.072775    0.05719   -0.01414   -0.07172    6    diag
    8      0.475D-03      0.345D-04       -77.84418036    115.073958    0.05700   -0.01446   -0.07164    7    diag
    9      0.172D-03      0.116D-04       -77.84418065    115.074197    0.05674   -0.01474   -0.07160    8    diag
   10      0.529D-04      0.348D-05       -77.84418067    115.074198    0.05664   -0.01478   -0.07158    9    orth
   11      0.120D-04      0.776D-06       -77.84418067    115.074191    0.05660   -0.01478   -0.07156    9    diag
   12      0.215D-05      0.202D-06       -77.84418067    115.074192    0.05660   -0.01478   -0.07157    0    orth

 Final occupancy:   8

 !RHF STATE  1.1 Energy               -77.844180666071
 Nuclear energy                        32.30007276
 One-electron energy                 -167.68134966
 Two-electron energy                   57.53709624
 Virial quotient                       -1.00158136
 !RHF STATE  1.1 Dipole moment          0.05660188    -0.01478455    -0.07156525
 Dipole moment /Debye                   0.14385822    -0.03757611    -0.18188880

 ELECTRON ORBITALS
 =================

  Orbital  Occupation    Energy     Coefficients
    1.1     2.00000   -11.26750     2 1s    0.99555
    2.1     2.00000   -11.25659     1 1s    0.99555
    3.1     2.00000    -1.03802     1 1s    0.27876     2 1s    0.28676     2 1s    0.25492
    4.1     2.00000    -0.78241     1 1s   -0.29585     2 1s    0.29450
    5.1     2.00000    -0.62178     1 2py   0.29513     2 2py   0.31336
    6.1     2.00000    -0.56103     1 2px   0.31596     2 2px  -0.28451
    7.1     2.00000    -0.39302     1 2pz   0.31475     1 2pz   0.28364     2 2pz   0.29697     2 2pz   0.27962
    8.1     2.00000    -0.38324     1 2px   0.27937     1 2py   0.25910     4 1s   -0.30791     5 1s   -0.26901
    9.1     0.00000     0.06234     1 1s   -0.40555     1 2pz  -0.32392     1 2pz  -0.45467     2 1s   -0.39232     2 2pz   0.33667
                                    2 2pz   0.47634
   10.1     0.00000     0.22904     1 1s   -0.92232     1 2px   0.44464     1 2py   0.48668     1 2pz   0.40803     2 1s   -1.21641
                                    2 2px  -0.48384     2 2pz  -0.42276     3 1s    0.42357     4 1s    1.12972     5 1s    1.00877
                                    6 1s    0.68430
   11.1     0.00000     0.28137     1 1s    1.64311     1 2pz  -0.56078     2 1s   -1.44617     2 2py   0.45171     2 2pz  -0.35443
                                    3 1s   -1.48498     6 1s    1.38557
   12.1     0.00000     0.31104     1 1s   -0.98549     1 2px   0.43677     1 2py  -0.81759     1 2pz   0.53350     2 1s   -0.47348
                                    2 2px  -0.27867     2 2py   1.17330     2 2pz  -0.32952     3 1s    1.51662     5 1s   -0.76023
                                    6 1s    1.51158
   13.1     0.00000     0.33358     1 1s   -0.80297     1 2py   0.85786     2 1s    1.19107     2 2px   0.49375     2 2py   0.60418
                                    2 2pz   0.45129     3 1s   -0.31572     4 1s    1.67526     5 1s   -1.62658     6 1s   -0.36539
   14.1     0.00000     0.42424     1 1s    2.04935     1 2px   1.80743     1 2py  -0.58421     1 2pz  -0.76457     2 1s   -2.02344
                                    2 2px   1.76796     2 2py  -0.65371     2 2pz  -0.82005     3 1s    0.61463     6 1s   -0.60019
   15.1     0.00000     0.70483     1 2px  -0.55735     1 2px   0.92136     2 2px   0.54509     2 2px  -0.95358     4 1s   -0.52697
                                    5 1s   -0.31219     6 1s    0.25375
   16.1     0.00000     0.76323     1 2py  -0.46740     1 2px  -0.69176     1 2py   0.89326     2 1s    0.35179     2 2py  -0.30313
                                    2 2px  -0.50072     2 2py   0.67159     3 1s   -0.50551     4 1s    0.26872     6 1s    0.44951
   17.1     0.00000     0.78810     1 2py   0.54100     1 2pz   0.46015     1 2py  -1.11102     1 2pz  -0.46096     2 1s   -0.36671
                                    2 2py  -0.54318     2 2py   1.15067     4 1s   -0.34209     6 1s    0.25703
   18.1     0.00000     0.80163     1 2pz   0.54640     1 2py   0.29633     1 2pz  -0.48802     2 2py   0.26072     2 2pz   0.82274
                                    2 2py  -0.56927     2 2pz  -0.79607
   19.1     0.00000     0.86336     1 1s   -0.38511     1 2px  -0.25577     1 2pz  -0.74501     1 2px   0.51337     1 2py  -0.48966
                                    1 2pz   1.00651     2 1s   -0.32444     2 2pz   0.62787     2 2px  -0.38794     2 2py   0.52060
                                    2 2pz  -0.90410
   20.1     0.00000     0.97215     1 1s    0.29600     1 2px  -0.69762     1 2py  -0.35353     1 2px   1.02715     1 2py   0.65992
                                    2 1s   -0.30280     2 2px  -0.72655     2 2py  -0.38494     2 2px   1.31231     2 2py   0.85112
                                    4 1s    1.06431     5 1s   -1.00265
   21.1     0.00000     1.09905     1 1s   -0.45558     1 1s    0.52512     1 2py   0.49231     1 2px  -0.49666     1 2py  -0.44093
                                    2 1s   -0.72996     2 1s    1.63369     2 2px  -0.25202     2 2py  -0.35350     2 2py   0.49861
                                    2 2pz   0.25891     4 1s    0.81090     4 1s   -1.28542     5 1s    0.44533     5 1s   -1.02766
   22.1     0.00000     1.12951     1 1s   -0.52728     1 2px   0.42273     1 2py  -0.49613     1 2px  -0.71306     1 2py   0.76897
                                    2 2px   0.32556     2 2py  -0.69694     2 2px  -0.66923     2 2py   1.14543     3 1s    0.47700
                                    3 1s   -0.98337     4 1s   -0.25336     4 1s    0.69117     5 1s    0.41786     5 1s   -0.72644
                                    6 1s   -0.50163     6 1s    1.34346
   23.1     0.00000     1.17274     1 1s    0.45634     1 1s   -0.34508     1 2pz  -0.27194     1 2px   0.70191     2 1s   -0.42182
                                    2 1s    0.29535     2 2px  -0.27967     2 2px   0.74683     3 1s   -0.40809     3 1s    0.79773
                                    4 1s   -0.51942     4 1s    0.75127     5 1s    0.85204     5 1s   -1.04102     6 1s    0.39238
                                    6 1s   -0.64432
   24.1     0.00000     1.18496     1 1s   -0.70748     1 1s    1.17246     1 2px   0.32429     1 2py  -0.32276     1 2px  -0.31588
                                    1 2py   0.34708     2 1s   -0.62115     2 1s    0.95855     2 2px  -0.28750     2 2py   0.26041
                                    2 2px   0.34861     3 1s    0.77522     3 1s   -1.18734     6 1s    0.71916     6 1s   -1.00763
   25.1     0.00000     1.25010     1 1s   -1.46090     1 1s    3.13680     1 2px  -0.30234     1 2py   0.32248     1 2pz  -1.25807
                                    2 1s   -0.85510     2 1s    1.01383     2 2px   0.71053     2 2py  -0.72629     2 2pz   0.64402
                                    3 1s   -0.41400     3 1s   -1.02914     4 1s   -0.52501     4 1s   -0.47663     5 1s   -0.34119
                                    6 1s   -0.45503     6 1s   -0.65369
   26.1     0.00000     1.29669     1 1s    1.31340     1 1s   -4.50122     1 2px  -1.41649     1 2py   0.80963     1 2pz   0.94175
                                    2 1s   -1.76864     2 1s    5.32980     2 2px  -1.04868     2 2py   0.63230     2 2pz   1.39143
                                    4 1s    0.65181     5 1s   -0.44409     5 1s   -0.59582     6 1s   -0.65019
   27.1     0.00000     1.70298     1 1s    0.46270     1 3d0   0.42040     1 3d2- -0.32134     1 3d2+ -0.25297     2 1s   -0.39258
                                    2 3d0  -0.26022     2 3d1+  0.26178     2 3d2+  0.39948     2 3d1- -0.25245
   28.1     0.00000     1.92639     1 1s    0.39876     1 1s   -1.07573     1 2pz   0.48017     1 3d0   0.33650     1 3d1+  0.29250
                                    1 3d2+  0.35394     1 3d1-  0.31029     2 2px  -0.26176     2 2py   0.37983     2 3d0   0.32963
                                    2 3d1+  0.36940     2 3d2+  0.31653     2 3d1-  0.34930     3 1s    0.28960     3 1s    0.26301
                                    4 1s    0.25071     6 1s    0.30906
   29.1     0.00000     1.94208     1 1s   -0.31176     1 1s    1.34181     1 2px   0.32768     1 2pz  -0.35713     1 3d2- -0.26398
                                    1 3d1+  0.43899     1 3d1-  0.45543     2 1s    0.30069     2 1s   -1.33998     2 2px   0.28295
                                    2 2pz  -0.33914     2 3d2-  0.33478     2 3d1+ -0.32952     2 3d1- -0.32259     3 1s   -0.31682
                                    6 1s    0.33304
   30.1     0.00000     2.16482     1 1s    1.26681     1 2px   0.31556     1 2pz  -0.30987     1 3d0  -0.44631     1 3d2+ -0.41497
                                    2 1s    0.48789     2 1s   -1.65516     2 2px   0.34562     2 2py  -0.30764     2 2pz  -0.46631
                                    2 3d0   0.65464     2 3d1+  0.27695     2 3d2+  0.26389     3 1s   -0.30070     4 1s   -0.26569
                                    5 1s    0.32830     6 1s    0.31551
   31.1     0.00000     2.25499     1 1s   -0.59228     1 1s    0.85919     1 2px  -0.25457     1 2px   0.42373     1 2pz  -0.25704
                                    1 3d0  -0.26486     1 3d2- -0.39989     1 3d1+ -0.38100     1 3d2+  0.31925     2 1s   -0.33695
                                    2 1s   -0.28847     2 3d1+ -0.35304     2 3d2+  0.45386
   32.1     0.00000     2.35415     1 2py   0.37710     1 3d0   0.56136     1 3d2- -0.31035     1 3d1- -0.38475     2 2py  -0.33234
                                    2 3d0   0.47451     2 3d2- -0.37303     2 3d1- -0.33219     3 1s   -0.29572     4 1s    0.42511
                                    5 1s    0.38022     6 1s   -0.25568
   33.1     0.00000     2.56602     1 1s   -0.26822     1 2px  -0.27564     1 3d2- -0.52684     1 3d1- -0.41932     2 1s    0.26903
                                    2 2py   0.42360     2 3d2-  0.43006     2 3d1-  0.70994     3 1s   -0.47160     5 1s   -0.53203
                                    6 1s    0.45396
   34.1     0.00000     2.63491     1 2py  -0.35590     1 3d2- -0.34623     1 3d2+ -0.55415     1 3d1-  0.64452     2 1s    0.27589
                                    2 3d2- -0.50576     2 3d2+ -0.45891     2 3d1-  0.33423     4 1s   -0.45113
   35.1     0.00000     2.71443     1 3d0  -0.38425     1 3d2- -0.49092     1 3d1+  0.52836     2 3d0  -0.43019     2 3d2- -0.51955
                                    2 3d1+  0.46619     3 1s   -0.47620     6 1s   -0.46422
   36.1     0.00000     2.95793     1 1s   -1.72793     1 2px  -0.43600     1 2px  -0.88096     1 2pz   0.44207     1 3d2-  0.32932
                                    1 3d1+  0.70246     1 3d2+ -0.63738     2 1s    1.73789     2 2px  -0.43865     2 2px  -0.88263
                                    2 2pz   0.44483     2 3d2- -0.36115     2 3d1+ -0.69632     2 3d2+  0.64183


 HOMO      8.1    -0.383238 =     -10.4284eV
 LUMO      9.1     0.062341 =       1.6964eV
 LUMO-HOMO         0.445579 =      12.1248eV


 **********************************************************************************************************************************
 DATASETS  * FILE   NREC   LENGTH (MB)   RECORD NAMES
              1      19       31.13       500      610      700      900      950      970     1000      129      960     1100   
                                          VAR    BASINP    GEOM    SYMINP    ZMAT    AOBASIS   BASIS     P2S    ABASIS      S 
                                         1400     1410     1200     1210     1080     1600     1650     1300     1700   
                                           T        V       H0       H01     AOSYM     SMH    MOLCAS    ERIS     OPER   

              2       4        2.86       700     1000      520     2100   
                                         GEOM     BASIS   MCVARS     RHF  

 PROGRAMS   *        TOTAL    HF-SCF       INT
 CPU TIMES  *         0.53      0.16      0.27
 REAL TIME  *         0.88 SEC
 DISK USED  *        36.24 MB
 **********************************************************************************************************************************


 PROGRAM * MULTI (Direct Multiconfiguration SCF)       Authors: P.J. Knowles, H.-J. Werner (1984)


 Number of closed-shell orbitals:   7 (   7 )
 Number of active  orbitals:        2 (   2 )
 Number of external orbitals:      27 (  27 )

 State symmetry 1

 Number of electrons:     2    Spin symmetry=Singlet   Space symmetry=1
 Number of states:        3
 Number of CSFs:          3   (4 determinants, 4 intermediate states)

 Molecular orbitals read from record     2100.2  Type=RHF/CANONICAL (state 1.1)

 Wavefunction dump at record             2140.2

 Convergence thresholds  0.10E-01 (gradient)  0.10E-05 (energy)  0.10E-02 (step length)

 Weight factors for state symmetry  1:    0.33333   0.33333   0.33333

 Number of orbital rotations:      257   (    14 Core/Active    189 Core/Virtual   0 Active/Active     54 Active/Virtual)
 Total number of variables:        269

 Micro-Iterations solved by the two-step solver

 ITER. MIC  NCI  NEG     ENERGY(VAR)     ENERGY(PROJ)   ENERGY CHANGE     GRAD(0)  GRAD(ORB)   GRAD(CI)     STEP       TIME

   1   12    6    0     -77.69003601     -77.71016821   -0.02013220    0.16557187 0.00146626 0.00000000  0.15D+00      0.16
   2    7    5    0     -77.70980641     -77.70984786   -0.00004145    0.00956565 0.00001854 0.00000000  0.66D-02      0.26
   3    8    5    0     -77.70984795     -77.70984795   -0.00000000    0.00002921 0.00000000 0.00000000  0.41D-04      0.36

 ** WVFN ****  CONVERGENCE REACHED, FINAL GRADIENT:  0.59D-09



 Results for state 1.1
 =====================

 !MCSCF STATE  1.1 Energy             -77.837821240437
 Nuclear energy                        32.30007276
 Kinetic energy                        77.76720545
 One electron energy                 -167.74226271
 Two electron energy                   57.60436871
 Virial ratio                           2.00090804

 !MCSCF STATE  1.1 Dipole moment        0.06242994     0.01700171    -0.08975669
 Dipole moment /Debye                   0.15867068     0.04321121    -0.22812382

 Results for state 2.1
 =====================

 !MCSCF STATE  2.1 Energy             -77.737671986109
 Nuclear energy                        32.30007276
 Kinetic energy                        77.85019707
 One electron energy                 -167.46677976
 Two electron energy                   57.42903501
 Virial ratio                           1.99855459

 !MCSCF STATE  2.1 Dipole moment        0.01018031    -0.08626057    -0.03423680
 Dipole moment /Debye                   0.02587406    -0.21923815    -0.08701558

 Results for state 3.1
 =====================

 !MCSCF STATE  3.1 Energy             -77.554050620551
 Nuclear energy                        32.30007276
 Kinetic energy                        77.92036442
 One electron energy                 -167.24234996
 Two electron energy                   57.38822658
 Virial ratio                           1.99529887

 !MCSCF STATE  3.1 Dipole moment       -0.02649352    -0.15937002     0.02187830
 Dipole moment /Debye                  -0.06733539    -0.40505166     0.05560546

 State-averaged charge density matrix saved on record  2140.2 (density set 1)

 !MCSCF expec         <1.1|DMX|1.1>     0.062429936626 au =     0.158670678331 Debye
 !MCSCF trans         <2.1|DMX|1.1>     0.030507820737 au =     0.077538067029 Debye
 !MCSCF expec         <2.1|DMX|2.1>     0.010180306397 au =     0.025874063134 Debye
 !MCSCF trans         <3.1|DMX|1.1>     0.006896047462 au =     0.017526856309 Debye
 !MCSCF trans         <3.1|DMX|2.1>     0.037191353746 au =     0.094524800854 Debye
 !MCSCF expec         <3.1|DMX|3.1>    -0.026493515669 au =    -0.067335389555 Debye

 !MCSCF expec         <1.1|DMY|1.1>     0.017001711082 au =     0.043211208851 Debye
 !MCSCF trans         <2.1|DMY|1.1>     0.058974679735 au =     0.149888866521 Debye
 !MCSCF expec         <2.1|DMY|2.1>    -0.086260573340 au =    -0.219238147989 Debye
 !MCSCF trans         <3.1|DMY|1.1>     0.013553724069 au =     0.034447874020 Debye
 !MCSCF trans         <3.1|DMY|2.1>     0.072074768770 au =     0.183183790810 Debye
 !MCSCF expec         <3.1|DMY|3.1>    -0.159370020923 au =    -0.405051657778 Debye

 !MCSCF expec         <1.1|DMZ|1.1>    -0.089756694541 au =    -0.228123819710 Debye
 !MCSCF trans         <2.1|DMZ|1.1>     0.003470487464 au =     0.008820521528 Debye
 !MCSCF expec         <2.1|DMZ|2.1>    -0.034236804327 au =    -0.087015577141 Debye
 !MCSCF trans         <3.1|DMZ|1.1>    -0.005283559138 au =    -0.013428588233 Debye
 !MCSCF trans         <3.1|DMZ|2.1>    -0.000671840711 au =    -0.001707536914 Debye
 !MCSCF expec         <3.1|DMZ|3.1>     0.021878303363 au =     0.055605458261 Debye


 NATURAL ORBITALS (state averaged)
 =================================

  Orbital  Occupation    Energy     Coefficients
    1.1     2.00000   -11.25852     1 1s    0.99421
    2.1     2.00000   -11.25269     2 1s    0.99420
    3.1     2.00000    -1.05013     1 1s    0.27922     2 1s    0.27590
    4.1     2.00000    -0.78263     1 1s   -0.31863     2 1s    0.32250
    5.1     2.00000    -0.62392     1 2py   0.29804     2 2py   0.29440
    6.1     2.00000    -0.55853     1 2px   0.27624     2 2py   0.26667
    7.1     2.00000    -0.41960     1 2pz   0.32743     1 2pz   0.27651     2 2pz   0.32120     2 2pz   0.28331
    8.1     1.00000    -0.22807     1 2px   0.30951     2 2px  -0.29525     4 1s   -0.31744     5 1s   -0.27939
    9.1     1.00000    -0.08713     1 1s   -0.26931     1 2pz  -0.40223     1 2pz  -0.41805     2 1s   -0.26828     2 2pz   0.40399
                                    2 2pz   0.43818
   10.1    -0.00000     0.21714     1 1s   -1.00521     1 2px   0.43743     1 2py   0.50955     1 2pz   0.37468     2 1s   -1.15805
                                    2 2px  -0.48403     2 2pz  -0.34483     3 1s    0.43382     4 1s    1.17144     5 1s    0.98674
                                    6 1s    0.62018
   11.1    -0.00000     0.28025     1 1s    1.74820     1 2pz  -0.57504     2 1s   -1.54927     2 2py   0.31387     2 2pz  -0.38389
                                    3 1s   -1.52702     4 1s   -0.25639     6 1s    1.32155
   12.1    -0.00000     0.31157     1 1s   -1.14676     1 2px   0.34121     1 2py  -0.35933     1 2pz   0.49210     2 2py   0.30935
                                    2 2py   1.38479     3 1s    1.09071     4 1s    0.62660     5 1s   -1.33682     6 1s    1.40607
   13.1    -0.00000     0.32064     1 1s   -0.31866     1 2py   0.29551     1 2px  -0.25984     1 2py   1.15169     2 1s    1.36930
                                    2 2px   0.47480     2 2pz   0.55793     3 1s   -1.04742     4 1s    1.52480     5 1s   -1.23237
                                    6 1s   -0.84302
   14.1    -0.00000     0.43097     1 1s    1.92999     1 2px   1.80375     1 2py  -0.48061     1 2pz  -0.71945     2 1s   -1.89971
                                    2 2px   1.79673     2 2py  -0.56013     2 2pz  -0.75975     3 1s    0.60318     6 1s   -0.61173
   15.1    -0.00000     0.70201     1 2px  -0.55013     1 2px   0.88590     2 2px   0.52276     2 2px  -0.93681     4 1s    0.25076
                                    4 1s   -0.58125     5 1s   -0.38266     6 1s    0.25637
   16.1    -0.00000     0.76002     1 1s   -0.32149     1 2py  -0.48932     1 2px  -0.76086     1 2py   0.98923     2 1s    0.48256
                                    2 2py  -0.25644     2 2px  -0.51620     2 2py   0.60322     3 1s   -0.50604     4 1s    0.31141
                                    6 1s    0.42392
   17.1    -0.00000     0.78648     1 2py   0.46837     1 2pz   0.47519     1 2py  -1.02815     1 2pz  -0.56625     2 1s   -0.40234
                                    2 2py  -0.53877     2 2py   1.13883     4 1s   -0.32687     6 1s    0.29612
   18.1    -0.00000     0.80313     1 1s    0.28460     1 2pz   0.57788     1 2py   0.32026     1 2pz  -0.57596     2 2py   0.25716
                                    2 2pz   0.78343     2 2py  -0.61497     2 2pz  -0.81902     5 1s    0.25510
   19.1    -0.00000     0.86155     1 1s   -0.32843     1 2px  -0.27131     1 2pz  -0.68253     1 2px   0.54974     1 2py  -0.47751
                                    1 2pz   1.02330     2 1s   -0.28975     2 2pz   0.64905     2 2px  -0.43136     2 2py   0.51497
                                    2 2pz  -1.00550     3 1s    0.26694     6 1s    0.25467
   20.1    -0.00000     0.97917     1 2px  -0.69507     1 2py  -0.36583     1 2px   0.94913     1 2py   0.67636     2 2px  -0.72095
                                    2 2py  -0.38523     2 2px   1.23996     2 2py   0.86292     4 1s    1.03968     5 1s   -0.94869
   21.1    -0.00000     1.07205     1 1s   -0.51648     1 1s    0.65414     1 2py   0.56242     1 2px  -0.45602     1 2py  -0.55640
                                    2 1s   -0.64149     2 1s    1.42308     2 2px  -0.28785     2 2py  -0.29133     2 2py   0.43627
                                    4 1s    0.87439     4 1s   -1.37751     5 1s    0.34248     5 1s   -0.83582
   22.1    -0.00000     1.11650     1 1s   -0.50532     1 2px   0.33790     1 2py  -0.42444     1 2px  -0.37220     1 2py   0.62054
                                    2 1s    0.43337     2 2py  -0.72919     2 2py   1.06102     3 1s   -0.54172     4 1s   -0.38583
                                    4 1s    0.83306     5 1s    0.81660     5 1s   -1.27257     6 1s    0.80694
   23.1    -0.00000     1.15442     1 1s    0.28345     1 2px  -0.35369     1 2px   0.98643     1 2py  -0.43229     2 1s   -0.45728
                                    2 1s    0.25218     2 2px  -0.43210     2 2px   1.04494     2 2py  -0.51798     3 1s   -0.62134
                                    3 1s    1.17992     4 1s   -0.31053     4 1s    0.29473     5 1s    0.55655     5 1s   -0.62714
                                    6 1s    0.54652     6 1s   -1.18396
   24.1    -0.00000     1.18913     1 1s   -0.70927     1 1s    1.23824     1 2px   0.28685     1 2py  -0.31330     1 2py   0.29413
                                    2 1s   -0.54706     2 1s    0.73693     2 2px  -0.29497     2 2py   0.30800     2 2px   0.38717
                                    2 2py  -0.31626     3 1s    0.75842     3 1s   -1.11088     6 1s    0.76513     6 1s   -1.04324
   25.1    -0.00000     1.24131     1 1s   -1.53128     1 1s    3.28732     1 2px  -0.30800     1 2py   0.32284     1 2pz  -1.27412
                                    2 1s   -0.84899     2 1s    0.97801     2 2px   0.72392     2 2py  -0.75562     2 2pz   0.61825
                                    3 1s   -0.39495     3 1s   -1.07583     4 1s   -0.47585     4 1s   -0.55716     5 1s   -0.33731
                                    6 1s   -0.45491     6 1s   -0.64955
   26.1    -0.00000     1.29133     1 1s    1.26119     1 1s   -4.39904     1 2px  -1.44409     1 2py   0.78394     1 2pz   0.90109
                                    2 1s   -1.82919     2 1s    5.42017     2 2px  -1.03600     2 2py   0.58841     2 2pz   1.39375
                                    4 1s    0.58125     5 1s   -0.43483     5 1s   -0.60519     6 1s   -0.70580
   27.1    -0.00000     1.69847     1 1s    0.49272     1 3d0   0.41568     1 3d2- -0.32942     1 3d2+ -0.25811     2 1s   -0.41270
                                    2 3d0  -0.25396     2 3d1+  0.25821     2 3d2+  0.39740     2 3d1- -0.25129
   28.1    -0.00000     1.92365     1 1s    0.34155     1 1s   -0.87467     1 2pz   0.42101     1 3d0   0.33595     1 3d1+  0.35036
                                    1 3d2+  0.39609     1 3d1-  0.37386     2 1s    0.26147     2 1s   -0.40597     2 2py   0.35627
                                    2 2pz  -0.25141     2 3d0   0.33254     2 3d1+  0.30965     2 3d2+  0.29666     2 3d1-  0.29655
                                    3 1s    0.25031     6 1s    0.30552
   29.1    -0.00000     1.93897     1 1s   -0.35707     1 1s    1.44462     1 2px   0.30197     1 2pz  -0.41041     1 3d2- -0.27234
                                    1 3d1+  0.39575     1 3d1-  0.40884     2 1s    0.25595     2 1s   -1.25632     2 2px   0.30385
                                    2 2pz  -0.29666     2 3d2-  0.35122     2 3d1+ -0.38229     2 3d1- -0.36394     3 1s   -0.35493
                                    6 1s    0.30750
   30.1    -0.00000     2.16641     1 1s    1.23267     1 2px   0.31061     1 2pz  -0.29349     1 3d0  -0.44690     1 3d2+ -0.41667
                                    2 1s    0.49513     2 1s   -1.64306     2 2px   0.33352     2 2py  -0.29759     2 2pz  -0.46432
                                    2 3d0   0.65782     2 3d1+  0.28006     2 3d2+  0.26908     3 1s   -0.29058     4 1s   -0.26367
                                    5 1s    0.31783     6 1s    0.32110
   31.1    -0.00000     2.25068     1 1s   -0.58714     1 1s    0.88052     1 2px  -0.25863     1 2px   0.42116     1 2pz  -0.26846
                                    1 3d0  -0.25398     1 3d2- -0.41225     1 3d1+ -0.38485     1 3d2+  0.32369     2 1s   -0.32508
                                    2 1s   -0.30916     2 2px   0.25355     2 3d1+ -0.35880     2 3d2+  0.44592
   32.1    -0.00000     2.34880     1 2py   0.39555     1 3d0   0.56004     1 3d2- -0.30841     1 3d1- -0.40099     2 2py  -0.34361
                                    2 3d0   0.47487     2 3d2- -0.36027     2 3d1- -0.34215     3 1s   -0.31465     4 1s    0.41647
                                    5 1s    0.36350     6 1s   -0.26333
   33.1    -0.00000     2.56132     1 1s   -0.25896     1 2px  -0.26860     1 3d2- -0.53445     1 3d1- -0.40963     2 1s    0.26437
                                    2 2py   0.43114     2 3d2-  0.42189     2 3d1-  0.71895     3 1s   -0.47454     5 1s   -0.52501
                                    6 1s    0.45130
   34.1    -0.00000     2.62732     1 2py  -0.35949     1 3d2- -0.34400     1 3d2+ -0.54771     1 3d1-  0.64633     2 1s    0.28969
                                    2 3d2- -0.52433     2 3d2+ -0.45342     2 3d1-  0.32807     4 1s   -0.43845
   35.1    -0.00000     2.71991     1 3d0  -0.39307     1 3d2- -0.47257     1 3d1+  0.52873     2 3d0  -0.43990     2 3d2- -0.51215
                                    2 3d1+  0.47424     3 1s   -0.46785     6 1s   -0.46761
   36.1    -0.00000     2.95477     1 1s   -1.75405     1 2px  -0.43003     1 2px  -0.89239     1 2py   0.25540     1 2pz   0.44872
                                    1 3d2-  0.32751     1 3d1+  0.70360     1 3d2+ -0.63118     2 1s    1.76537     2 2px  -0.43202
                                    2 2px  -0.89303     2 2pz   0.45228     2 3d2- -0.35934     2 3d1+ -0.70057     2 3d2+  0.64244


 Natural orbital dump (state averaged) at molpro section  2140.2    (Orbital set 2)



 **********************************************************************************************************************************
 DATASETS  * FILE   NREC   LENGTH (MB)   RECORD NAMES
              1      20       31.86       500      610      700      900      950      970     1000      129      960     1100   
                                          VAR    BASINP    GEOM    SYMINP    ZMAT    AOBASIS   BASIS     P2S    ABASIS      S 
                                         1400     1410     1200     1210     1080     1600     1650     1300     1700     1380   
                                           T        V       H0       H01     AOSYM     SMH    MOLCAS    ERIS     OPER     JKOP   

              2       5        5.42       700     1000      520     2100     2140   
                                         GEOM     BASIS   MCVARS     RHF     MCSCF   

 PROGRAMS   *        TOTAL     MULTI    HF-SCF       INT
 CPU TIMES  *         0.95      0.42      0.16      0.27
 REAL TIME  *         1.36 SEC
 DISK USED  *        39.04 MB
 **********************************************************************************************************************************
 Molecular orbitals read from record     2140.2  Type=MCSCF/NATURAL (state averaged)
 Occupation numbers read from record     2140.2  Type=MCSCF/NATURAL (state averaged)
 Orbital energies read from record       2140.2  Type=MCSCF/NATURAL (state averaged)
 Redundancy group numbers read from rec  2140.2  Type=MCSCF/NATURAL (state averaged)

 MULTI/6-31G* energy=    -77.554050620551

           MULTI          HF-SCF
    -77.55405062    -77.84418067
 **********************************************************************************************************************************
 Molpro calculation terminated
