
 Primary working directories    : /scratch.local/johan406.molpro_temp/molpro.GALzeA5Y8i
 Secondary working directories  : /scratch.local/johan406.molpro_temp/molpro.GALzeA5Y8i
 Wavefunction directory         : /home/goodpast/johan406/wfu/
 Main file repository           : /scratch.local/johan406.molpro_temp/molpro.GALzeA5Y8i/

 id        : roweumn

 Nodes     nprocs
 acn09        1

 Using customized tuning parameters: mindgm=1; mindgv=20; mindgc=4; mindgr=1; noblas=0; minvec=7
 default implementation of scratch files=df  


 Variables initialized (934), CPU time= 0.00 sec
                                                                                 !leave this line blank
 
 gprint, orbitals=30
 memory, 125., m
 symmetry, nosym
 nelect=16
 basis=6-31g*
 
 geometry={
 C -0.6159 0.1456 0.2987
 C 0.6248 -0.1955 -0.359
 H -1.279 0.8793 -0.1576
 H -0.883 -0.8451 -0.1744
 H 0.8919 0.7952 0.114
 H 1.2879 -0.9292 0.0971
 }
 
 hf
 {multi,
 closed 7
 occ 9
 wf,spin=0;STATE,3
 }
 
 Commands  initialized (763), CPU time= 0.02 sec, 617 directives.
 Default parameters read. Elapsed time= 0.09 sec

 Checking input...
 Passed
1


                                         ***  PROGRAM SYSTEM MOLPRO  ***
                                       Copyright, TTI GmbH Stuttgart, 2015
                                    Version 2019.2 linked Oct 25 2019 22:50:27


 **********************************************************************************************************************************
 LABEL *                                                                                 
  64 bit serial version                                                                  DATE: 07-Feb-23          TIME: 15:37:26  
 **********************************************************************************************************************************

 SHA1:             8dbd9ae1082e4ce945b0f27595c9eb2d4aa09004
 **********************************************************************************************************************************


 Variable memory set to  125000000 words,  buffer space 

 SETTING NELECT         =        16.00000000                                  
 SETTING BASIS          =    6-31G*
 ZSYMEL=NOSYM


Geometry recognized as XYZ



 Recomputing integrals since basis changed


 Using spherical harmonics

 Library entry C      S 6-31G                selected for orbital group  1
 Library entry C      P 6-31G                selected for orbital group  1
 Library entry C      D 6-31G*               selected for orbital group  1
 Library entry H      S 6-31G                selected for orbital group  2


 PROGRAM * SEWARD (Integral evaluation for generally contracted gaussian basis sets)     Author: Roland Lindh, 1990

 Geometry written to block  1 of record 700


 Point group  C1  



 ATOMIC COORDINATES

 NR  ATOM    CHARGE       X              Y              Z

   1  C       6.00   -1.163882320    0.275144124    0.564461193
   2  C       6.00    1.180700883   -0.369441457   -0.678411679
   3  H       1.00   -2.416959713    1.661636181   -0.297820837
   4  H       1.00   -1.668628168   -1.597007548   -0.329568236
   5  H       1.00    1.685446730    1.502710214    0.215428778
   6  H       1.00    2.433778276   -1.755933515    0.183492407

 Bond lengths in Bohr (Angstrom)

 1-2  2.730804633  1-3  2.058177223  1-4  2.135183569  2-5  2.135104451  2-6  2.058018909
     ( 1.445079579)     ( 1.089140482)     ( 1.129890486)     ( 1.129848618)     ( 1.089056707)

 Bond angles

  1-2-5   78.78217124   1-2-6  119.41775739   2-1-3  119.40977523   2-1-4   78.78023942

  3-1-4  105.74273720   5-2-6  105.75136254

 NUCLEAR CHARGE:                   16
 NUMBER OF PRIMITIVE AOS:          72
 NUMBER OF SYMMETRY AOS:           70
 NUMBER OF CONTRACTIONS:           36   (   36A   )
 NUMBER OF CORE ORBITALS:           2   (    2A   )
 NUMBER OF VALENCE ORBITALS:       12   (   12A   )


 NUCLEAR REPULSION ENERGY   32.83664770

 Eigenvalues of metric

         1 0.924E-02 0.257E-01 0.560E-01 0.609E-01 0.801E-01 0.213E+00 0.239E+00 0.265E+00


 Contracted 2-electron integrals neglected if value below      1.0D-11
 AO integral compression algorithm  1   Integral accuracy      1.0D-11

     1.573 MB (compressed) written to integral file ( 59.7%)


 NUMBER OF SORTED TWO-ELECTRON INTEGRALS:     222111.     BUFFER LENGTH:  32768
 NUMBER OF SEGMENTS:   1  SEGMENT LENGTH:     222111      RECORD LENGTH: 524288

 Memory used in sort:       0.78 MW

 SORT1 READ      284735. AND WROTE      212531. INTEGRALS IN      1 RECORDS. CPU TIME:     0.01 SEC, REAL TIME:     0.02 SEC
 SORT2 READ      212531. AND WROTE      222111. INTEGRALS IN      6 RECORDS. CPU TIME:     0.02 SEC, REAL TIME:     0.03 SEC

 FILE SIZES:   FILE 1:    31.7 MBYTE,  FILE 4:     4.2 MBYTE,   TOTAL:     35.9 MBYTE

 OPERATOR DM      FOR CENTER  0  COORDINATES:    0.000000    0.000000    0.000000


 **********************************************************************************************************************************
 DATASETS  * FILE   NREC   LENGTH (MB)   RECORD NAMES
              1      19       31.13       500      610      700      900      950      970     1000      129      960     1100   
                                          VAR    BASINP    GEOM    SYMINP    ZMAT    AOBASIS   BASIS     P2S    ABASIS      S 
                                         1400     1410     1200     1210     1080     1600     1650     1300     1700   
                                           T        V       H0       H01     AOSYM     SMH    MOLCAS    ERIS     OPER   

 PROGRAMS   *        TOTAL       INT
 CPU TIMES  *         0.46      0.35
 REAL TIME  *         0.97 SEC
 DISK USED  *        36.24 MB
 **********************************************************************************************************************************


 PROGRAM * RHF-SCF (CLOSED SHELL)       Authors: W. Meyer, H.-J. Werner


 NUMBER OF ELECTRONS:       8+    8-    SPACE SYMMETRY=1    SPIN SYMMETRY: Singlet 
 CONVERGENCE THRESHOLDS:    1.00E-05 (Density)    1.00E-07 (Energy)
 MAX. NUMBER OF ITERATIONS:       60
 INTERPOLATION TYPE:            DIIS
 INTERPOLATION STEPS:              2 (START)      1 (STEP)
 LEVEL SHIFTS:                  0.00 (CLOSED)  0.00 (OPEN) 



 Orbital guess generated from atomic densities. Full valence occupancy:    8

 Molecular orbital dump at record        2100.2

 Initial occupancy:   8

 ITERATION    DDIFF          GRAD             ENERGY        2-EL.EN.            DIPOLE MOMENTS         DIIS   ORB.
    1      0.000D+00      0.000D+00       -77.79700534    116.794363    0.00005    0.00001   -0.00014    0    start
    2      0.000D+00      0.707D-02       -77.81471864    115.740243    0.00012   -0.00001   -0.00013    1    diag
    3      0.807D-02      0.225D-02       -77.81669002    116.163374    0.00013   -0.00001   -0.00014    2    diag
    4      0.298D-02      0.807D-03       -77.81709339    116.034844    0.00015   -0.00001   -0.00014    3    diag
    5      0.166D-02      0.270D-03       -77.81720667    116.041960    0.00015   -0.00001   -0.00014    4    diag
    6      0.933D-03      0.130D-03       -77.81725364    116.043839    0.00016   -0.00001   -0.00015    5    diag
    7      0.578D-03      0.670D-04       -77.81726990    116.046192    0.00015   -0.00000   -0.00013    6    diag
    8      0.434D-03      0.226D-04       -77.81727155    116.047455    0.00017   -0.00002   -0.00017    7    diag
    9      0.165D-03      0.500D-05       -77.81727160    116.047491    0.00013    0.00001   -0.00011    8    diag
   10      0.206D-04      0.137D-05       -77.81727160    116.047493    0.00018   -0.00003   -0.00018    9    orth
   11      0.356D-05      0.822D-06       -77.81727160    116.047492    0.00013    0.00001   -0.00011    0    orth

 Final occupancy:   8

 !RHF STATE  1.1 Energy               -77.817271599216
 Nuclear energy                        32.83664770
 One-electron energy                 -168.67766535
 Two-electron energy                   58.02374605
 Virial quotient                       -0.99952999
 !RHF STATE  1.1 Dipole moment          0.00013181     0.00000627    -0.00010926
 Dipole moment /Debye                   0.00033500     0.00001593    -0.00027770

 ELECTRON ORBITALS
 =================

  Orbital  Occupation    Energy     Coefficients
    1.1     2.00000   -11.25653     1 1s    0.70960     2 1s    0.69922
    2.1     2.00000   -11.25562     1 1s    0.69931     2 1s   -0.70969
    3.1     2.00000    -1.05459     1 1s    0.28096     2 1s    0.28098
    4.1     2.00000    -0.78379     1 1s   -0.29586     2 1s    0.29583
    5.1     2.00000    -0.63227     1 2py   0.30895     2 2py   0.30908
    6.1     2.00000    -0.57036     1 2px   0.29924     2 2px  -0.29925
    7.1     2.00000    -0.39912     1 2pz   0.30765     1 2pz   0.27945     2 2pz   0.30765     2 2pz   0.27946
    8.1     2.00000    -0.36280     1 2px   0.27829     2 2px  -0.27830     4 1s   -0.30292     5 1s   -0.30289
    9.1     0.00000     0.06245     1 1s    0.39976     1 2pz   0.32843     1 2pz   0.46913     2 1s    0.39972     2 2pz  -0.32845
                                    2 2pz  -0.46919
   10.1     0.00000     0.22736     1 1s   -1.08846     1 2px   0.42755     1 2py   0.39348     1 2pz   0.40770     2 1s   -1.08837
                                    2 2px  -0.42759     2 2py  -0.39346     2 2pz  -0.40757     3 1s    0.50385     4 1s    1.11538
                                    5 1s    1.11536     6 1s    0.50382
   11.1     0.00000     0.27938     1 1s   -1.58211     1 2py  -0.33833     1 2pz   0.46299     2 1s    1.58194     2 2py  -0.33793
                                    2 2pz   0.46266     3 1s    1.44361     6 1s   -1.44302
   12.1     0.00000     0.31118     1 1s   -0.82710     1 2px   0.46381     1 2py  -0.96356     1 2pz   0.49627     2 1s   -0.82805
                                    2 2px  -0.46388     2 2py   0.96379     2 2pz  -0.49645     3 1s    1.59930     4 1s   -0.34511
                                    5 1s   -0.34507     6 1s    1.60025
   13.1     0.00000     0.34893     1 1s   -1.00558     1 2px   0.32510     1 2py   0.80375     1 2pz   0.34896     2 1s    1.00566
                                    2 2px   0.32510     2 2py   0.80391     2 2pz   0.34892     4 1s    1.80554     5 1s   -1.80573
   14.1     0.00000     0.42884     1 1s    2.12366     1 2px   1.81878     1 2py  -0.67348     1 2pz  -0.82357     2 1s   -2.12344
                                    2 2px   1.81888     2 2py  -0.67363     2 2pz  -0.82355     3 1s    0.65035     6 1s   -0.65071
   15.1     0.00000     0.70450     1 2px  -0.54801     1 2px   0.95524     2 2px   0.54800     2 2px  -0.95528     3 1s    0.26197
                                    4 1s   -0.48098     5 1s   -0.48092     6 1s    0.26211
   16.1     0.00000     0.75464     1 1s   -0.41564     1 2py  -0.37512     1 2px  -0.63609     1 2py   0.83617     2 1s    0.41531
                                    2 2py  -0.37510     2 2px  -0.63634     2 2py   0.83645     3 1s   -0.47732     4 1s    0.25914
                                    5 1s   -0.25909     6 1s    0.47735
   17.1     0.00000     0.77793     1 2py   0.57671     1 2py  -1.18267     2 2py  -0.57667     2 2py   1.18282     4 1s   -0.31316
                                    5 1s   -0.31320
   18.1     0.00000     0.79664     1 2pz  -0.72507     1 2pz   0.72838     2 2pz  -0.72503     2 2pz   0.72834
   19.1     0.00000     0.86697     1 1s   -0.36627     1 2pz  -0.68850     1 2px   0.48338     1 2py  -0.50961     1 2pz   0.96748
                                    2 1s   -0.36628     2 2pz   0.68848     2 2px  -0.48356     2 2py   0.50964     2 2pz  -0.96741
   20.1     0.00000     0.96987     1 2px   0.68778     1 2py   0.38506     1 2px  -1.02740     1 2py  -0.90527     2 2px   0.68770
                                    2 2py   0.38510     2 2px  -1.02741     2 2py  -0.90536     4 1s   -1.17249     5 1s    1.17268
   21.1     0.00000     1.11427     1 1s   -0.60781     1 1s    1.14519     1 2py   0.44085     1 2px  -0.30211     1 2py  -0.44262
                                    2 1s   -0.60800     2 1s    1.14600     2 2py  -0.44042     2 2px   0.30197     2 2py   0.44213
                                    4 1s    0.65001     4 1s   -1.20252     5 1s    0.64944     5 1s   -1.20171
   22.1     0.00000     1.14293     1 1s    0.49968     1 2px  -0.47541     1 2py   0.48142     1 2px   1.09849     1 2py  -0.91179
                                    2 1s   -0.50185     2 2px  -0.47497     2 2py   0.48123     2 2px   1.09793     2 2py  -0.91163
                                    3 1s   -0.60986     3 1s    1.33847     4 1s   -0.29654     5 1s    0.29725     6 1s    0.60904
                                    6 1s   -1.33702
   23.1     0.00000     1.17079     1 1s   -0.30794     1 1s    1.74836     1 2py  -0.36283     1 2px   0.87917     1 2pz  -0.36097
                                    2 1s    0.30738     2 1s   -1.74757     2 2py  -0.36290     2 2px   0.87949     2 2pz  -0.36124
                                    4 1s   -0.80706     4 1s    0.85580     5 1s    0.80790     5 1s   -0.85653
   24.1     0.00000     1.19440     1 1s   -0.76019     1 1s    1.23799     1 2px   0.30997     1 2py  -0.29273     1 2px  -0.36767
                                    1 2py   0.32170     2 1s   -0.75975     2 1s    1.23693     2 2px  -0.31061     2 2py   0.29391
                                    2 2px   0.36859     2 2py  -0.32336     3 1s    0.71953     3 1s   -1.15492     6 1s    0.72010
                                    6 1s   -1.15639
   25.1     0.00000     1.26230     1 1s    1.60177     1 1s   -4.76124     1 2px  -0.98519     1 2py   0.77241     1 2pz   1.16968
                                    2 1s   -1.60528     2 1s    4.76782     2 2px  -0.98351     2 2py   0.77068     2 2pz   1.17248
                                    3 1s    0.55689     4 1s    0.96506     5 1s   -0.96632     6 1s   -0.55995
   26.1     0.00000     1.29235     1 1s   -1.15871     1 1s    2.19110     1 2px  -0.54199     1 2py   0.59640     1 2pz  -1.03885
                                    2 1s   -1.15421     2 1s    2.17673     2 2px   0.54542     2 2py  -0.59880     2 2pz   1.03510
                                    3 1s   -0.49613     3 1s   -0.90293     4 1s   -0.42339     4 1s   -0.41126     5 1s   -0.42296
                                    5 1s   -0.40900     6 1s   -0.49592     6 1s   -0.90173
   27.1     0.00000     1.72376     1 1s    0.63764     1 3d0   0.40612     1 3d2- -0.27023     1 3d2+ -0.30793     2 1s   -0.63746
                                    2 3d0  -0.40610     2 3d2-  0.27024     2 3d2+  0.30796
   28.1     0.00000     1.89030     1 1s    0.28477     1 1s   -0.62757     1 2pz   0.33176     1 3d0   0.33943     1 3d1+  0.33274
                                    1 3d2+  0.35672     1 3d1-  0.32994     2 1s    0.28452     2 1s   -0.62646     2 2pz  -0.33140
                                    2 3d0   0.33928     2 3d1+  0.33288     2 3d2+  0.35669     2 3d1-  0.33014     3 1s    0.26767
                                    6 1s    0.26772
   29.1     0.00000     1.97349     1 1s   -0.28226     1 1s    1.36949     1 2px   0.30534     1 2pz  -0.36812     1 3d2- -0.32888
                                    1 3d1+  0.38203     1 3d1-  0.40462     2 1s    0.28223     2 1s   -1.36958     2 2px   0.30527
                                    2 2pz  -0.36814     2 3d2-  0.32881     2 3d1+ -0.38184     2 3d1- -0.40448     3 1s   -0.33157
                                    6 1s    0.33166
   30.1     0.00000     2.15336     1 1s    0.28788     1 1s   -1.48611     1 2px  -0.32487     1 2py   0.28289     1 2pz   0.41283
                                    1 3d0   0.53536     1 3d2+  0.38499     2 1s   -0.28787     2 1s    1.48627     2 2px  -0.32476
                                    2 2py   0.28275     2 2pz   0.41292     2 3d0  -0.53537     2 3d2+ -0.38510     3 1s    0.33657
                                    4 1s    0.33437     5 1s   -0.33442     6 1s   -0.33672
   31.1     0.00000     2.25812     1 1s    0.50811     1 1s   -0.36936     1 2px   0.26253     1 2px  -0.27082     1 3d2-  0.33533
                                    1 3d1+  0.41310     1 3d2+ -0.37563     2 1s    0.50813     2 1s   -0.36955     2 2px  -0.26251
                                    2 2px   0.27092     2 3d2-  0.33527     2 3d1+  0.41314     2 3d2+ -0.37562
   32.1     0.00000     2.35595     1 2py   0.32523     1 3d0   0.54592     1 3d2- -0.35095     1 3d1- -0.34157     2 2py  -0.32538
                                    2 3d0   0.54597     2 3d2- -0.35094     2 3d1- -0.34153     3 1s   -0.26169     4 1s    0.37894
                                    5 1s    0.37900     6 1s   -0.26163
   33.1     0.00000     2.56799     1 2py  -0.27537     1 3d2-  0.45809     1 3d1-  0.61018     2 2py  -0.27546     2 3d2- -0.45788
                                    2 3d1- -0.61015     3 1s    0.50343     4 1s   -0.40048     5 1s    0.40058     6 1s   -0.50325
   34.1     0.00000     2.67350     1 2py   0.28755     1 3d2-  0.49289     1 3d2+  0.49270     1 3d1- -0.49455     2 2py  -0.28755
                                    2 3d2-  0.49305     2 3d2+  0.49270     2 3d1- -0.49438     4 1s    0.37131     5 1s    0.37126
   35.1     0.00000     2.75436     1 3d0  -0.39878     1 3d2- -0.42921     1 3d1+  0.49675     1 3d1- -0.34985     2 3d0  -0.39881
                                    2 3d2- -0.42944     2 3d1+  0.49692     2 3d1- -0.35009     3 1s   -0.47614     4 1s    0.26090
                                    5 1s    0.26102     6 1s   -0.47653
   36.1     0.00000     2.96789     1 1s   -1.77906     1 2px  -0.45444     1 2px  -0.89334     1 2py   0.26109     1 2pz   0.45626
                                    1 3d2-  0.36553     1 3d1+  0.70441     1 3d2+ -0.63852     2 1s    1.77903     2 2px  -0.45445
                                    2 2px  -0.89333     2 2py   0.26106     2 2pz   0.45625     2 3d2- -0.36557     2 3d1+ -0.70436
                                    2 3d2+  0.63855


 HOMO      8.1    -0.362796 =      -9.8722eV
 LUMO      9.1     0.062455 =       1.6995eV
 LUMO-HOMO         0.425250 =      11.5717eV


 **********************************************************************************************************************************
 DATASETS  * FILE   NREC   LENGTH (MB)   RECORD NAMES
              1      19       31.13       500      610      700      900      950      970     1000      129      960     1100   
                                          VAR    BASINP    GEOM    SYMINP    ZMAT    AOBASIS   BASIS     P2S    ABASIS      S 
                                         1400     1410     1200     1210     1080     1600     1650     1300     1700   
                                           T        V       H0       H01     AOSYM     SMH    MOLCAS    ERIS     OPER   

              2       4        2.86       700     1000      520     2100   
                                         GEOM     BASIS   MCVARS     RHF  

 PROGRAMS   *        TOTAL    HF-SCF       INT
 CPU TIMES  *         0.69      0.22      0.35
 REAL TIME  *         1.42 SEC
 DISK USED  *        36.24 MB
 **********************************************************************************************************************************


 PROGRAM * MULTI (Direct Multiconfiguration SCF)       Authors: P.J. Knowles, H.-J. Werner (1984)


 Number of closed-shell orbitals:   7 (   7 )
 Number of active  orbitals:        2 (   2 )
 Number of external orbitals:      27 (  27 )

 State symmetry 1

 Number of electrons:     2    Spin symmetry=Singlet   Space symmetry=1
 Number of states:        3
 Number of CSFs:          3   (4 determinants, 4 intermediate states)

 Molecular orbitals read from record     2100.2  Type=RHF/CANONICAL (state 1.1)

 Wavefunction dump at record             2140.2

 Convergence thresholds  0.10E-01 (gradient)  0.10E-05 (energy)  0.10E-02 (step length)

 Weight factors for state symmetry  1:    0.33333   0.33333   0.33333

 Number of orbital rotations:      257   (    14 Core/Active    189 Core/Virtual   0 Active/Active     54 Active/Virtual)
 Total number of variables:        269

 Micro-Iterations solved by the two-step solver

 ITER. MIC  NCI  NEG     ENERGY(VAR)     ENERGY(PROJ)   ENERGY CHANGE     GRAD(0)  GRAD(ORB)   GRAD(CI)     STEP       TIME

   1    6    5    0     -77.68952446     -77.70826061   -0.01873616    0.16825208 0.00096061 0.00000000  0.14D+00      0.13
   2    5    5    0     -77.70795311     -77.70797046   -0.00001735    0.00609895 0.00000221 0.00000000  0.44D-02      0.23
   3    3    4    0     -77.70797049     -77.70797049   -0.00000000    0.00001090 0.00000000 0.00000000  0.16D-04      0.31

 ** WVFN ****  CONVERGENCE REACHED, FINAL GRADIENT:  0.10D-09



 Results for state 1.1
 =====================

 !MCSCF STATE  1.1 Energy             -77.811383746385
 Nuclear energy                        32.83664770
 Kinetic energy                        77.91382437
 One electron energy                 -168.75994227
 Two electron energy                   58.11191082
 Virial ratio                           1.99868521

 !MCSCF STATE  1.1 Dipole moment        0.00018442    -0.00000599    -0.00016540
 Dipole moment /Debye                   0.00046871    -0.00001523    -0.00042039

 Results for state 2.1
 =====================

 !MCSCF STATE  2.1 Energy             -77.734289279435
 Nuclear energy                        32.83664770
 Kinetic energy                        77.97804162
 One electron energy                 -168.47198097
 Two electron energy                   57.90104399
 Virial ratio                           1.99687409

 !MCSCF STATE  2.1 Dipole moment        0.00006064    -0.00003765    -0.00010079
 Dipole moment /Debye                   0.00015412    -0.00009570    -0.00025616

 Results for state 3.1
 =====================

 !MCSCF STATE  3.1 Energy             -77.578238441241
 Nuclear energy                        32.83664770
 Kinetic energy                        78.01649790
 One electron energy                 -168.21774408
 Two electron energy                   57.80285794
 Virial ratio                           1.99438248

 !MCSCF STATE  3.1 Dipole moment       -0.00003604    -0.00008424    -0.00006956
 Dipole moment /Debye                  -0.00009161    -0.00021411    -0.00017678

 State-averaged charge density matrix saved on record  2140.2 (density set 1)

 !MCSCF expec         <1.1|DMX|1.1>     0.000184417953 au =     0.000468712982 Debye
 !MCSCF trans         <2.1|DMX|1.1>    -0.000037819073 au =    -0.000096120200 Debye
 !MCSCF expec         <2.1|DMX|2.1>     0.000060639190 au =     0.000154119352 Debye
 !MCSCF trans         <3.1|DMX|1.1>     0.000017957966 au =     0.000045641608 Debye
 !MCSCF trans         <3.1|DMX|2.1>    -0.000054219162 au =    -0.000137802337 Debye
 !MCSCF expec         <3.1|DMX|3.1>    -0.000036043544 au =    -0.000091607550 Debye

 !MCSCF expec         <1.1|DMY|1.1>    -0.000005991146 au =    -0.000015226977 Debye
 !MCSCF trans         <2.1|DMY|1.1>     0.000025988482 au =     0.000066051807 Debye
 !MCSCF expec         <2.1|DMY|2.1>    -0.000037652713 au =    -0.000095697383 Debye
 !MCSCF trans         <3.1|DMY|1.1>     0.000002253080 au =     0.000005726383 Debye
 !MCSCF trans         <3.1|DMY|2.1>     0.000025303496 au =     0.000064310859 Debye
 !MCSCF expec         <3.1|DMY|3.1>    -0.000084241227 au =    -0.000214105817 Debye

 !MCSCF expec         <1.1|DMZ|1.1>    -0.000165403772 au =    -0.000420386919 Debye
 !MCSCF trans         <2.1|DMZ|1.1>     0.000051127657 au =     0.000129945030 Debye
 !MCSCF expec         <2.1|DMZ|2.1>    -0.000100789175 au =    -0.000256163751 Debye
 !MCSCF trans         <3.1|DMZ|1.1>    -0.000011434102 au =    -0.000029060684 Debye
 !MCSCF trans         <3.1|DMZ|2.1>     0.000062777857 au =     0.000159554945 Debye
 !MCSCF expec         <3.1|DMZ|3.1>    -0.000069555725 au =    -0.000176781440 Debye


 NATURAL ORBITALS (state averaged)
 =================================

  Orbital  Occupation    Energy     Coefficients
    1.1     2.00000   -11.25285     1 1s    0.70845     2 1s    0.70036
    2.1     2.00000   -11.25204     1 1s    0.70042     2 1s   -0.70850
    3.1     2.00000    -1.06871     1 1s    0.27674     2 1s    0.27675
    4.1     2.00000    -0.78602     1 1s   -0.31767     2 1s    0.31765
    5.1     2.00000    -0.63570     1 2py   0.30202     2 2py   0.30214
    6.1     2.00000    -0.56992     1 2px   0.26747     2 2px  -0.26747
    7.1     2.00000    -0.42589     1 2pz   0.32209     1 2pz   0.27314     2 2pz   0.32208     2 2pz   0.27314
    8.1     1.00000    -0.08803     1 1s    0.27084     1 2pz   0.40231     1 2pz   0.42826     2 1s    0.27083     2 2pz  -0.40234
                                    2 2pz  -0.42830
    9.1     1.00000    -0.20340     1 2px   0.30722     2 2px  -0.30723     4 1s   -0.31515     5 1s   -0.31512
   10.1    -0.00000     0.21601     1 1s   -1.09982     1 2px   0.42605     1 2py   0.39800     1 2pz   0.35616     2 1s   -1.09966
                                    2 2px  -0.42610     2 2py  -0.39796     2 2pz  -0.35601     3 1s    0.48729     4 1s    1.11682
                                    5 1s    1.11674     6 1s    0.48724
   11.1    -0.00000     0.27798     1 1s   -1.63511     1 2py  -0.29515     1 2pz   0.47225     2 1s    1.63495     2 2py  -0.29474
                                    2 2pz   0.47195     3 1s    1.43696     6 1s   -1.43637
   12.1    -0.00000     0.31334     1 1s   -0.87106     1 2px   0.45637     1 2py  -0.96148     1 2pz   0.46477     2 1s   -0.87216
                                    2 2px  -0.45646     2 2py   0.96157     2 2pz  -0.46499     3 1s    1.60998     4 1s   -0.31231
                                    5 1s   -0.31201     6 1s    1.61090
   13.1    -0.00000     0.33505     1 1s   -1.06345     1 2py   0.88115     1 2pz   0.37633     2 1s    1.06342     2 2py   0.88145
                                    2 2pz   0.37625     4 1s    1.82391     5 1s   -1.82416
   14.1    -0.00000     0.43492     1 1s    1.97949     1 2px   1.83474     1 2py  -0.55340     1 2pz  -0.76114     2 1s   -1.97926
                                    2 2px   1.83483     2 2py  -0.55353     2 2pz  -0.76113     3 1s    0.64987     6 1s   -0.65021
   15.1    -0.00000     0.70188     1 2px  -0.53498     1 2px   0.93312     2 2px   0.53497     2 2px  -0.93313     3 1s    0.26620
                                    4 1s   -0.54162     5 1s   -0.54155     6 1s    0.26632
   16.1    -0.00000     0.75121     1 1s   -0.54627     1 2py  -0.36283     1 2px  -0.69469     1 2py   0.85836     2 1s    0.54599
                                    2 2py  -0.36273     2 2px  -0.69491     2 2py   0.85845     3 1s   -0.47450     4 1s    0.27246
                                    5 1s   -0.27235     6 1s    0.47449
   17.1    -0.00000     0.77567     1 2py   0.54954     1 2py  -1.16420     1 2pz  -0.30391     2 2py  -0.54956     2 2py   1.16449
                                    2 2pz   0.30425     4 1s   -0.31475     5 1s   -0.31483
   18.1    -0.00000     0.79735     1 1s   -0.41522     1 2pz  -0.72039     1 2pz   0.79176     2 1s    0.41545     2 2pz  -0.72037
                                    2 2pz   0.79174
   19.1    -0.00000     0.86480     1 1s   -0.32377     1 2px  -0.25688     1 2pz  -0.66404     1 2px   0.51906     1 2py  -0.51629
                                    1 2pz   1.02377     2 1s   -0.32378     2 2px   0.25694     2 2pz   0.66398     2 2px  -0.51923
                                    2 2py   0.51633     2 2pz  -1.02366     3 1s    0.28166     6 1s    0.28171
   20.1    -0.00000     0.97454     1 2px   0.68112     1 2py   0.38550     1 2px  -0.92301     1 2py  -0.92677     2 2px   0.68103
                                    2 2py   0.38553     2 2px  -0.92302     2 2py  -0.92686     4 1s   -1.12854     5 1s    1.12874
   21.1    -0.00000     1.09060     1 1s   -0.61538     1 1s    1.14199     1 2py   0.45162     1 2px  -0.32134     1 2py  -0.47126
                                    2 1s   -0.61543     2 1s    1.14257     2 2py  -0.45119     2 2px   0.32100     2 2py   0.47081
                                    4 1s    0.65327     4 1s   -1.18251     5 1s    0.65260     5 1s   -1.18154
   22.1    -0.00000     1.14038     1 1s    0.94053     1 2py  -0.53380     1 2px   0.39876     1 2py   0.49132     2 1s   -0.93968
                                    2 2py  -0.53403     2 2px   0.39905     2 2py   0.49176     3 1s   -0.39459     4 1s   -0.77763
                                    4 1s    1.04776     5 1s    0.77839     5 1s   -1.04863     6 1s    0.39413
   23.1    -0.00000     1.14655     1 1s    0.95594     1 2px  -0.48993     1 2py   0.31916     1 2px   1.34167     1 2py  -0.79453
                                    2 1s   -0.95763     2 2px  -0.48969     2 2py   0.31877     2 2px   1.34127     2 2py  -0.79410
                                    3 1s   -0.62699     3 1s    1.25946     6 1s    0.62632     6 1s   -1.25810
   24.1    -0.00000     1.19787     1 1s   -0.71597     1 1s    1.14205     1 2px   0.29430     1 2py  -0.31376     1 2px  -0.33039
                                    1 2py   0.32724     2 1s   -0.71460     2 1s    1.13746     2 2px  -0.29497     2 2py   0.31461
                                    2 2px   0.33251     2 2py  -0.32904     3 1s    0.73830     3 1s   -1.13160     6 1s    0.73896
                                    6 1s   -1.13271
   25.1    -0.00000     1.25169     1 1s    1.63368     1 1s   -4.91520     1 2px  -1.06696     1 2py   0.71716     1 2pz   1.18114
                                    2 1s   -1.63741     2 1s    4.92212     2 2px  -1.06519     2 2py   0.71532     2 2pz   1.18389
                                    3 1s    0.59092     4 1s    0.83842     5 1s   -0.83976     6 1s   -0.59434
   26.1    -0.00000     1.28442     1 1s   -1.19305     1 1s    2.25369     1 2px  -0.55441     1 2py   0.61169     1 2pz  -1.04033
                                    2 1s   -1.18873     2 1s    2.23985     2 2px   0.55781     2 2py  -0.61390     2 2pz   1.03676
                                    3 1s   -0.48643     3 1s   -0.92832     4 1s   -0.39972     4 1s   -0.44939     5 1s   -0.39923
                                    5 1s   -0.44740     6 1s   -0.48621     6 1s   -0.92716
   27.1    -0.00000     1.71956     1 1s    0.67586     1 3d0   0.39751     1 3d2- -0.27674     1 3d2+ -0.31162     2 1s   -0.67567
                                    2 3d0  -0.39749     2 3d2-  0.27675     2 3d2+  0.31164
   28.1    -0.00000     1.88736     1 1s    0.27512     1 1s   -0.61551     1 2pz   0.32542     1 3d0   0.33732     1 3d1+  0.32881
                                    1 3d2+  0.36272     1 3d1-  0.32926     2 1s    0.27487     2 1s   -0.61443     2 2pz  -0.32508
                                    2 3d0   0.33716     2 3d1+  0.32896     2 3d2+  0.36269     2 3d1-  0.32946     3 1s    0.26421
                                    6 1s    0.26427
   29.1    -0.00000     1.96943     1 1s   -0.27741     1 1s    1.34650     1 2px   0.29694     1 2pz  -0.36262     1 3d2- -0.32728
                                    1 3d1+  0.38467     1 3d1-  0.40314     2 1s    0.27738     2 1s   -1.34659     2 2px   0.29686
                                    2 2pz  -0.36264     2 3d2-  0.32721     2 3d1+ -0.38448     2 3d1- -0.40300     3 1s   -0.33554
                                    6 1s    0.33563
   30.1    -0.00000     2.15240     1 1s    0.28955     1 1s   -1.46401     1 2px  -0.31745     1 2py   0.28312     1 2pz   0.40463
                                    1 3d0   0.54016     1 3d2+  0.38727     2 1s   -0.28952     2 1s    1.46416     2 2px  -0.31732
                                    2 2py   0.28298     2 2pz   0.40472     2 3d0  -0.54017     2 3d2+ -0.38738     3 1s    0.33442
                                    4 1s    0.32657     5 1s   -0.32662     6 1s   -0.33457
   31.1    -0.00000     2.25329     1 1s    0.49937     1 1s   -0.36915     1 2px   0.26767     1 2px  -0.26201     1 3d2-  0.34664
                                    1 3d1+  0.41748     1 3d2+ -0.37276     2 1s    0.49939     2 1s   -0.36934     2 2px  -0.26765
                                    2 2px   0.26211     2 3d2-  0.34658     2 3d1+  0.41751     2 3d2+ -0.37274
   32.1    -0.00000     2.35121     1 2px  -0.25970     1 2py   0.33605     1 3d0   0.54444     1 3d2- -0.34736     1 3d1- -0.34892
                                    2 2px   0.25993     2 2py  -0.33621     2 3d0   0.54449     2 3d2- -0.34734     2 3d1- -0.34888
                                    3 1s   -0.27146     4 1s    0.36825     5 1s    0.36832     6 1s   -0.27140
   33.1    -0.00000     2.56357     1 2py  -0.27743     1 3d2-  0.46011     1 3d1-  0.61122     2 2py  -0.27753     2 3d2- -0.45992
                                    2 3d1- -0.61121     3 1s    0.50613     4 1s   -0.39215     5 1s    0.39226     6 1s   -0.50597
   34.1    -0.00000     2.66595     1 1s   -0.25018     1 2py   0.29588     1 3d2-  0.48987     1 3d2+  0.49100     1 3d1- -0.50164
                                    2 1s   -0.25039     2 2py  -0.29588     2 3d2-  0.49003     2 3d2+  0.49099     2 3d1- -0.50147
                                    4 1s    0.36851     5 1s    0.36846
   35.1    -0.00000     2.75918     1 3d0  -0.40646     1 3d2- -0.42566     1 3d1+  0.50250     1 3d1- -0.34310     2 3d0  -0.40649
                                    2 3d2- -0.42588     2 3d1+  0.50267     2 3d1- -0.34333     3 1s   -0.47532     6 1s   -0.47569
   36.1    -0.00000     2.96372     1 1s   -1.80530     1 2px  -0.44830     1 2px  -0.90394     1 2py   0.26823     1 2pz   0.46332
                                    1 3d2-  0.36461     1 3d1+  0.70688     1 3d2+ -0.63578     2 1s    1.80527     2 2px  -0.44831
                                    2 2px  -0.90393     2 2py   0.26820     2 2pz   0.46331     2 3d2- -0.36465     2 3d1+ -0.70682
                                    2 3d2+  0.63580


 Natural orbital dump (state averaged) at molpro section  2140.2    (Orbital set 2)



 **********************************************************************************************************************************
 DATASETS  * FILE   NREC   LENGTH (MB)   RECORD NAMES
              1      20       31.86       500      610      700      900      950      970     1000      129      960     1100   
                                          VAR    BASINP    GEOM    SYMINP    ZMAT    AOBASIS   BASIS     P2S    ABASIS      S 
                                         1400     1410     1200     1210     1080     1600     1650     1300     1700     1380   
                                           T        V       H0       H01     AOSYM     SMH    MOLCAS    ERIS     OPER     JKOP   

              2       5        5.42       700     1000      520     2100     2140   
                                         GEOM     BASIS   MCVARS     RHF     MCSCF   

 PROGRAMS   *        TOTAL     MULTI    HF-SCF       INT
 CPU TIMES  *         1.07      0.38      0.22      0.35
 REAL TIME  *         1.89 SEC
 DISK USED  *        39.05 MB
 **********************************************************************************************************************************
 Molecular orbitals read from record     2140.2  Type=MCSCF/NATURAL (state averaged)
 Occupation numbers read from record     2140.2  Type=MCSCF/NATURAL (state averaged)
 Orbital energies read from record       2140.2  Type=MCSCF/NATURAL (state averaged)
 Redundancy group numbers read from rec  2140.2  Type=MCSCF/NATURAL (state averaged)

 MULTI/6-31G* energy=    -77.578238441241

           MULTI          HF-SCF
    -77.57823844    -77.81727160
 **********************************************************************************************************************************
 Molpro calculation terminated
