
 Primary working directories    : /scratch.local/johan406.molpro_temp/molpro.kd3H9UgTH4
 Secondary working directories  : /scratch.local/johan406.molpro_temp/molpro.kd3H9UgTH4
 Wavefunction directory         : /home/goodpast/johan406/wfu/
 Main file repository           : /scratch.local/johan406.molpro_temp/molpro.kd3H9UgTH4/

 id        : roweumn

 Nodes     nprocs
 acn09        1

 Using customized tuning parameters: mindgm=1; mindgv=20; mindgc=4; mindgr=1; noblas=0; minvec=7
 default implementation of scratch files=df  


 Variables initialized (934), CPU time= 0.01 sec
                                                                                 !leave this line blank
 
 gprint, orbitals=30
 memory, 125., m
 symmetry, nosym
 nelect=16
 basis=6-31g*
 
 geometry={
 C -0.6137 0.1473 0.2987
 C 0.6226 -0.1972 -0.359
 H -1.2815 0.8756 -0.1582
 H -0.8662 -0.8406 -0.1822
 H 0.8751 0.7907 0.1218
 H 1.2904 -0.9255 0.0977
 }
 
 hf
 {multi,
 closed 7
 occ 9
 wf,spin=0;STATE,3
 }
 
 Commands  initialized (763), CPU time= 0.01 sec, 617 directives.
 Default parameters read. Elapsed time= 0.08 sec

 Checking input...
 Passed
1


                                         ***  PROGRAM SYSTEM MOLPRO  ***
                                       Copyright, TTI GmbH Stuttgart, 2015
                                    Version 2019.2 linked Oct 25 2019 22:50:27


 **********************************************************************************************************************************
 LABEL *                                                                                 
  64 bit serial version                                                                  DATE: 07-Feb-23          TIME: 15:38:03  
 **********************************************************************************************************************************

 SHA1:             8dbd9ae1082e4ce945b0f27595c9eb2d4aa09004
 **********************************************************************************************************************************


 Variable memory set to  125000000 words,  buffer space 

 SETTING NELECT         =        16.00000000                                  
 SETTING BASIS          =    6-31G*
 ZSYMEL=NOSYM


Geometry recognized as XYZ



 Recomputing integrals since basis changed


 Using spherical harmonics

 Library entry C      S 6-31G                selected for orbital group  1
 Library entry C      P 6-31G                selected for orbital group  1
 Library entry C      D 6-31G*               selected for orbital group  1
 Library entry H      S 6-31G                selected for orbital group  2


 PROGRAM * SEWARD (Integral evaluation for generally contracted gaussian basis sets)     Author: Roland Lindh, 1990

 Geometry written to block  1 of record 700


 Point group  C1  



 ATOMIC COORDINATES

 NR  ATOM    CHARGE       X              Y              Z

   1  C       6.00   -1.159724923    0.278356658    0.564461193
   2  C       6.00    1.176543485   -0.372653992   -0.678411679
   3  H       1.00   -2.421684029    1.654644195   -0.298954673
   4  H       1.00   -1.636880769   -1.588503780   -0.344308100
   5  H       1.00    1.653699332    1.494206447    0.230168642
   6  H       1.00    2.438502591   -1.748941528    0.184626242

 Bond lengths in Bohr (Angstrom)

 1-2  2.725196858  1-3  2.057229964  1-4  2.130424189  2-5  2.130343587  2-6  2.057071370
     ( 1.442112073)     ( 1.088639215)     ( 1.127371931)     ( 1.127329278)     ( 1.088555290)

 Bond angles

  1-2-5   77.77007766   1-2-6  119.63063525   2-1-3  119.62260040   2-1-4   77.76817585

  3-1-4  105.65328580   5-2-6  105.66200927

 NUCLEAR CHARGE:                   16
 NUMBER OF PRIMITIVE AOS:          72
 NUMBER OF SYMMETRY AOS:           70
 NUMBER OF CONTRACTIONS:           36   (   36A   )
 NUMBER OF CORE ORBITALS:           2   (    2A   )
 NUMBER OF VALENCE ORBITALS:       12   (   12A   )


 NUCLEAR REPULSION ENERGY   32.93532851

 Eigenvalues of metric

         1 0.926E-02 0.253E-01 0.549E-01 0.605E-01 0.800E-01 0.211E+00 0.240E+00 0.263E+00


 Contracted 2-electron integrals neglected if value below      1.0D-11
 AO integral compression algorithm  1   Integral accuracy      1.0D-11

     1.573 MB (compressed) written to integral file ( 59.8%)


 NUMBER OF SORTED TWO-ELECTRON INTEGRALS:     222111.     BUFFER LENGTH:  32768
 NUMBER OF SEGMENTS:   1  SEGMENT LENGTH:     222111      RECORD LENGTH: 524288

 Memory used in sort:       0.78 MW

 SORT1 READ      284735. AND WROTE      212531. INTEGRALS IN      1 RECORDS. CPU TIME:     0.01 SEC, REAL TIME:     0.00 SEC
 SORT2 READ      212531. AND WROTE      222111. INTEGRALS IN      6 RECORDS. CPU TIME:     0.02 SEC, REAL TIME:     0.02 SEC

 FILE SIZES:   FILE 1:    31.7 MBYTE,  FILE 4:     4.2 MBYTE,   TOTAL:     35.9 MBYTE

 OPERATOR DM      FOR CENTER  0  COORDINATES:    0.000000    0.000000    0.000000


 **********************************************************************************************************************************
 DATASETS  * FILE   NREC   LENGTH (MB)   RECORD NAMES
              1      19       31.14       500      610      700      900      950      970     1000      129      960     1100   
                                          VAR    BASINP    GEOM    SYMINP    ZMAT    AOBASIS   BASIS     P2S    ABASIS      S 
                                         1400     1410     1200     1210     1080     1600     1650     1300     1700   
                                           T        V       H0       H01     AOSYM     SMH    MOLCAS    ERIS     OPER   

 PROGRAMS   *        TOTAL       INT
 CPU TIMES  *         0.31      0.20
 REAL TIME  *         0.53 SEC
 DISK USED  *        36.24 MB
 **********************************************************************************************************************************


 PROGRAM * RHF-SCF (CLOSED SHELL)       Authors: W. Meyer, H.-J. Werner


 NUMBER OF ELECTRONS:       8+    8-    SPACE SYMMETRY=1    SPIN SYMMETRY: Singlet 
 CONVERGENCE THRESHOLDS:    1.00E-05 (Density)    1.00E-07 (Energy)
 MAX. NUMBER OF ITERATIONS:       60
 INTERPOLATION TYPE:            DIIS
 INTERPOLATION STEPS:              2 (START)      1 (STEP)
 LEVEL SHIFTS:                  0.00 (CLOSED)  0.00 (OPEN) 



 Orbital guess generated from atomic densities. Full valence occupancy:    8

 Molecular orbital dump at record        2100.2

 Initial occupancy:   8

 ITERATION    DDIFF          GRAD             ENERGY        2-EL.EN.            DIPOLE MOMENTS         DIIS   ORB.
    1      0.000D+00      0.000D+00       -77.78959773    116.967784    0.00005    0.00001   -0.00015    0    start
    2      0.000D+00      0.707D-02       -77.80724883    115.909093    0.00012   -0.00001   -0.00013    1    diag
    3      0.821D-02      0.224D-02       -77.80919181    116.332549    0.00013   -0.00001   -0.00014    2    diag
    4      0.299D-02      0.800D-03       -77.80958177    116.203783    0.00015   -0.00001   -0.00014    3    diag
    5      0.167D-02      0.261D-03       -77.80968522    116.210764    0.00015   -0.00001   -0.00014    4    diag
    6      0.913D-03      0.126D-03       -77.80972796    116.212466    0.00016   -0.00001   -0.00015    5    diag
    7      0.536D-03      0.708D-04       -77.80974718    116.215051    0.00015   -0.00000   -0.00014    6    diag
    8      0.479D-03      0.255D-04       -77.80974951    116.216639    0.00017   -0.00002   -0.00016    7    diag
    9      0.207D-03      0.528D-05       -77.80974956    116.216707    0.00014    0.00001   -0.00012    8    diag
   10      0.243D-04      0.138D-05       -77.80974956    116.216712    0.00018   -0.00003   -0.00018    9    orth
   11      0.401D-05      0.782D-06       -77.80974956    116.216710    0.00013    0.00001   -0.00011    0    orth

 Final occupancy:   8

 !RHF STATE  1.1 Energy               -77.809749562732
 Nuclear energy                        32.93532851
 One-electron energy                 -168.85343318
 Two-electron energy                   58.10835510
 Virial quotient                       -0.99918605
 !RHF STATE  1.1 Dipole moment          0.00013305     0.00000697    -0.00011126
 Dipole moment /Debye                   0.00033815     0.00001772    -0.00028277

 ELECTRON ORBITALS
 =================

  Orbital  Occupation    Energy     Coefficients
    1.1     2.00000   -11.25598     1 1s    0.70921     2 1s    0.69960
    2.1     2.00000   -11.25505     1 1s    0.69969     2 1s   -0.70931
    3.1     2.00000    -1.05870     1 1s    0.28047     2 1s    0.28050
    4.1     2.00000    -0.78357     1 1s   -0.29675     2 1s    0.29673
    5.1     2.00000    -0.63469     1 2py   0.30894     2 2py   0.30907
    6.1     2.00000    -0.57227     1 2px   0.29941     2 2px  -0.29942
    7.1     2.00000    -0.40086     1 2pz   0.30734     1 2pz   0.27781     2 2pz   0.30734     2 2pz   0.27782
    8.1     2.00000    -0.35723     1 2px   0.27882     2 2px  -0.27882     4 1s   -0.30686     5 1s   -0.30683
    9.1     0.00000     0.06232     1 1s    0.40045     1 2pz   0.32772     1 2pz   0.46887     2 1s    0.40042     2 2pz  -0.32775
                                    2 2pz  -0.46893
   10.1     0.00000     0.22617     1 1s   -1.08543     1 2px   0.41402     1 2py   0.39869     1 2pz   0.40083     2 1s   -1.08534
                                    2 2px  -0.41406     2 2py  -0.39868     2 2pz  -0.40070     3 1s    0.48712     4 1s    1.12128
                                    5 1s    1.12126     6 1s    0.48709
   11.1     0.00000     0.27875     1 1s   -1.58445     1 2py  -0.33381     1 2pz   0.46301     2 1s    1.58428     2 2py  -0.33343
                                    2 2pz   0.46267     3 1s    1.44307     6 1s   -1.44248
   12.1     0.00000     0.31077     1 1s   -0.84401     1 2px   0.47776     1 2py  -0.95155     1 2pz   0.50557     2 1s   -0.84494
                                    2 2px  -0.47783     2 2py   0.95178     2 2pz  -0.50574     3 1s    1.60742     4 1s   -0.32703
                                    5 1s   -0.32701     6 1s    1.60837
   13.1     0.00000     0.35169     1 1s   -0.98931     1 2px   0.33497     1 2py   0.81250     1 2pz   0.35472     2 1s    0.98941
                                    2 2px   0.33497     2 2py   0.81265     2 2pz   0.35468     4 1s    1.82888     5 1s   -1.82907
   14.1     0.00000     0.43008     1 1s    2.14287     1 2px   1.82692     1 2py  -0.68159     1 2pz  -0.83070     2 1s   -2.14264
                                    2 2px   1.82702     2 2py  -0.68174     2 2pz  -0.83068     3 1s    0.65456     6 1s   -0.65491
   15.1     0.00000     0.70502     1 2px  -0.54797     1 2px   0.96206     2 2px   0.54795     2 2px  -0.96209     3 1s    0.26799
                                    4 1s   -0.48978     5 1s   -0.48972     6 1s    0.26813
   16.1     0.00000     0.75366     1 1s   -0.43824     1 2py  -0.37506     1 2px  -0.63517     1 2py   0.84766     2 1s    0.43791
                                    2 2py  -0.37506     2 2px  -0.63544     2 2py   0.84796     3 1s   -0.47407     4 1s    0.26408
                                    5 1s   -0.26404     6 1s    0.47411
   17.1     0.00000     0.77594     1 2py   0.57565     1 2py  -1.17092     2 2py  -0.57560     2 2py   1.17106     4 1s   -0.32037
                                    5 1s   -0.32041
   18.1     0.00000     0.79574     1 2pz  -0.72208     1 2pz   0.73180     2 2pz  -0.72204     2 2pz   0.73176
   19.1     0.00000     0.86734     1 1s   -0.36826     1 2pz  -0.68875     1 2px   0.48986     1 2py  -0.50256     1 2pz   0.96897
                                    2 1s   -0.36827     2 2pz   0.68873     2 2px  -0.49004     2 2py   0.50259     2 2pz  -0.96889
   20.1     0.00000     0.96740     1 2px   0.68040     1 2py   0.38256     1 2px  -0.99092     1 2py  -0.92892     2 2px   0.68031
                                    2 2py   0.38260     2 2px  -0.99094     2 2py  -0.92901     4 1s   -1.18754     5 1s    1.18774
   21.1     0.00000     1.11203     1 1s   -0.59206     1 1s    1.12187     1 2py   0.44776     1 2px  -0.28761     1 2py  -0.45414
                                    2 1s   -0.59230     2 1s    1.12288     2 2py  -0.44734     2 2px   0.28735     2 2py   0.45369
                                    4 1s    0.65073     4 1s   -1.20384     5 1s    0.65014     5 1s   -1.20302
   22.1     0.00000     1.14258     1 1s   -0.79318     1 2px   0.48660     1 2py  -0.41676     1 2px  -1.24218     1 2py   0.88098
                                    2 1s    0.79521     2 2px   0.48624     2 2py  -0.41652     2 2px  -1.24167     2 2py   0.88073
                                    3 1s    0.62474     3 1s   -1.31097     6 1s   -0.62402     6 1s    1.30958
   23.1     0.00000     1.16497     1 1s   -0.42714     1 1s    1.96117     1 2py  -0.42952     1 2px   0.78810     1 2pz  -0.40088
                                    2 1s    0.42639     2 1s   -1.96007     2 2py  -0.42962     2 2px   0.78849     2 2pz  -0.40103
                                    3 1s   -0.28033     4 1s   -0.78426     4 1s    0.85578     5 1s    0.78511     5 1s   -0.85665
                                    6 1s    0.27943
   24.1     0.00000     1.19519     1 1s   -0.78360     1 1s    1.28267     1 2px   0.31350     1 2py  -0.28761     1 2px  -0.37961
                                    1 2py   0.32259     1 2pz  -0.26527     2 1s   -0.78333     2 1s    1.28194     2 2px  -0.31418
                                    2 2py   0.28877     2 2px   0.38058     2 2py  -0.32423     2 2pz   0.26487     3 1s    0.71098
                                    3 1s   -1.16511     6 1s    0.71160     6 1s   -1.16672
   25.1     0.00000     1.26132     1 1s    1.57513     1 1s   -4.62469     1 2px  -0.93082     1 2py   0.77397     1 2pz   1.14549
                                    2 1s   -1.57779     2 1s    4.62971     2 2px  -0.92953     2 2py   0.77268     2 2pz   1.14755
                                    3 1s    0.55223     4 1s    1.01195     5 1s   -1.01298     6 1s   -0.55460
   26.1     0.00000     1.29908     1 1s   -1.15552     1 1s    2.20687     1 2px  -0.54744     1 2py   0.60734     1 2pz  -1.04970
                                    2 1s   -1.15219     2 1s    2.19616     2 2px   0.55003     2 2py  -0.60918     2 2pz   1.04684
                                    3 1s   -0.51134     3 1s   -0.90318     4 1s   -0.42113     4 1s   -0.42673     5 1s   -0.42081
                                    5 1s   -0.42502     6 1s   -0.51115     6 1s   -0.90234
   27.1     0.00000     1.73156     1 1s    0.61619     1 3d0   0.41761     1 3d2- -0.26286     1 3d2+ -0.30360     2 1s   -0.61600
                                    2 3d0  -0.41759     2 3d2-  0.26288     2 3d2+  0.30362
   28.1     0.00000     1.88378     1 1s    0.27622     1 1s   -0.61447     1 2pz   0.32506     1 3d0   0.33681     1 3d1+  0.33135
                                    1 3d2+  0.35917     1 3d1-  0.33147     2 1s    0.27600     2 1s   -0.61347     2 2pz  -0.32474
                                    2 3d0   0.33667     2 3d1+  0.33146     2 3d2+  0.35912     2 3d1-  0.33165     3 1s    0.26261
                                    6 1s    0.26266
   29.1     0.00000     1.98110     1 1s   -0.27410     1 1s    1.35680     1 2px   0.29880     1 2pz  -0.36778     1 3d2- -0.33365
                                    1 3d1+  0.37895     1 3d1-  0.40861     2 1s    0.27404     2 1s   -1.35684     2 2px   0.29874
                                    2 2pz  -0.36778     2 3d2-  0.33358     2 3d1+ -0.37877     2 3d1- -0.40848     3 1s   -0.33015
                                    6 1s    0.33022
   30.1     0.00000     2.14758     1 1s    0.27593     1 1s   -1.45071     1 2px  -0.31222     1 2py   0.28371     1 2pz   0.40632
                                    1 3d0   0.52694     1 3d2+  0.39154     2 1s   -0.27592     2 1s    1.45087     2 2px  -0.31211
                                    2 2py   0.28358     2 2pz   0.40641     2 3d0  -0.52695     2 3d2+ -0.39164     3 1s    0.33300
                                    4 1s    0.33646     5 1s   -0.33651     6 1s   -0.33315
   31.1     0.00000     2.25931     1 1s    0.50849     1 1s   -0.37664     1 2px   0.26220     1 2px  -0.26419     1 3d2-  0.34275
                                    1 3d1+  0.41755     1 3d2+ -0.37252     2 1s    0.50851     2 1s   -0.37680     2 2px  -0.26218
                                    2 2px   0.26428     2 3d2-  0.34268     2 3d1+  0.41759     2 3d2+ -0.37251
   32.1     0.00000     2.35807     1 2px  -0.25896     1 2py   0.31716     1 3d0   0.55182     1 3d2- -0.34536     1 3d1- -0.33699
                                    2 2px   0.25919     2 2py  -0.31731     2 3d0   0.55187     2 3d2- -0.34534     2 3d1- -0.33696
                                    3 1s   -0.25738     4 1s    0.37509     5 1s    0.37515     6 1s   -0.25732
   33.1     0.00000     2.56342     1 2py  -0.26879     1 3d2-  0.45345     1 3d1-  0.61164     2 2py  -0.26887     2 3d2- -0.45327
                                    2 3d1- -0.61160     3 1s    0.50681     4 1s   -0.39710     5 1s    0.39720     6 1s   -0.50664
   34.1     0.00000     2.67711     1 1s   -0.25720     1 2py   0.28205     1 3d2-  0.49842     1 3d2+  0.48736     1 3d1- -0.49451
                                    2 1s   -0.25740     2 2py  -0.28205     2 3d2-  0.49857     2 3d2+  0.48736     2 3d1- -0.49436
                                    4 1s    0.37212     5 1s    0.37209
   35.1     0.00000     2.76122     1 3d0  -0.39613     1 3d2- -0.42231     1 3d1+  0.49674     1 3d1- -0.36055     2 3d0  -0.39615
                                    2 3d2- -0.42253     2 3d1+  0.49692     2 3d1- -0.36079     3 1s   -0.47697     4 1s    0.27125
                                    5 1s    0.27136     6 1s   -0.47734
   36.1     0.00000     2.96932     1 1s   -1.79291     1 2px  -0.45832     1 2px  -0.89813     1 2py   0.26586     1 2pz   0.46011
                                    1 3d2-  0.36907     1 3d1+  0.70612     1 3d2+ -0.63692     2 1s    1.79288     2 2px  -0.45833
                                    2 2px  -0.89812     2 2py   0.26583     2 2pz   0.46010     2 3d2- -0.36912     2 3d1+ -0.70606
                                    2 3d2+  0.63695


 HOMO      8.1    -0.357232 =      -9.7208eV
 LUMO      9.1     0.062315 =       1.6957eV
 LUMO-HOMO         0.419547 =      11.4165eV


 **********************************************************************************************************************************
 DATASETS  * FILE   NREC   LENGTH (MB)   RECORD NAMES
              1      19       31.14       500      610      700      900      950      970     1000      129      960     1100   
                                          VAR    BASINP    GEOM    SYMINP    ZMAT    AOBASIS   BASIS     P2S    ABASIS      S 
                                         1400     1410     1200     1210     1080     1600     1650     1300     1700   
                                           T        V       H0       H01     AOSYM     SMH    MOLCAS    ERIS     OPER   

              2       4        2.86       700     1000      520     2100   
                                         GEOM     BASIS   MCVARS     RHF  

 PROGRAMS   *        TOTAL    HF-SCF       INT
 CPU TIMES  *         0.44      0.13      0.20
 REAL TIME  *         1.21 SEC
 DISK USED  *        36.24 MB
 **********************************************************************************************************************************


 PROGRAM * MULTI (Direct Multiconfiguration SCF)       Authors: P.J. Knowles, H.-J. Werner (1984)


 Number of closed-shell orbitals:   7 (   7 )
 Number of active  orbitals:        2 (   2 )
 Number of external orbitals:      27 (  27 )

 State symmetry 1

 Number of electrons:     2    Spin symmetry=Singlet   Space symmetry=1
 Number of states:        3
 Number of CSFs:          3   (4 determinants, 4 intermediate states)

 Molecular orbitals read from record     2100.2  Type=RHF/CANONICAL (state 1.1)

 Wavefunction dump at record             2140.2

 Convergence thresholds  0.10E-01 (gradient)  0.10E-05 (energy)  0.10E-02 (step length)

 Weight factors for state symmetry  1:    0.33333   0.33333   0.33333

 Number of orbital rotations:      257   (    14 Core/Active    189 Core/Virtual   0 Active/Active     54 Active/Virtual)
 Total number of variables:        269

 Micro-Iterations solved by the two-step solver

 ITER. MIC  NCI  NEG     ENERGY(VAR)     ENERGY(PROJ)   ENERGY CHANGE     GRAD(0)  GRAD(ORB)   GRAD(CI)     STEP       TIME

   1    6    5    0     -77.68847687     -77.70701651   -0.01853964    0.16804545 0.00080616 0.00000000  0.14D+00      0.11
   2    5    5    0     -77.70670847     -77.70672571   -0.00001724    0.00607041 0.00000204 0.00000000  0.44D-02      0.20
   3    4    4    0     -77.70672573     -77.70672573   -0.00000000    0.00001080 0.00000000 0.00000000  0.16D-04      0.27

 ** WVFN ****  CONVERGENCE REACHED, FINAL GRADIENT:  0.97D-10



 Results for state 1.1
 =====================

 !MCSCF STATE  1.1 Energy             -77.804031629834
 Nuclear energy                        32.93532851
 Kinetic energy                        77.93361196
 One electron energy                 -168.93634655
 Two electron energy                   58.19698641
 Virial ratio                           1.99833730

 !MCSCF STATE  1.1 Dipole moment        0.00018404    -0.00000551    -0.00016650
 Dipole moment /Debye                   0.00046776    -0.00001401    -0.00042318

 Results for state 2.1
 =====================

 !MCSCF STATE  2.1 Energy             -77.732616383998
 Nuclear energy                        32.93532851
 Kinetic energy                        77.99714697
 One electron energy                 -168.65491992
 Two electron energy                   57.98697502
 Virial ratio                           1.99660846

 !MCSCF STATE  2.1 Dipole moment        0.00006110    -0.00003662    -0.00010055
 Dipole moment /Debye                   0.00015530    -0.00009306    -0.00025556

 Results for state 3.1
 =====================

 !MCSCF STATE  3.1 Energy             -77.583529184924
 Nuclear energy                        32.93532851
 Kinetic energy                        78.03122952
 One electron energy                 -168.40305934
 Two electron energy                   57.88420164
 Virial ratio                           1.99426255

 !MCSCF STATE  3.1 Dipole moment       -0.00003493    -0.00008369    -0.00006820
 Dipole moment /Debye                  -0.00008877    -0.00021271    -0.00017333

 State-averaged charge density matrix saved on record  2140.2 (density set 1)

 !MCSCF expec         <1.1|DMX|1.1>     0.000184042050 au =     0.000467757595 Debye
 !MCSCF trans         <2.1|DMX|1.1>    -0.000033281193 au =    -0.000084586815 Debye
 !MCSCF expec         <2.1|DMX|2.1>     0.000061102035 au =     0.000155295710 Debye
 !MCSCF trans         <3.1|DMX|1.1>     0.000018779201 au =     0.000047728842 Debye
 !MCSCF trans         <3.1|DMX|2.1>    -0.000050430274 au =    -0.000128172575 Debye
 !MCSCF expec         <3.1|DMX|3.1>    -0.000034926521 au =    -0.000088768547 Debye

 !MCSCF expec         <1.1|DMY|1.1>    -0.000005513252 au =    -0.000014012372 Debye
 !MCSCF trans         <2.1|DMY|1.1>     0.000025628685 au =     0.000065137353 Debye
 !MCSCF expec         <2.1|DMY|2.1>    -0.000036616181 au =    -0.000093062953 Debye
 !MCSCF trans         <3.1|DMY|1.1>     0.000002405351 au =     0.000006113393 Debye
 !MCSCF trans         <3.1|DMY|2.1>     0.000024769700 au =     0.000062954174 Debye
 !MCSCF expec         <3.1|DMY|3.1>    -0.000083691086 au =    -0.000212707591 Debye

 !MCSCF expec         <1.1|DMZ|1.1>    -0.000166502271 au =    -0.000423178842 Debye
 !MCSCF trans         <2.1|DMZ|1.1>     0.000046487163 au =     0.000118150844 Debye
 !MCSCF expec         <2.1|DMZ|2.1>    -0.000100552488 au =    -0.000255562192 Debye
 !MCSCF trans         <3.1|DMZ|1.1>    -0.000012046512 au =    -0.000030617174 Debye
 !MCSCF trans         <3.1|DMZ|2.1>     0.000058612840 au =     0.000148969221 Debye
 !MCSCF expec         <3.1|DMZ|3.1>    -0.000068196673 au =    -0.000173327300 Debye


 NATURAL ORBITALS (state averaged)
 =================================

  Orbital  Occupation    Energy     Coefficients
    1.1     2.00000   -11.25256     1 1s    0.70842     2 1s    0.70038
    2.1     2.00000   -11.25174     1 1s    0.70044     2 1s   -0.70847
    3.1     2.00000    -1.07290     1 1s    0.27648     2 1s    0.27650
    4.1     2.00000    -0.78605     1 1s   -0.31773     2 1s    0.31771
    5.1     2.00000    -0.63812     1 2py   0.30191     2 2py   0.30203
    6.1     2.00000    -0.57200     1 2px   0.26913     2 2px  -0.26913
    7.1     2.00000    -0.42728     1 2pz   0.32136     1 2pz   0.27140     2 2pz   0.32134     2 2pz   0.27139
    8.1     1.00000    -0.08823     1 1s    0.27179     1 2pz   0.40152     1 2pz   0.42772     2 1s    0.27178     2 2pz  -0.40155
                                    2 2pz  -0.42776
    9.1     1.00000    -0.19718     1 2px   0.30643     2 2px  -0.30643     4 1s   -0.31984     5 1s   -0.31981
   10.1    -0.00000     0.21513     1 1s   -1.09826     1 2px   0.41336     1 2py   0.40051     1 2pz   0.35095     2 1s   -1.09811
                                    2 2px  -0.41340     2 2py  -0.40047     2 2pz  -0.35080     3 1s    0.47479     4 1s    1.12115
                                    5 1s    1.12108     6 1s    0.47474
   11.1    -0.00000     0.27728     1 1s   -1.63157     1 2py  -0.29408     1 2pz   0.47112     2 1s    1.63141     2 2py  -0.29368
                                    2 2pz   0.47081     3 1s    1.43685     6 1s   -1.43626
   12.1    -0.00000     0.31285     1 1s   -0.88515     1 2px   0.46840     1 2py  -0.95092     1 2pz   0.47249     2 1s   -0.88622
                                    2 2px  -0.46849     2 2py   0.95104     2 2pz  -0.47269     3 1s    1.61635     4 1s   -0.29684
                                    5 1s   -0.29660     6 1s    1.61728
   13.1    -0.00000     0.33830     1 1s   -1.05569     1 2py   0.88894     1 2pz   0.38434     2 1s    1.05569     2 2py   0.88922
                                    2 2pz   0.38427     4 1s    1.84790     5 1s   -1.84815
   14.1    -0.00000     0.43613     1 1s    1.99927     1 2px   1.84420     1 2py  -0.55924     1 2pz  -0.76784     2 1s   -1.99904
                                    2 2px   1.84430     2 2py  -0.55937     2 2pz  -0.76783     3 1s    0.65395     6 1s   -0.65429
   15.1    -0.00000     0.70279     1 2px  -0.53599     1 2px   0.94105     2 2px   0.53597     2 2px  -0.94106     3 1s    0.27319
                                    4 1s   -0.55117     5 1s   -0.55111     6 1s    0.27331
   16.1    -0.00000     0.75012     1 1s   -0.57388     1 2py  -0.36235     1 2px  -0.69612     1 2py   0.87097     2 1s    0.57360
                                    2 2py  -0.36225     2 2px  -0.69635     2 2py   0.87107     3 1s   -0.47139     4 1s    0.27705
                                    5 1s   -0.27694     6 1s    0.47139
   17.1    -0.00000     0.77337     1 2py   0.54827     1 2py  -1.15286     1 2pz  -0.30230     2 2py  -0.54829     2 2py   1.15316
                                    2 2pz   0.30265     4 1s   -0.32210     5 1s   -0.32218
   18.1    -0.00000     0.79671     1 1s   -0.42352     1 2pz  -0.71738     1 2pz   0.79454     2 1s    0.42376     2 2pz  -0.71736
                                    2 2pz   0.79452
   19.1    -0.00000     0.86513     1 1s   -0.32587     1 2px  -0.25781     1 2pz  -0.66440     1 2px   0.52508     1 2py  -0.50939
                                    1 2pz   1.02534     2 1s   -0.32588     2 2px   0.25787     2 2pz   0.66435     2 2px  -0.52525
                                    2 2py   0.50943     2 2pz  -1.02524     3 1s    0.28219     6 1s    0.28225
   20.1    -0.00000     0.97148     1 1s    0.30664     1 2px   0.67256     1 2py   0.38010     1 2px  -0.88000     1 2py  -0.94878
                                    2 1s   -0.30707     2 2px   0.67247     2 2py   0.38014     2 2px  -0.88001     2 2py  -0.94886
                                    4 1s   -1.13844     5 1s    1.13865
   21.1    -0.00000     1.08899     1 1s   -0.60575     1 1s    1.12944     1 2py   0.45758     1 2px  -0.30962     1 2py  -0.48059
                                    2 1s   -0.60585     2 1s    1.13020     2 2py  -0.45715     2 2px   0.30918     2 2py   0.48015
                                    4 1s    0.65289     4 1s   -1.18605     5 1s    0.65222     5 1s   -1.18506
   22.1    -0.00000     1.13756     1 1s    1.54747     1 2py  -0.33537     1 2px   1.05306     1 2pz  -0.29770     2 1s   -1.54736
                                    2 2py  -0.33575     2 2px   1.05317     2 2pz  -0.29803     3 1s   -0.26285     4 1s   -0.78050
                                    4 1s    0.93439     5 1s    0.78126     5 1s   -0.93513     6 1s    0.26317
   23.1    -0.00000     1.14639     1 1s   -0.38003     1 2px   0.49181     1 2py  -0.52471     1 2px  -1.01057     1 2py   0.91908
                                    2 1s    0.38195     2 2px   0.49136     2 2py  -0.52445     2 2px  -1.01008     2 2py   0.91888
                                    3 1s    0.56547     3 1s   -1.30263     4 1s    0.43954     5 1s   -0.44007     6 1s   -0.56452
                                    6 1s    1.30117
   24.1    -0.00000     1.19837     1 1s   -0.74142     1 1s    1.18963     1 2px   0.29756     1 2py  -0.31014     1 2px  -0.34317
                                    1 2py   0.33048     2 1s   -0.74012     2 1s    1.18533     2 2px  -0.29826     2 2py   0.31105
                                    2 2px   0.34522     2 2py  -0.33230     3 1s    0.72980     3 1s   -1.14466     6 1s    0.73046
                                    6 1s   -1.14584
   25.1    -0.00000     1.24914     1 1s    1.62157     1 1s   -4.82346     1 2px  -1.02374     1 2py   0.71900     1 2pz   1.16631
                                    2 1s   -1.62445     2 1s    4.82881     2 2px  -1.02236     2 2py   0.71760     2 2pz   1.16835
                                    3 1s    0.59491     4 1s    0.88196     5 1s   -0.88304     6 1s   -0.59766
   26.1    -0.00000     1.29152     1 1s   -1.18650     1 1s    2.26387     1 2px  -0.55824     1 2py   0.62263     1 2pz  -1.05081
                                    2 1s   -1.18335     2 1s    2.25368     2 2px   0.56078     2 2py  -0.62431     2 2pz   1.04811
                                    3 1s   -0.50278     3 1s   -0.92616     4 1s   -0.39946     4 1s   -0.46152     5 1s   -0.39909
                                    5 1s   -0.46003     6 1s   -0.50259     6 1s   -0.92538
   27.1    -0.00000     1.72773     1 1s    0.65628     1 3d0   0.40869     1 3d2- -0.26991     1 3d2+ -0.30770     2 1s   -0.65607
                                    2 3d0  -0.40867     2 3d2-  0.26993     2 3d2+  0.30772
   28.1    -0.00000     1.88093     1 1s    0.26656     1 1s   -0.60219     1 2pz   0.31857     1 3d0   0.33472     1 3d1+  0.32749
                                    1 3d2+  0.36497     1 3d1-  0.33084     2 1s    0.26634     2 1s   -0.60122     2 2pz  -0.31826
                                    2 3d0   0.33457     2 3d1+  0.32761     2 3d2+  0.36493     2 3d1-  0.33102     3 1s    0.25905
                                    6 1s    0.25911
   29.1    -0.00000     1.97688     1 1s   -0.26999     1 1s    1.33747     1 2px   0.29126     1 2pz  -0.36355     1 3d2- -0.33269
                                    1 3d1+  0.38126     1 3d1-  0.40710     2 1s    0.26993     2 1s   -1.33751     2 2px   0.29120
                                    2 2pz  -0.36355     2 3d2-  0.33262     2 3d1+ -0.38109     2 3d1- -0.40697     3 1s   -0.33500
                                    6 1s    0.33508
   30.1    -0.00000     2.14643     1 1s    0.27703     1 1s   -1.42544     1 2px  -0.30419     1 2py   0.28324     1 2pz   0.39733
                                    1 3d0   0.53220     1 3d2+  0.39387     2 1s   -0.27701     2 1s    1.42560     2 2px  -0.30407
                                    2 2py   0.28310     2 2pz   0.39742     2 3d0  -0.53221     2 3d2+ -0.39399     3 1s    0.33035
                                    4 1s    0.32782     5 1s   -0.32787     6 1s   -0.33050
   31.1    -0.00000     2.25453     1 1s    0.49944     1 1s   -0.37574     1 2px   0.26720     1 2px  -0.25565     1 3d2-  0.35315
                                    1 3d1+  0.42106     1 3d2+ -0.36955     2 1s    0.49945     2 1s   -0.37591     2 2px  -0.26718
                                    2 2px   0.25574     2 3d2-  0.35309     2 3d1+  0.42110     2 3d2+ -0.36953
   32.1    -0.00000     2.35366     1 2px  -0.27053     1 2py   0.32678     1 3d0   0.54988     1 3d2- -0.34261     1 3d1- -0.34302
                                    2 2px   0.27076     2 2py  -0.32694     2 3d0   0.54993     2 3d2- -0.34259     2 3d1- -0.34299
                                    3 1s   -0.26641     4 1s    0.36474     5 1s    0.36481     6 1s   -0.26635
   33.1    -0.00000     2.55931     1 2py  -0.27131     1 3d2-  0.45522     1 3d1-  0.61277     2 2py  -0.27140     2 3d2- -0.45504
                                    2 3d1- -0.61275     3 1s    0.50930     4 1s   -0.38904     5 1s    0.38915     6 1s   -0.50915
   34.1    -0.00000     2.66986     1 1s   -0.25976     1 2py   0.29020     1 3d2-  0.49530     1 3d2+  0.48568     1 3d1- -0.50154
                                    2 1s   -0.25997     2 2py  -0.29021     2 3d2-  0.49545     2 3d2+  0.48568     2 3d1- -0.50139
                                    4 1s    0.36981     5 1s    0.36977
   35.1    -0.00000     2.76611     1 3d0  -0.40370     1 3d2- -0.41872     1 3d1+  0.50246     1 3d1- -0.35421     2 3d0  -0.40373
                                    2 3d2- -0.41892     2 3d1+  0.50264     2 3d1- -0.35443     3 1s   -0.47614     4 1s    0.25837
                                    5 1s    0.25847     6 1s   -0.47650
   36.1    -0.00000     2.96525     1 1s   -1.81818     1 2px  -0.45222     1 2px  -0.90831     1 2py   0.27275     1 2pz   0.46692
                                    1 3d2-  0.36846     1 3d1+  0.70847     1 3d2+ -0.63419     2 1s    1.81815     2 2px  -0.45223
                                    2 2px  -0.90830     2 2py   0.27271     2 2pz   0.46691     2 3d2- -0.36851     2 3d1+ -0.70840
                                    2 3d2+  0.63422


 Natural orbital dump (state averaged) at molpro section  2140.2    (Orbital set 2)



 **********************************************************************************************************************************
 DATASETS  * FILE   NREC   LENGTH (MB)   RECORD NAMES
              1      20       31.86       500      610      700      900      950      970     1000      129      960     1100   
                                          VAR    BASINP    GEOM    SYMINP    ZMAT    AOBASIS   BASIS     P2S    ABASIS      S 
                                         1400     1410     1200     1210     1080     1600     1650     1300     1700     1380   
                                           T        V       H0       H01     AOSYM     SMH    MOLCAS    ERIS     OPER     JKOP   

              2       5        5.42       700     1000      520     2100     2140   
                                         GEOM     BASIS   MCVARS     RHF     MCSCF   

 PROGRAMS   *        TOTAL     MULTI    HF-SCF       INT
 CPU TIMES  *         0.76      0.32      0.13      0.20
 REAL TIME  *         1.64 SEC
 DISK USED  *        39.05 MB
 **********************************************************************************************************************************
 Molecular orbitals read from record     2140.2  Type=MCSCF/NATURAL (state averaged)
 Occupation numbers read from record     2140.2  Type=MCSCF/NATURAL (state averaged)
 Orbital energies read from record       2140.2  Type=MCSCF/NATURAL (state averaged)
 Redundancy group numbers read from rec  2140.2  Type=MCSCF/NATURAL (state averaged)

 MULTI/6-31G* energy=    -77.583529184924

           MULTI          HF-SCF
    -77.58352918    -77.80974956
 **********************************************************************************************************************************
 Molpro calculation terminated
