
 Primary working directories    : /scratch.local/johan406.molpro_temp/molpro.dOKBTsYHjg
 Secondary working directories  : /scratch.local/johan406.molpro_temp/molpro.dOKBTsYHjg
 Wavefunction directory         : /home/goodpast/johan406/wfu/
 Main file repository           : /scratch.local/johan406.molpro_temp/molpro.dOKBTsYHjg/

 id        : roweumn

 Nodes     nprocs
 acn09        1

 Using customized tuning parameters: mindgm=1; mindgv=20; mindgc=4; mindgr=1; noblas=0; minvec=7
 default implementation of scratch files=df  


 Variables initialized (934), CPU time= 0.01 sec
                                                                                 !leave this line blank
 
 gprint, orbitals=30
 memory, 125., m
 symmetry, nosym
 nelect=16
 basis=6-31g*
 
 geometry={
 C -0.6009 0.1569 0.2987
 C 0.6098 -0.2068 -0.359
 H -1.2959 0.8548 -0.1614
 H -0.7702 -0.815 -0.227
 H 0.7791 0.7651 0.1666
 H 1.3048 -0.9047 0.1009
 }
 
 hf
 {multi,
 closed 7
 occ 9
 wf,spin=0;STATE,3
 }
 
 Commands  initialized (763), CPU time= 0.01 sec, 617 directives.
 Default parameters read. Elapsed time= 0.07 sec

 Checking input...
 Passed
1


                                         ***  PROGRAM SYSTEM MOLPRO  ***
                                       Copyright, TTI GmbH Stuttgart, 2015
                                    Version 2019.2 linked Oct 25 2019 22:50:27


 **********************************************************************************************************************************
 LABEL *                                                                                 
  64 bit serial version                                                                  DATE: 07-Feb-23          TIME: 15:41:22  
 **********************************************************************************************************************************

 SHA1:             8dbd9ae1082e4ce945b0f27595c9eb2d4aa09004
 **********************************************************************************************************************************


 Variable memory set to  125000000 words,  buffer space 

 SETTING NELECT         =        16.00000000                                  
 SETTING BASIS          =    6-31G*
 ZSYMEL=NOSYM


Geometry recognized as XYZ



 Recomputing integrals since basis changed


 Using spherical harmonics

 Library entry C      S 6-31G                selected for orbital group  1
 Library entry C      P 6-31G                selected for orbital group  1
 Library entry C      D 6-31G*               selected for orbital group  1
 Library entry H      S 6-31G                selected for orbital group  2


 PROGRAM * SEWARD (Integral evaluation for generally contracted gaussian basis sets)     Author: Roland Lindh, 1990

 Geometry written to block  1 of record 700


 Point group  C1  



 ATOMIC COORDINATES

 NR  ATOM    CHARGE       X              Y              Z

   1  C       6.00   -1.135536428    0.296498029    0.564461193
   2  C       6.00    1.152354991   -0.390795363   -0.678411679
   3  H       1.00   -2.448896085    1.615337891   -0.305001797
   4  H       1.00   -1.455467061   -1.540126792   -0.428967830
   5  H       1.00    1.472285624    1.445829458    0.314828372
   6  H       1.00    2.465714647   -1.709635225    0.190673366

 Bond lengths in Bohr (Angstrom)

 1-2  2.692870648  1-3  2.054316933  1-4  2.112450607  2-5  2.112361745  2-6  2.054157001
     ( 1.425005779)     ( 1.087097705)     ( 1.117860720)     ( 1.117813696)     ( 1.087013073)

 Bond angles

  1-2-5   71.92565676   1-2-6  120.78416072   2-1-3  120.77584067   2-1-4   71.92395492

  3-1-4  105.20646903   5-2-6  105.21572193

 NUCLEAR CHARGE:                   16
 NUMBER OF PRIMITIVE AOS:          72
 NUMBER OF SYMMETRY AOS:           70
 NUMBER OF CONTRACTIONS:           36   (   36A   )
 NUMBER OF CORE ORBITALS:           2   (    2A   )
 NUMBER OF VALENCE ORBITALS:       12   (   12A   )


 NUCLEAR REPULSION ENERGY   33.49558388

 Eigenvalues of metric

         1 0.947E-02 0.236E-01 0.481E-01 0.593E-01 0.785E-01 0.206E+00 0.243E+00 0.253E+00


 Contracted 2-electron integrals neglected if value below      1.0D-11
 AO integral compression algorithm  1   Integral accuracy      1.0D-11

     1.573 MB (compressed) written to integral file ( 60.4%)


 NUMBER OF SORTED TWO-ELECTRON INTEGRALS:     222111.     BUFFER LENGTH:  32768
 NUMBER OF SEGMENTS:   1  SEGMENT LENGTH:     222111      RECORD LENGTH: 524288

 Memory used in sort:       0.78 MW

 SORT1 READ      284735. AND WROTE      212532. INTEGRALS IN      1 RECORDS. CPU TIME:     0.01 SEC, REAL TIME:     0.00 SEC
 SORT2 READ      212532. AND WROTE      222111. INTEGRALS IN      6 RECORDS. CPU TIME:     0.02 SEC, REAL TIME:     0.02 SEC

 FILE SIZES:   FILE 1:    31.7 MBYTE,  FILE 4:     4.2 MBYTE,   TOTAL:     35.9 MBYTE

 OPERATOR DM      FOR CENTER  0  COORDINATES:    0.000000    0.000000    0.000000


 **********************************************************************************************************************************
 DATASETS  * FILE   NREC   LENGTH (MB)   RECORD NAMES
              1      19       31.14       500      610      700      900      950      970     1000      129      960     1100   
                                          VAR    BASINP    GEOM    SYMINP    ZMAT    AOBASIS   BASIS     P2S    ABASIS      S 
                                         1400     1410     1200     1210     1080     1600     1650     1300     1700   
                                           T        V       H0       H01     AOSYM     SMH    MOLCAS    ERIS     OPER   

 PROGRAMS   *        TOTAL       INT
 CPU TIMES  *         0.30      0.19
 REAL TIME  *         0.50 SEC
 DISK USED  *        36.24 MB
 **********************************************************************************************************************************


 PROGRAM * RHF-SCF (CLOSED SHELL)       Authors: W. Meyer, H.-J. Werner


 NUMBER OF ELECTRONS:       8+    8-    SPACE SYMMETRY=1    SPIN SYMMETRY: Singlet 
 CONVERGENCE THRESHOLDS:    1.00E-05 (Density)    1.00E-07 (Energy)
 MAX. NUMBER OF ITERATIONS:       60
 INTERPOLATION TYPE:            DIIS
 INTERPOLATION STEPS:              2 (START)      1 (STEP)
 LEVEL SHIFTS:                  0.00 (CLOSED)  0.00 (OPEN) 



 Orbital guess generated from atomic densities. Full valence occupancy:    8

 Molecular orbital dump at record        2100.2

 Initial occupancy:   8

 ITERATION    DDIFF          GRAD             ENERGY        2-EL.EN.            DIPOLE MOMENTS         DIIS   ORB.
    1      0.000D+00      0.000D+00       -77.74318118    117.898031    0.00005    0.00002   -0.00016    0    start
    2      0.000D+00      0.714D-02       -77.76068222    116.833483    0.00012    0.00000   -0.00013    1    diag
    3      0.933D-02      0.217D-02       -77.76246341    117.249247    0.00013   -0.00000   -0.00014    2    diag
    4      0.310D-02      0.748D-03       -77.76277306    117.115615    0.00014   -0.00000   -0.00014    3    diag
    5      0.178D-02      0.201D-03       -77.76281242    117.120694    0.00015   -0.00000   -0.00014    4    diag
    6      0.812D-03      0.552D-04       -77.76281607    117.119320    0.00015   -0.00000   -0.00014    5    diag
    7      0.259D-03      0.184D-04       -77.76281673    117.119177    0.00016   -0.00000   -0.00015    6    diag
    8      0.765D-04      0.115D-04       -77.76281720    117.119637    0.00015    0.00000   -0.00014    7    diag
    9      0.613D-04      0.790D-05       -77.76281759    117.120420    0.00017   -0.00001   -0.00017    8    diag
   10      0.104D-03      0.201D-05       -77.76281761    117.120617    0.00013    0.00002   -0.00011    9    orth
   11      0.257D-04      0.739D-06       -77.76281761    117.120633    0.00016   -0.00000   -0.00015    9    diag
   12      0.237D-05      0.198D-06       -77.76281761    117.120635    0.00015    0.00000   -0.00014    0    orth

 Final occupancy:   8

 !RHF STATE  1.1 Energy               -77.762817612086
 Nuclear energy                        33.49558388
 One-electron energy                 -169.81871878
 Two-electron energy                   58.56031729
 Virial quotient                       -0.99744806
 !RHF STATE  1.1 Dipole moment          0.00015112     0.00000081    -0.00014114
 Dipole moment /Debye                   0.00038410     0.00000207    -0.00035871

 ELECTRON ORBITALS
 =================

  Orbital  Occupation    Energy     Coefficients
    1.1     2.00000   -11.25448     1 1s    0.70411     2 1s    0.70468
    2.1     2.00000   -11.25346     1 1s    0.70476     2 1s   -0.70420
    3.1     2.00000    -1.08676     1 1s    0.27720     2 1s    0.27722
    4.1     2.00000    -0.78128     1 1s   -0.30428     2 1s    0.30426
    5.1     2.00000    -0.65096     1 2py   0.30698     2 2py   0.30711
    6.1     2.00000    -0.58352     1 2px   0.30102     2 2px  -0.30103
    7.1     2.00000    -0.41428     1 1s    0.25870     1 2pz   0.30664     1 2pz   0.26646     2 1s   -0.25864     2 2pz   0.30664
                                    2 2pz   0.26647
    8.1     2.00000    -0.32430     1 2px   0.27552     2 2px  -0.27551     4 1s   -0.33001     5 1s   -0.32997
    9.1     0.00000     0.06282     1 1s    0.41162     1 2pz   0.31750     1 2pz   0.45938     2 1s    0.41158     2 2pz  -0.31753
                                    2 2pz  -0.45945
   10.1     0.00000     0.21578     1 1s   -1.06014     1 2px   0.32600     1 2py   0.42422     1 2pz   0.35142     2 1s   -1.06009
                                    2 2px  -0.32603     2 2py  -0.42421     2 2pz  -0.35131     3 1s    0.37898     4 1s    1.15374
                                    5 1s    1.15374     6 1s    0.37896
   11.1     0.00000     0.27464     1 1s   -1.59105     1 2py  -0.30601     1 2pz   0.45966     2 1s    1.59088     2 2py  -0.30573
                                    2 2pz   0.45934     3 1s    1.43931     6 1s   -1.43881
   12.1     0.00000     0.30867     1 1s   -0.94240     1 2px   0.55600     1 2py  -0.87578     1 2pz   0.55718     2 1s   -0.94317
                                    2 2px  -0.55610     2 2py   0.87600     2 2pz  -0.55729     3 1s    1.64914     6 1s    1.64998
   13.1     0.00000     0.36599     1 1s   -0.86661     1 2px   0.38717     1 2py   0.86217     1 2pz   0.38991     2 1s    0.86674
                                    2 2px   0.38718     2 2py   0.86229     2 2pz   0.38989     4 1s    1.96870     5 1s   -1.96888
   14.1     0.00000     0.43850     1 1s    2.25718     1 2px   1.88185     1 2py  -0.71826     1 2pz  -0.87025     2 1s   -2.25696
                                    2 2px   1.88196     2 2py  -0.71839     2 2pz  -0.87024     3 1s    0.67093     6 1s   -0.67129
   15.1     0.00000     0.70607     1 2px  -0.54029     1 2pz   0.28634     1 2px   0.99734     1 2py  -0.27419     2 2px   0.54028
                                    2 2pz  -0.28637     2 2px  -0.99741     2 2py   0.27410     3 1s    0.28936     4 1s   -0.51316
                                    5 1s   -0.51309     6 1s    0.28954
   16.1     0.00000     0.74623     1 1s   -0.57655     1 2py  -0.37320     1 2px  -0.57646     1 2py   0.93063     1 2pz   0.31585
                                    2 1s    0.57622     2 2py  -0.37335     2 2px  -0.57673     2 2py   0.93123     2 2pz   0.31588
                                    3 1s   -0.43731     4 1s    0.31101     5 1s   -0.31107     6 1s    0.43736
   17.1     0.00000     0.76954     1 2py  -0.57582     1 2py   1.09325     2 2py   0.57566     2 2py  -1.09318     4 1s    0.36490
                                    4 1s   -0.28548     5 1s    0.36489     5 1s   -0.28530
   18.1     0.00000     0.78810     1 1s   -0.26776     1 2pz  -0.69084     1 2px   0.30443     1 2pz   0.73889     2 1s    0.26807
                                    2 2pz  -0.69083     2 2px   0.30458     2 2pz   0.73892
   19.1     0.00000     0.86857     1 1s   -0.37431     1 2px  -0.26476     1 2pz  -0.68984     1 2px   0.53523     1 2py  -0.44634
                                    1 2pz   0.97848     2 1s   -0.37432     2 2px   0.26482     2 2pz   0.68976     2 2px  -0.53542
                                    2 2py   0.44639     2 2pz  -0.97834
   20.1     0.00000     0.93900     1 1s   -0.65500     1 2px  -0.62163     1 2py  -0.31923     1 2px   0.73349     1 2py   0.98099
                                    2 1s    0.65550     2 2px  -0.62155     2 2py  -0.31925     2 2px   0.73350     2 2py   0.98104
                                    4 1s    1.15088     5 1s   -1.15117
   21.1     0.00000     1.08983     1 1s   -0.50408     1 1s    0.97673     1 2py   0.47748     1 2py  -0.52314     2 1s   -0.50458
                                    2 1s    0.97857     2 2py  -0.47701     2 2py   0.52269     4 1s    0.66101     4 1s   -1.20725
                                    5 1s    0.66036     5 1s   -1.20610
   22.1     0.00000     1.11578     1 1s   -0.56062     1 1s    2.47202     1 2px  -0.39943     1 2px   1.62516     1 2pz  -0.48053
                                    2 1s    0.56069     2 1s   -2.47213     2 2px  -0.39957     2 2px   1.62512     2 2pz  -0.48085
                                    3 1s   -0.37301     3 1s    0.44786     4 1s   -0.58220     4 1s    0.79437     5 1s    0.58287
                                    5 1s   -0.79511     6 1s    0.37294     6 1s   -0.44730
   23.1     0.00000     1.15134     1 1s    0.43117     1 1s   -0.90132     1 2px  -0.40655     1 2py   0.57562     1 2px   0.47818
                                    1 2py  -0.79368     2 1s   -0.42980     2 1s    0.89914     2 2px  -0.40598     2 2py   0.57554
                                    2 2px   0.47762     2 2py  -0.79370     3 1s   -0.47817     3 1s    1.28667     4 1s    0.33123
                                    4 1s   -0.58205     5 1s   -0.33172     5 1s    0.58300     6 1s    0.47718     6 1s   -1.28526
   24.1     0.00000     1.19867     1 1s   -0.87960     1 1s    1.47512     1 2px   0.32954     1 2py  -0.26133     1 2px  -0.42689
                                    1 2py   0.32272     1 2pz  -0.33334     2 1s   -0.87965     2 1s    1.47473     2 2px  -0.33025
                                    2 2py   0.26227     2 2px   0.42812     2 2py  -0.32417     2 2pz   0.33299     3 1s    0.67339
                                    3 1s   -1.20253     4 1s   -0.28699     5 1s   -0.28587     6 1s    0.67413     6 1s   -1.20433
   25.1     0.00000     1.26255     1 1s    1.45959     1 1s   -4.21152     1 2py  -0.26164     1 2pz  -0.28439     1 2px  -0.82760
                                    1 2py   0.82116     1 2pz   1.09447     2 1s   -1.46088     2 1s    4.21408     2 2py  -0.26147
                                    2 2pz  -0.28455     2 2px  -0.82693     2 2py   0.82058     2 2pz   1.09542     3 1s    0.47964
                                    4 1s   -0.30426     4 1s    1.12190     5 1s    0.30408     5 1s   -1.12262     6 1s   -0.48081
   26.1     0.00000     1.33206     1 1s   -1.15598     1 1s    2.33668     1 2px  -0.58581     1 2py   0.66676     1 2pz  -1.11699
                                    2 1s   -1.15449     2 1s    2.33183     2 2px   0.58708     2 2py  -0.66769     2 2pz   1.11552
                                    3 1s   -0.58591     3 1s   -0.92049     4 1s   -0.40275     4 1s   -0.53309     5 1s   -0.40265
                                    5 1s   -0.53228     6 1s   -0.58577     6 1s   -0.92025
   27.1     0.00000     1.78247     1 1s    0.33564     1 3d0   0.47987     1 3d1+ -0.25584     1 3d2+ -0.26939     2 1s   -0.33538
                                    2 3d0  -0.47982     2 3d1+  0.25587     2 3d2+  0.26943
   28.1     0.00000     1.84490     1 1s   -0.49565     1 2pz   0.26288     1 3d0   0.32809     1 3d1+  0.32735     1 3d2+  0.37264
                                    1 3d1-  0.33261     2 1s   -0.49506     2 2pz  -0.26268     2 3d0   0.32804     2 3d1+  0.32740
                                    2 3d2+  0.37256     2 3d1-  0.33274
   29.1     0.00000     2.02875     1 1s    1.15579     1 2py  -0.25512     1 2pz  -0.33212     1 3d2- -0.34499     1 3d1+  0.36434
                                    1 3d1-  0.42632     2 1s   -1.15567     2 2py  -0.25514     2 2pz  -0.33205     2 3d2-  0.34495
                                    2 3d1+ -0.36422     2 3d1- -0.42624     3 1s   -0.29172     4 1s   -0.29369     5 1s    0.29367
                                    6 1s    0.29173
   30.1     0.00000     2.11917     1 1s   -1.30212     1 2py   0.30105     1 2pz   0.38561     1 3d0   0.45620     1 3d2-  0.26820
                                    1 3d2+  0.42726     2 1s    1.30225     2 2py   0.30093     2 2pz   0.38570     2 3d0  -0.45621
                                    2 3d2- -0.26813     2 3d2+ -0.42737     3 1s    0.32401     4 1s    0.37714     5 1s   -0.37719
                                    6 1s   -0.32415
   31.1     0.00000     2.26444     1 1s    0.49788     1 1s   -0.39905     1 2px   0.25794     1 3d2-  0.37995     1 3d1+  0.43289
                                    1 3d2+ -0.35403     2 1s    0.49786     2 1s   -0.39907     2 2px  -0.25791     2 3d2-  0.37987
                                    2 3d1+  0.43293     2 3d2+ -0.35401
   32.1     0.00000     2.37659     1 1s    0.30462     1 1s   -0.25626     1 2px  -0.31914     1 2py   0.26632     1 3d0   0.57586
                                    1 3d2- -0.31040     1 3d1- -0.30781     2 1s    0.30468     2 1s   -0.25672     2 2px   0.31935
                                    2 2py  -0.26648     2 3d0   0.57590     2 3d2- -0.31039     2 3d1- -0.30784     4 1s    0.36036
                                    5 1s    0.36043
   33.1     0.00000     2.52853     1 3d2-  0.43137     1 3d1-  0.61041     2 3d2- -0.43127     2 3d1- -0.61035     3 1s    0.52737
                                    4 1s   -0.37159     5 1s    0.37167     6 1s   -0.52725
   34.1     0.00000     2.67972     1 1s   -0.30678     1 2py   0.27059     1 3d2-  0.49217     1 3d2+  0.47041     1 3d1- -0.52553
                                    2 1s   -0.30700     2 2py  -0.27063     2 3d2-  0.49227     2 3d2+  0.47041     2 3d1- -0.52545
                                    4 1s    0.38101     5 1s    0.38102
   35.1     0.00000     2.79613     1 3d0  -0.38894     1 3d2- -0.42957     1 3d1+  0.50675     1 3d1- -0.37379     2 3d0  -0.38896
                                    2 3d2- -0.42971     2 3d1+  0.50696     2 3d1- -0.37400     3 1s   -0.49002     4 1s    0.28968
                                    5 1s    0.28976     6 1s   -0.49034
   36.1     0.00000     2.97649     1 1s   -1.87516     1 2px  -0.48155     1 2pz   0.26254     1 2px  -0.92801     1 2py   0.29500
                                    1 2pz   0.48334     1 3d2-  0.38821     1 3d1+  0.71664     1 3d2+ -0.62546     2 1s    1.87511
                                    2 2px  -0.48157     2 2pz   0.26254     2 2px  -0.92799     2 2py   0.29497     2 2pz   0.48332
                                    2 3d2- -0.38829     2 3d1+ -0.71654     2 3d2+  0.62550


 HOMO      8.1    -0.324297 =      -8.8246eV
 LUMO      9.1     0.062817 =       1.7093eV
 LUMO-HOMO         0.387114 =      10.5339eV


 **********************************************************************************************************************************
 DATASETS  * FILE   NREC   LENGTH (MB)   RECORD NAMES
              1      19       31.14       500      610      700      900      950      970     1000      129      960     1100   
                                          VAR    BASINP    GEOM    SYMINP    ZMAT    AOBASIS   BASIS     P2S    ABASIS      S 
                                         1400     1410     1200     1210     1080     1600     1650     1300     1700   
                                           T        V       H0       H01     AOSYM     SMH    MOLCAS    ERIS     OPER   

              2       4        2.86       700     1000      520     2100   
                                         GEOM     BASIS   MCVARS     RHF  

 PROGRAMS   *        TOTAL    HF-SCF       INT
 CPU TIMES  *         0.42      0.13      0.19
 REAL TIME  *         0.68 SEC
 DISK USED  *        36.24 MB
 **********************************************************************************************************************************


 PROGRAM * MULTI (Direct Multiconfiguration SCF)       Authors: P.J. Knowles, H.-J. Werner (1984)


 Number of closed-shell orbitals:   7 (   7 )
 Number of active  orbitals:        2 (   2 )
 Number of external orbitals:      27 (  27 )

 State symmetry 1

 Number of electrons:     2    Spin symmetry=Singlet   Space symmetry=1
 Number of states:        3
 Number of CSFs:          3   (4 determinants, 4 intermediate states)

 Molecular orbitals read from record     2100.2  Type=RHF/CANONICAL (state 1.1)

 Wavefunction dump at record             2140.2

 Convergence thresholds  0.10E-01 (gradient)  0.10E-05 (energy)  0.10E-02 (step length)

 Weight factors for state symmetry  1:    0.33333   0.33333   0.33333

 Number of orbital rotations:      257   (    14 Core/Active    189 Core/Virtual   0 Active/Active     54 Active/Virtual)
 Total number of variables:        269

 Micro-Iterations solved by the two-step solver

 ITER. MIC  NCI  NEG     ENERGY(VAR)     ENERGY(PROJ)   ENERGY CHANGE     GRAD(0)  GRAD(ORB)   GRAD(CI)     STEP       TIME

   1    6    5    0     -77.67914932     -77.69600214   -0.01685282    0.16117543 0.00024061 0.00000000  0.14D+00      0.11
   2    5    5    0     -77.69569853     -77.69571554   -0.00001700    0.00594165 0.00000141 0.00000000  0.47D-02      0.20
   3    4    4    0     -77.69571556     -77.69571556   -0.00000000    0.00001096 0.00000000 0.00000000  0.17D-04      0.27

 ** WVFN ****  CONVERGENCE REACHED, FINAL GRADIENT:  0.10D-09



 Results for state 1.1
 =====================

 !MCSCF STATE  1.1 Energy             -77.759192573943
 Nuclear energy                        33.49558388
 Kinetic energy                        78.02015115
 One electron energy                 -169.89479088
 Two electron energy                   58.64001443
 Virial ratio                           1.99665524

 !MCSCF STATE  1.1 Dipole moment        0.00017624    -0.00000828    -0.00017125
 Dipole moment /Debye                   0.00044793    -0.00002105    -0.00043524

 Results for state 2.1
 =====================

 !MCSCF STATE  2.1 Energy             -77.717126820803
 Nuclear energy                        33.49558388
 Kinetic energy                        78.10243120
 One electron energy                 -169.69961590
 Two electron energy                   58.48690520
 Virial ratio                           1.99506668

 !MCSCF STATE  2.1 Dipole moment        0.00006627    -0.00002706    -0.00010095
 Dipole moment /Debye                   0.00016844    -0.00006877    -0.00025658

 Results for state 3.1
 =====================

 !MCSCF STATE  3.1 Energy             -77.610827292873
 Nuclear energy                        33.49558388
 Kinetic energy                        78.11654004
 One electron energy                 -169.46659094
 Two electron energy                   58.36017977
 Virial ratio                           1.99352618

 !MCSCF STATE  3.1 Dipole moment       -0.00002595    -0.00007909    -0.00006261
 Dipole moment /Debye                  -0.00006594    -0.00020100    -0.00015914

 State-averaged charge density matrix saved on record  2140.2 (density set 1)

 !MCSCF expec         <1.1|DMX|1.1>     0.000176240594 au =     0.000447929570 Debye
 !MCSCF trans         <2.1|DMX|1.1>     0.000000371965 au =     0.000000945378 Debye
 !MCSCF expec         <2.1|DMX|2.1>     0.000066274036 au =     0.000168440763 Debye
 !MCSCF trans         <3.1|DMX|1.1>     0.000026195488 au =     0.000066577928 Debye
 !MCSCF trans         <3.1|DMX|2.1>    -0.000024799765 au =    -0.000063030586 Debye
 !MCSCF expec         <3.1|DMX|3.1>    -0.000025945711 au =    -0.000065943101 Debye

 !MCSCF expec         <1.1|DMY|1.1>    -0.000008282727 au =    -0.000021051213 Debye
 !MCSCF trans         <2.1|DMY|1.1>     0.000026509011 au =     0.000067374773 Debye
 !MCSCF expec         <2.1|DMY|2.1>    -0.000027059720 au =    -0.000068774444 Debye
 !MCSCF trans         <3.1|DMY|1.1>     0.000002425590 au =     0.000006164831 Debye
 !MCSCF trans         <3.1|DMY|2.1>     0.000024785852 au =     0.000062995227 Debye
 !MCSCF expec         <3.1|DMY|3.1>    -0.000079086256 au =    -0.000201004045 Debye

 !MCSCF expec         <1.1|DMZ|1.1>    -0.000171246042 au =    -0.000435235515 Debye
 !MCSCF trans         <2.1|DMZ|1.1>     0.000014784214 au =     0.000037575263 Debye
 !MCSCF expec         <2.1|DMZ|2.1>    -0.000100954024 au =    -0.000256582728 Debye
 !MCSCF trans         <3.1|DMZ|1.1>    -0.000017907448 au =    -0.000045513213 Debye
 !MCSCF trans         <3.1|DMZ|2.1>     0.000032336971 au =     0.000082186999 Debye
 !MCSCF expec         <3.1|DMZ|3.1>    -0.000062614227 au =    -0.000159139068 Debye


 NATURAL ORBITALS (state averaged)
 =================================

  Orbital  Occupation    Energy     Coefficients
    1.1     2.00000   -11.25137     1 1s    0.70816     2 1s    0.70060
    2.1     2.00000   -11.25046     1 1s    0.70066     2 1s   -0.70822
    3.1     2.00000    -1.09849     1 1s    0.27510     2 1s    0.27512
    4.1     2.00000    -0.78470     1 1s   -0.31951     2 1s    0.31950
    5.1     2.00000    -0.65320     1 2py   0.29986     2 2py   0.29997
    6.1     2.00000    -0.58338     1 2px   0.27823     2 2px  -0.27823
    7.1     2.00000    -0.43525     1 2pz   0.31633     1 2pz   0.26068     2 2pz   0.31631     2 2pz   0.26068
    8.1     1.00000    -0.15972     1 2px   0.29688     2 2px  -0.29688     4 1s   -0.34454     5 1s   -0.34451
    9.1     1.00000    -0.08826     1 1s    0.28095     1 2pz   0.38932     1 2pz   0.41904     2 1s    0.28094     2 2pz  -0.38935
                                    2 2pz  -0.41908
   10.1    -0.00000     0.20914     1 1s   -1.09021     1 2px   0.33075     1 2py   0.40567     1 2pz   0.31239     2 1s   -1.09011
                                    2 2px  -0.33078     2 2py  -0.40564     2 2pz  -0.31225     3 1s    0.39888     4 1s    1.14926
                                    5 1s    1.14920     6 1s    0.39883
   11.1    -0.00000     0.27313     1 1s   -1.61004     1 2py  -0.28447     1 2pz   0.46279     2 1s    1.60984     2 2py  -0.28411
                                    2 2pz   0.46246     3 1s    1.43485     6 1s   -1.43425
   12.1    -0.00000     0.31027     1 1s   -0.96197     1 2px   0.53533     1 2py  -0.88770     1 2pz   0.51672     2 1s   -0.96291
                                    2 2px  -0.53544     2 2py   0.88788     2 2pz  -0.51688     3 1s    1.64831     6 1s    1.64924
   13.1    -0.00000     0.35653     1 1s   -0.95322     1 2px   0.25236     1 2py   0.92591     1 2pz   0.42004     2 1s    0.95331
                                    2 2px   0.25235     2 2py   0.92610     2 2pz   0.42001     4 1s    1.98528     5 1s   -1.98550
   14.1    -0.00000     0.44415     1 1s    2.13790     1 2px   1.90660     1 2py  -0.59681     1 2pz  -0.81467     2 1s   -2.13767
                                    2 2px   1.90671     2 2py  -0.59693     2 2pz  -0.81465     3 1s    0.67027     6 1s   -0.67062
   15.1    -0.00000     0.70805     1 2px  -0.54083     1 2pz   0.26706     1 2px   0.99367     2 2px   0.54079     2 2pz  -0.26706
                                    2 2px  -0.99366     3 1s    0.30242     4 1s   -0.56946     5 1s   -0.56937     6 1s    0.30258
   16.1    -0.00000     0.74227     1 1s   -0.73624     1 2py  -0.36015     1 2px  -0.65717     1 2py   0.95857     1 2pz   0.33828
                                    2 1s    0.73598     2 2py  -0.36014     2 2px  -0.65755     2 2py   0.95888     2 2pz   0.33829
                                    3 1s   -0.43914     4 1s    0.31950     5 1s   -0.31943     6 1s    0.43916
   17.1    -0.00000     0.76525     1 2py  -0.55072     1 2py   1.07581     1 2pz   0.26633     2 2py   0.55067     2 2py  -1.07599
                                    2 2pz  -0.26672     4 1s    0.37204     4 1s   -0.26515     5 1s    0.37210     5 1s   -0.26495
   18.1    -0.00000     0.79247     1 1s   -0.44087     1 2pz  -0.68921     1 2px   0.26119     1 2pz   0.79685     2 1s    0.44117
                                    2 2pz  -0.68919     2 2px   0.26132     2 2pz   0.79684     4 1s    0.27591     5 1s   -0.27604
   19.1    -0.00000     0.86633     1 1s   -0.33421     1 2px  -0.26465     1 2pz  -0.66720     1 2px   0.56111     1 2py  -0.45810
                                    1 2pz   1.03266     2 1s   -0.33421     2 2px   0.26471     2 2pz   0.66714     2 2px  -0.56131
                                    2 2py   0.45814     2 2pz  -1.03256     3 1s    0.28026     6 1s    0.28031
   20.1    -0.00000     0.93954     1 1s   -0.83274     1 2px  -0.60639     1 2py  -0.30110     1 2px   0.60311     1 2py   0.97702
                                    1 2pz   0.25336     2 1s    0.83324     2 2px  -0.60630     2 2py  -0.30114     2 2px   0.60312
                                    2 2py   0.97709     2 2pz   0.25344     3 1s    0.25823     4 1s    1.06958     5 1s   -1.06986
                                    6 1s   -0.25836
   21.1    -0.00000     1.07321     1 1s   -0.53928     1 1s    1.02671     1 2py   0.48384     1 2py  -0.53824     2 1s   -0.53958
                                    2 1s    1.02789     2 2py  -0.48335     2 2py   0.53767     4 1s    0.65817     4 1s   -1.20210
                                    5 1s    0.65755     5 1s   -1.20086
   22.1    -0.00000     1.10953     1 1s   -0.49609     1 1s    2.17077     1 2px  -0.37001     1 2py  -0.32179     1 2px   1.48429
                                    1 2pz  -0.37708     2 1s    0.49597     2 1s   -2.17058     2 2px  -0.37021     2 2py  -0.32226
                                    2 2px   1.48434     2 2pz  -0.37732     3 1s   -0.29545     3 1s    0.27541     4 1s   -0.62983
                                    4 1s    1.02479     5 1s    0.63050     5 1s   -1.02562     6 1s    0.29546     6 1s   -0.27503
   23.1    -0.00000     1.15185     1 1s    0.27691     1 1s   -0.31719     1 2px  -0.47149     1 2py   0.55219     1 2px   0.76431
                                    1 2py  -0.85513     2 1s   -0.27548     2 1s    0.31492     2 2px  -0.47095     2 2py   0.55196
                                    2 2px   0.76375     2 2py  -0.85496     3 1s   -0.52190     3 1s    1.31433     4 1s    0.25329
                                    4 1s   -0.50803     5 1s   -0.25361     5 1s    0.50877     6 1s    0.52081     6 1s   -1.31270
   24.1    -0.00000     1.20034     1 1s   -0.84901     1 1s    1.40022     1 2px   0.31453     1 2py  -0.28619     1 2px  -0.39586
                                    1 2py   0.33650     1 2pz  -0.28732     2 1s   -0.84844     2 1s    1.39789     2 2px  -0.31536
                                    2 2py   0.28721     2 2px   0.39773     2 2py  -0.33829     2 2pz   0.28650     3 1s    0.69125
                                    3 1s   -1.19176     6 1s    0.69205     6 1s   -1.19349
   25.1    -0.00000     1.24763     1 1s    1.52113     1 1s   -4.42007     1 2pz  -0.25455     1 2px  -0.92231     1 2py   0.77718
                                    1 2pz   1.11769     2 1s   -1.52261     2 1s    4.42290     2 2pz  -0.25475     2 2px  -0.92156
                                    2 2py   0.77654     2 2pz   1.11862     3 1s    0.51796     4 1s   -0.25180     4 1s    1.02288
                                    5 1s    0.25168     5 1s   -1.02364     6 1s   -0.51943
   26.1    -0.00000     1.32760     1 1s   -1.17253     1 1s    2.36864     1 2px  -0.59009     1 2py   0.68405     1 2pz  -1.11642
                                    2 1s   -1.17118     2 1s    2.36418     2 2px   0.59132     2 2py  -0.68489     2 2pz   1.11507
                                    3 1s   -0.57880     3 1s   -0.93742     4 1s   -0.39231     4 1s   -0.54878     5 1s   -0.39218
                                    5 1s   -0.54810     6 1s   -0.57865     6 1s   -0.93724
   27.1    -0.00000     1.78231     1 1s    0.37781     1 3d0   0.47072     1 3d1+ -0.25953     1 3d2+ -0.27564     2 1s   -0.37754
                                    2 3d0  -0.47069     2 3d1+  0.25955     2 3d2+  0.27567
   28.1    -0.00000     1.84403     1 1s   -0.48001     1 2pz   0.25441     1 3d0   0.32621     1 3d1+  0.32363     1 3d2+  0.37750
                                    1 3d1-  0.33254     2 1s   -0.47944     2 2pz  -0.25421     2 3d0   0.32614     2 3d1+  0.32368
                                    2 3d2+  0.37741     2 3d1-  0.33267
   29.1    -0.00000     2.02495     1 1s    1.17930     1 2py  -0.26619     1 2pz  -0.34224     1 3d2- -0.35567     1 3d1+  0.36109
                                    1 3d1-  0.42411     2 1s   -1.17918     2 2py  -0.26620     2 2pz  -0.34216     2 3d2-  0.35562
                                    2 3d1+ -0.36098     2 3d1- -0.42403     3 1s   -0.30706     4 1s   -0.29798     5 1s    0.29795
                                    6 1s    0.30707
   30.1    -0.00000     2.11769     1 1s   -1.24600     1 2py   0.29233     1 2pz   0.36825     1 3d0   0.46705     1 3d2+  0.43207
                                    2 1s    1.24614     2 2py   0.29220     2 2pz   0.36834     2 3d0  -0.46706     2 3d2+ -0.43218
                                    3 1s    0.31556     4 1s    0.35882     5 1s   -0.35887     6 1s   -0.31570
   31.1    -0.00000     2.26154     1 1s    0.49242     1 1s   -0.39905     1 2px   0.26326     1 3d2-  0.38286     1 3d1+  0.43318
                                    1 3d2+ -0.35310     2 1s    0.49241     2 1s   -0.39908     2 2px  -0.26325     2 3d2-  0.38279
                                    2 3d1+  0.43322     2 3d2+ -0.35307
   32.1    -0.00000     2.37454     1 1s    0.31368     1 1s   -0.26073     1 2px  -0.32411     1 2py   0.26965     1 3d0   0.57214
                                    1 3d2- -0.31561     1 3d1- -0.30773     2 1s    0.31374     2 1s   -0.26120     2 2px   0.32433
                                    2 2py  -0.26981     2 3d0   0.57218     2 3d2- -0.31559     2 3d1- -0.30773     4 1s    0.35414
                                    5 1s    0.35421
   33.1    -0.00000     2.52780     1 3d2-  0.42977     1 3d1-  0.61329     2 3d2- -0.42968     2 3d1- -0.61324     3 1s    0.52744
                                    4 1s   -0.36675     5 1s    0.36684     6 1s   -0.52732
   34.1    -0.00000     2.67529     1 1s   -0.31029     1 2py   0.27326     1 3d2-  0.49751     1 3d2+  0.46392     1 3d1- -0.52364
                                    2 1s   -0.31053     2 2py  -0.27330     2 3d2-  0.49762     2 3d2+  0.46392     2 3d1- -0.52356
                                    4 1s    0.37503     5 1s    0.37505
   35.1    -0.00000     2.80226     1 3d0  -0.39332     1 3d2- -0.41619     1 3d1+  0.50910     1 3d1- -0.37961     2 3d0  -0.39333
                                    2 3d2- -0.41633     2 3d1+  0.50932     2 3d1- -0.37982     3 1s   -0.48666     4 1s    0.28739
                                    5 1s    0.28747     6 1s   -0.48699
   36.1    -0.00000     2.97353     1 1s   -1.89457     1 2px  -0.47607     1 2pz   0.26284     1 2px  -0.93510     1 2py   0.29952
                                    1 2pz   0.48834     1 3d2-  0.38973     1 3d1+  0.71791     1 3d2+ -0.62315     2 1s    1.89453
                                    2 2px  -0.47609     2 2pz   0.26284     2 2px  -0.93508     2 2py   0.29949     2 2pz   0.48832
                                    2 3d2- -0.38981     2 3d1+ -0.71781     2 3d2+  0.62320


 Natural orbital dump (state averaged) at molpro section  2140.2    (Orbital set 2)



 **********************************************************************************************************************************
 DATASETS  * FILE   NREC   LENGTH (MB)   RECORD NAMES
              1      20       31.87       500      610      700      900      950      970     1000      129      960     1100   
                                          VAR    BASINP    GEOM    SYMINP    ZMAT    AOBASIS   BASIS     P2S    ABASIS      S 
                                         1400     1410     1200     1210     1080     1600     1650     1300     1700     1380   
                                           T        V       H0       H01     AOSYM     SMH    MOLCAS    ERIS     OPER     JKOP   

              2       5        5.42       700     1000      520     2100     2140   
                                         GEOM     BASIS   MCVARS     RHF     MCSCF   

 PROGRAMS   *        TOTAL     MULTI    HF-SCF       INT
 CPU TIMES  *         0.74      0.32      0.13      0.19
 REAL TIME  *         1.18 SEC
 DISK USED  *        39.05 MB
 **********************************************************************************************************************************
 Molecular orbitals read from record     2140.2  Type=MCSCF/NATURAL (state averaged)
 Occupation numbers read from record     2140.2  Type=MCSCF/NATURAL (state averaged)
 Orbital energies read from record       2140.2  Type=MCSCF/NATURAL (state averaged)
 Redundancy group numbers read from rec  2140.2  Type=MCSCF/NATURAL (state averaged)

 MULTI/6-31G* energy=    -77.610827292873

           MULTI          HF-SCF
    -77.61082729    -77.76281761
 **********************************************************************************************************************************
 Molpro calculation terminated
