
 Primary working directories    : /scratch.local/johan406.molpro_temp/molpro.FPuIHwvF8d
 Secondary working directories  : /scratch.local/johan406.molpro_temp/molpro.FPuIHwvF8d
 Wavefunction directory         : /home/goodpast/johan406/wfu/
 Main file repository           : /scratch.local/johan406.molpro_temp/molpro.FPuIHwvF8d/

 id        : roweumn

 Nodes     nprocs
 acn09        1

 Using customized tuning parameters: mindgm=1; mindgv=20; mindgc=4; mindgr=1; noblas=0; minvec=7
 default implementation of scratch files=df  


 Variables initialized (934), CPU time= 0.01 sec
                                                                                 !leave this line blank
 
 gprint, orbitals=30
 memory, 125., m
 symmetry, nosym
 nelect=16
 basis=6-31g*
 
 geometry={
 C -0.6275 0.1351 0.2981
 C 0.6343 -0.1902 -0.3595
 H -1.2666 0.8928 -0.1524
 H -0.9502 -0.8319 -0.1328
 H 0.9831 0.8501 0.0817
 H 1.2765 -0.95 0.0971
 }
 
 hf
 {multi,
 closed 7
 occ 9
 wf,spin=0;STATE,3
 }
 
 Commands  initialized (763), CPU time= 0.01 sec, 617 directives.
 Default parameters read. Elapsed time= 0.08 sec

 Checking input...
 Passed
1


                                         ***  PROGRAM SYSTEM MOLPRO  ***
                                       Copyright, TTI GmbH Stuttgart, 2015
                                    Version 2019.2 linked Oct 25 2019 22:50:27


 **********************************************************************************************************************************
 LABEL *                                                                                 
  64 bit serial version                                                                  DATE: 07-Feb-23          TIME: 15:44:21  
 **********************************************************************************************************************************

 SHA1:             8dbd9ae1082e4ce945b0f27595c9eb2d4aa09004
 **********************************************************************************************************************************


 Variable memory set to  125000000 words,  buffer space 

 SETTING NELECT         =        16.00000000                                  
 SETTING BASIS          =    6-31G*
 ZSYMEL=NOSYM


Geometry recognized as XYZ



 Recomputing integrals since basis changed


 Using spherical harmonics

 Library entry C      S 6-31G                selected for orbital group  1
 Library entry C      P 6-31G                selected for orbital group  1
 Library entry C      D 6-31G*               selected for orbital group  1
 Library entry H      S 6-31G                selected for orbital group  2


 PROGRAM * SEWARD (Integral evaluation for generally contracted gaussian basis sets)     Author: Roland Lindh, 1990

 Geometry written to block  1 of record 700


 Point group  C1  



 ATOMIC COORDINATES

 NR  ATOM    CHARGE       X              Y              Z

   1  C       6.00   -1.185803143    0.255301999    0.563327358
   2  C       6.00    1.198653281   -0.359425909   -0.679356542
   3  H       1.00   -2.393527109    1.687147484   -0.287994261
   4  H       1.00   -1.795617764   -1.572063163   -0.250955629
   5  H       1.00    1.857789753    1.606456178    0.154390624
   6  H       1.00    2.412235398   -1.795239818    0.183492407

 Bond lengths in Bohr (Angstrom)

 1-2  2.758221549  1-3  2.057553686  1-4  2.091457408  2-5  2.234790283  2-6  2.068538481
     ( 1.459587986)     ( 1.088810521)     ( 1.106751598)     ( 1.182600089)     ( 1.094623424)

 Bond angles

  1-2-5   83.73294337   1-2-6  118.29105569   2-1-3  118.43190710   2-1-4   83.21885424

  3-1-4  106.00905553   5-2-6  106.37587811

 NUCLEAR CHARGE:                   16
 NUMBER OF PRIMITIVE AOS:          72
 NUMBER OF SYMMETRY AOS:           70
 NUMBER OF CONTRACTIONS:           36   (   36A   )
 NUMBER OF CORE ORBITALS:           2   (    2A   )
 NUMBER OF VALENCE ORBITALS:       12   (   12A   )


 NUCLEAR REPULSION ENERGY   32.37494073

 Eigenvalues of metric

         1 0.924E-02 0.272E-01 0.594E-01 0.636E-01 0.814E-01 0.218E+00 0.237E+00 0.272E+00


 Contracted 2-electron integrals neglected if value below      1.0D-11
 AO integral compression algorithm  1   Integral accuracy      1.0D-11

     1.573 MB (compressed) written to integral file ( 59.2%)


 NUMBER OF SORTED TWO-ELECTRON INTEGRALS:     222111.     BUFFER LENGTH:  32768
 NUMBER OF SEGMENTS:   1  SEGMENT LENGTH:     222111      RECORD LENGTH: 524288

 Memory used in sort:       0.78 MW

 SORT1 READ      284735. AND WROTE      212531. INTEGRALS IN      1 RECORDS. CPU TIME:     0.01 SEC, REAL TIME:     0.01 SEC
 SORT2 READ      212531. AND WROTE      222111. INTEGRALS IN      6 RECORDS. CPU TIME:     0.02 SEC, REAL TIME:     0.02 SEC

 FILE SIZES:   FILE 1:    31.7 MBYTE,  FILE 4:     4.2 MBYTE,   TOTAL:     35.9 MBYTE

 OPERATOR DM      FOR CENTER  0  COORDINATES:    0.000000    0.000000    0.000000


 **********************************************************************************************************************************
 DATASETS  * FILE   NREC   LENGTH (MB)   RECORD NAMES
              1      19       31.13       500      610      700      900      950      970     1000      129      960     1100   
                                          VAR    BASINP    GEOM    SYMINP    ZMAT    AOBASIS   BASIS     P2S    ABASIS      S 
                                         1400     1410     1200     1210     1080     1600     1650     1300     1700   
                                           T        V       H0       H01     AOSYM     SMH    MOLCAS    ERIS     OPER   

 PROGRAMS   *        TOTAL       INT
 CPU TIMES  *         0.28      0.18
 REAL TIME  *         0.41 SEC
 DISK USED  *        36.24 MB
 **********************************************************************************************************************************


 PROGRAM * RHF-SCF (CLOSED SHELL)       Authors: W. Meyer, H.-J. Werner


 NUMBER OF ELECTRONS:       8+    8-    SPACE SYMMETRY=1    SPIN SYMMETRY: Singlet 
 CONVERGENCE THRESHOLDS:    1.00E-05 (Density)    1.00E-07 (Energy)
 MAX. NUMBER OF ITERATIONS:       60
 INTERPOLATION TYPE:            DIIS
 INTERPOLATION STEPS:              2 (START)      1 (STEP)
 LEVEL SHIFTS:                  0.00 (CLOSED)  0.00 (OPEN) 



 Orbital guess generated from atomic densities. Full valence occupancy:    8

 Molecular orbital dump at record        2100.2

 Initial occupancy:   8

 ITERATION    DDIFF          GRAD             ENERGY        2-EL.EN.            DIPOLE MOMENTS         DIIS   ORB.
    1      0.000D+00      0.000D+00       -77.82616688    115.956374    0.04419   -0.00900   -0.03579    0    start
    2      0.000D+00      0.709D-02       -77.84427369    114.929568   -0.03401   -0.00677    0.03942    1    diag
    3      0.762D-02      0.238D-02       -77.84637804    115.337209    0.00385   -0.03641   -0.02378    2    diag
    4      0.301D-02      0.995D-03       -77.84687209    115.235036   -0.03446   -0.01907    0.02592    3    diag
    5      0.165D-02      0.455D-03       -77.84698695    115.216714   -0.02162   -0.02989    0.00407    4    diag
    6      0.621D-03      0.231D-03       -77.84707383    115.226558   -0.02731   -0.02866    0.00955    5    diag
    7      0.738D-03      0.102D-03       -77.84710331    115.227745   -0.02794   -0.02897    0.00938    6    diag
    8      0.522D-03      0.294D-04       -77.84710546    115.228789   -0.02786   -0.02893    0.00935    7    diag
    9      0.145D-03      0.860D-05       -77.84710561    115.228979   -0.02774   -0.02888    0.00931    8    diag
   10      0.370D-04      0.252D-05       -77.84710562    115.228959   -0.02770   -0.02889    0.00928    9    orth
   11      0.725D-05      0.608D-06       -77.84710562    115.228963   -0.02770   -0.02888    0.00929    0    orth

 Final occupancy:   8

 !RHF STATE  1.1 Energy               -77.847105618774
 Nuclear energy                        32.37494073
 One-electron energy                 -167.83652801
 Two-electron energy                   57.61448166
 Virial quotient                       -1.00113918
 !RHF STATE  1.1 Dipole moment         -0.02770291    -0.02887950     0.00928760
 Dipole moment /Debye                  -0.07040915    -0.07339956     0.02360517

 ELECTRON ORBITALS
 =================

  Orbital  Occupation    Energy     Coefficients
    1.1     2.00000   -11.26367     2 1s    0.99505
    2.1     2.00000   -11.25521     1 1s    0.99502
    3.1     2.00000    -1.03775     1 1s    0.28886     2 1s    0.27704
    4.1     2.00000    -0.78450     1 1s   -0.28206     2 1s    0.30264
    5.1     2.00000    -0.62216     1 2py   0.32817     2 2py   0.28783
    6.1     2.00000    -0.56155     1 2px   0.30255     2 2px  -0.29622
    7.1     2.00000    -0.39217     1 2pz   0.28661     1 2pz   0.27137     2 2pz   0.31852     2 2pz   0.28703
    8.1     2.00000    -0.38677     2 2px   0.28667     4 1s    0.26704     5 1s    0.29338
    9.1     0.00000     0.06320     1 1s   -0.38402     1 2pz  -0.33217     1 2pz  -0.47523     2 1s   -0.41126     2 2pz   0.32906
                                    2 2pz   0.46206
   10.1     0.00000     0.23080     1 1s   -1.10683     1 2px   0.45289     1 2py   0.33264     1 2pz   0.43382     2 1s   -1.06890
                                    2 2px  -0.50704     2 2py  -0.40285     2 2pz  -0.42626     3 1s    0.58080     4 1s    1.02606
                                    5 1s    1.13686     6 1s    0.55256
   11.1     0.00000     0.28214     1 1s    1.53687     1 2py   0.34170     1 2pz  -0.43717     2 1s   -1.59717     2 2py   0.37493
                                    2 2pz  -0.48487     3 1s   -1.39620     6 1s    1.49458
   12.1     0.00000     0.31255     1 1s   -0.97416     1 2px   0.44213     1 2py  -0.89449     1 2pz   0.51458     2 1s   -0.57046
                                    2 2px  -0.35866     2 2py   1.09044     2 2pz  -0.39608     3 1s    1.60412     5 1s   -0.63612
                                    6 1s    1.49208
   13.1     0.00000     0.33661     1 1s   -1.09932     1 2px   0.25198     1 2py   0.97169     1 2pz   0.28658     2 1s    0.99391
                                    2 2px   0.30402     2 2py   0.53908     2 2pz   0.34765     4 1s    1.93675     5 1s   -1.43366
   14.1     0.00000     0.42352     1 1s    2.01649     1 2px   1.79695     1 2py  -0.62136     1 2pz  -0.77915     2 1s   -2.03895
                                    2 2px   1.76689     2 2py  -0.64087     2 2pz  -0.79749     3 1s    0.64372     6 1s   -0.61191
   15.1     0.00000     0.70251     1 2px   0.54066     1 2px  -0.88175     2 2px  -0.55683     2 2px   0.97445     4 1s    0.40670
                                    5 1s    0.44184
   16.1     0.00000     0.75681     1 1s   -0.30923     1 2px   0.25752     1 2py  -0.48581     1 2px  -0.68091     1 2py   1.06832
                                    2 1s    0.36114     2 2px  -0.52519     2 2py   0.49227     3 1s   -0.50827     4 1s    0.29978
                                    6 1s    0.42990
   17.1     0.00000     0.78882     1 2py   0.45864     1 2pz   0.50206     1 2py  -1.02156     1 2pz  -0.49660     2 1s   -0.31096
                                    2 2py  -0.60015     2 2px  -0.29065     2 2py   1.21535     4 1s   -0.27555     6 1s    0.27573
                                    6 1s    0.26113
   18.1     0.00000     0.80153     1 2pz  -0.58506     1 2py  -0.30754     1 2pz   0.56228     2 2py  -0.28509     2 2pz  -0.78263
                                    2 2py   0.57249     2 2pz   0.73905     5 1s   -0.25978
   19.1     0.00000     0.86473     1 1s    0.35993     1 2pz   0.69602     1 2px  -0.44342     1 2py   0.54719     1 2pz  -0.96489
                                    2 1s    0.34898     2 2pz  -0.67736     2 2px   0.46646     2 2py  -0.53740     2 2pz   0.95566
   20.1     0.00000     0.97379     1 2px   0.70254     1 2py   0.33545     1 2px  -1.14409     1 2py  -0.74139     2 1s    0.26026
                                    2 2px   0.72772     2 2py   0.41009     2 2px  -1.15765     2 2py  -0.80976     4 1s   -1.07280
                                    5 1s    1.03584
   21.1     0.00000     1.10832     1 1s   -0.44484     1 1s    0.78758     1 2px   0.36497     1 2px  -0.49137     2 1s   -0.71437
                                    2 1s    1.33234     2 2py  -0.59214     2 2py   0.69243     3 1s   -0.32311     4 1s    0.27162
                                    4 1s   -0.56129     5 1s    0.89503     5 1s   -1.50902
   22.1     0.00000     1.14187     1 1s    0.58588     1 2px  -0.29490     1 2py   0.65353     1 2px   0.64436     1 2py  -1.00872
                                    2 1s   -0.42659     2 1s    0.42816     2 2px  -0.48062     2 2py   0.40035     2 2px   0.92227
                                    2 2py  -0.76699     3 1s   -0.57498     3 1s    1.20449     4 1s    0.34938     4 1s   -0.86418
                                    6 1s    0.51878     6 1s   -1.32689
   23.1     0.00000     1.18344     1 1s    0.37379     1 2py  -0.48727     1 2px   0.37158     1 2py   0.36543     2 1s   -0.38235
                                    2 2px   0.56759     3 1s    0.40693     3 1s   -0.44444     4 1s   -0.61251     4 1s    0.92867
                                    5 1s    0.38305     5 1s   -0.34903     6 1s    0.81432     6 1s   -1.01894
   24.1     0.00000     1.19845     1 1s   -0.87908     1 1s    1.05726     1 2px   0.35278     1 2pz   0.33226     1 2px  -0.81681
                                    2 1s   -0.43133     2 1s    1.11239     2 2py   0.26539     3 1s    0.70766     3 1s   -1.17456
                                    4 1s    0.65450     4 1s   -0.96623     5 1s   -0.40778     5 1s    0.35861     6 1s   -0.44519
   25.1     0.00000     1.25958     1 1s   -1.31321     1 1s    2.74992     1 2px  -0.35132     1 2py   0.45935     1 2pz  -1.12916
                                    2 1s   -1.00231     2 1s    1.44340     2 2px   0.68485     2 2py  -0.63342     2 2pz   0.81999
                                    3 1s   -0.43613     3 1s   -0.95362     4 1s   -0.52743     4 1s   -0.39866     5 1s   -0.33645
                                    5 1s   -0.27905     6 1s   -0.38251     6 1s   -0.85713
   26.1     0.00000     1.28715     1 1s    1.49955     1 1s   -4.95248     1 2px  -1.26775     1 2py   0.83986     1 2pz   1.12556
                                    2 1s   -1.69257     2 1s    5.18709     2 2px  -1.18862     2 2py   0.68668     2 2pz   1.30378
                                    3 1s    0.35793     4 1s    0.76549     5 1s   -0.32180     5 1s   -0.59733     6 1s   -0.56166
   27.1     0.00000     1.69549     1 1s    0.60899     1 3d0   0.35610     1 3d2- -0.30181     1 3d2+ -0.31983     2 1s   -0.56616
                                    2 3d0  -0.34271     2 3d2-  0.29239     2 3d2+  0.33282
   28.1     0.00000     1.91826     1 1s    0.25050     1 1s   -0.42175     1 2pz   0.28273     1 3d0   0.33586     1 3d1+  0.40363
                                    1 3d2+  0.37411     1 3d1-  0.37377     2 1s    0.37151     2 1s   -0.87944     2 2pz  -0.40202
                                    2 3d0   0.36849     2 3d1+  0.26834     2 3d2+  0.30855     3 1s    0.27266     6 1s    0.27120
                                    6 1s    0.27464
   29.1     0.00000     1.94088     1 1s    0.36382     1 1s   -1.50784     1 2px  -0.27866     1 2pz   0.42841     1 3d2-  0.30247
                                    1 3d1+ -0.32471     1 3d1- -0.31577     2 1s    1.21839     2 2px  -0.35273     2 2pz   0.27995
                                    2 3d2- -0.30222     2 3d1+  0.45275     2 3d1-  0.44314     3 1s    0.37680     6 1s   -0.27333
   30.1     0.00000     2.18021     1 1s   -0.37502     1 1s    1.69099     1 2px   0.38324     1 2py  -0.25589     1 2pz  -0.46726
                                    1 3d0  -0.54720     1 3d2+ -0.32136     2 1s    0.31076     2 1s   -1.57229     2 2px   0.37072
                                    2 2py  -0.29465     2 2pz  -0.40847     2 3d0   0.58192     2 3d2+  0.38817     3 1s   -0.37188
                                    4 1s   -0.29755     5 1s    0.35973     6 1s    0.32271
   31.1     0.00000     2.25125     1 1s   -0.46799     1 2px  -0.26040     1 2px   0.25774     1 3d2- -0.26744     1 3d1+ -0.37658
                                    1 3d2+  0.41259     2 1s   -0.52260     2 1s    0.46963     2 2px   0.25962     2 2px  -0.33793
                                    2 3d2- -0.32627     2 3d1+ -0.38940     2 3d2+  0.36383
   32.1     0.00000     2.34915     1 2py   0.37723     1 3d0   0.53725     1 3d2- -0.30033     1 3d1- -0.32022     2 2py  -0.34359
                                    2 3d0   0.48009     2 3d2- -0.43385     2 3d1- -0.40281     4 1s    0.41975     5 1s    0.37412
                                    6 1s   -0.35305
   33.1     0.00000     2.58087     1 3d2- -0.57374     1 3d1- -0.46828     2 1s    0.28255     2 2py   0.34497     2 3d2-  0.35873
                                    2 3d1-  0.68288     3 1s   -0.46737     4 1s    0.36123     5 1s   -0.42616     6 1s    0.48025
   34.1     0.00000     2.64830     1 1s    0.39999     1 2py  -0.40120     1 3d2- -0.34750     1 3d2+ -0.50720     1 3d1-  0.63498
                                    2 3d2- -0.53942     2 3d2+ -0.49248     2 3d1-  0.33652     4 1s   -0.48272
   35.1     0.00000     2.72283     1 3d0  -0.38391     1 3d2- -0.51203     1 3d1+  0.52177     1 3d1- -0.34894     2 3d0  -0.42092
                                    2 3d2- -0.43993     2 3d1+  0.46227     3 1s   -0.51604     4 1s    0.26017     6 1s   -0.42947
   36.1     0.00000     2.96068     1 1s    1.70314     1 2px   0.43953     1 2px   0.87492     1 2pz  -0.42849     1 3d2- -0.35321
                                    1 3d1+ -0.69001     1 3d2+  0.66572     2 1s   -1.72421     2 2px   0.43174     2 2px   0.86938
                                    2 2py  -0.25390     2 2pz  -0.44758     2 3d2-  0.34379     2 3d1+  0.70103     2 3d2+ -0.62468


 HOMO      8.1    -0.386772 =     -10.5246eV
 LUMO      9.1     0.063202 =       1.7198eV
 LUMO-HOMO         0.449975 =      12.2444eV


 **********************************************************************************************************************************
 DATASETS  * FILE   NREC   LENGTH (MB)   RECORD NAMES
              1      19       31.13       500      610      700      900      950      970     1000      129      960     1100   
                                          VAR    BASINP    GEOM    SYMINP    ZMAT    AOBASIS   BASIS     P2S    ABASIS      S 
                                         1400     1410     1200     1210     1080     1600     1650     1300     1700   
                                           T        V       H0       H01     AOSYM     SMH    MOLCAS    ERIS     OPER   

              2       4        2.86       700     1000      520     2100   
                                         GEOM     BASIS   MCVARS     RHF  

 PROGRAMS   *        TOTAL    HF-SCF       INT
 CPU TIMES  *         0.38      0.10      0.18
 REAL TIME  *         0.59 SEC
 DISK USED  *        36.24 MB
 **********************************************************************************************************************************


 PROGRAM * MULTI (Direct Multiconfiguration SCF)       Authors: P.J. Knowles, H.-J. Werner (1984)


 Number of closed-shell orbitals:   7 (   7 )
 Number of active  orbitals:        2 (   2 )
 Number of external orbitals:      27 (  27 )

 State symmetry 1

 Number of electrons:     2    Spin symmetry=Singlet   Space symmetry=1
 Number of states:        3
 Number of CSFs:          3   (4 determinants, 4 intermediate states)

 Molecular orbitals read from record     2100.2  Type=RHF/CANONICAL (state 1.1)

 Wavefunction dump at record             2140.2

 Convergence thresholds  0.10E-01 (gradient)  0.10E-05 (energy)  0.10E-02 (step length)

 Weight factors for state symmetry  1:    0.33333   0.33333   0.33333

 Number of orbital rotations:      257   (    14 Core/Active    189 Core/Virtual   0 Active/Active     54 Active/Virtual)
 Total number of variables:        269

 Micro-Iterations solved by the two-step solver

 ITER. MIC  NCI  NEG     ENERGY(VAR)     ENERGY(PROJ)   ENERGY CHANGE     GRAD(0)  GRAD(ORB)   GRAD(CI)     STEP       TIME

   1   12    7    0     -77.68769457     -77.71032957   -0.02263500    0.16433581 0.00099375 0.00000000  0.17D+00      0.16
   2    7    5    0     -77.70968149     -77.70978379   -0.00010229    0.01605383 0.00002890 0.00000000  0.80D-02      0.26
   3    7    5    0     -77.70978404     -77.70978405   -0.00000000    0.00006566 0.00000000 0.00000000  0.65D-04      0.36
   4    3    3    0     -77.70978405     -77.70978405    0.00000000    0.00000000 0.00000000 0.00000000  0.29D-08      0.42

 ** WVFN ****  CONVERGENCE REACHED, FINAL GRADIENT:  0.15D-12



 Results for state 1.1
 =====================

 !MCSCF STATE  1.1 Energy             -77.840715503878
 Nuclear energy                        32.37494073
 Kinetic energy                        77.81394108
 One electron energy                 -167.91208913
 Two electron energy                   57.69643289
 Virial ratio                           2.00034408

 !MCSCF STATE  1.1 Dipole moment       -0.03999454    -0.04627229     0.01102395
 Dipole moment /Debye                  -0.10164933    -0.11760472     0.02801826

 Results for state 2.1
 =====================

 !MCSCF STATE  2.1 Energy             -77.737517646857
 Nuclear energy                        32.37494073
 Kinetic energy                        77.88984310
 One electron energy                 -167.60859890
 Two electron energy                   57.49614052
 Virial ratio                           1.99804435

 !MCSCF STATE  2.1 Dipole moment        0.01209941     0.00875659    -0.00021784
 Dipole moment /Debye                   0.03075162     0.02225557    -0.00055367

 Results for state 3.1
 =====================

 !MCSCF STATE  3.1 Energy             -77.551118986189
 Nuclear energy                        32.37494073
 Kinetic energy                        77.95151531
 One electron energy                 -167.35255495
 Two electron energy                   57.42649523
 Virial ratio                           1.99486352

 !MCSCF STATE  3.1 Dipole moment        0.08009597     0.07478903    -0.01062437
 Dipole moment /Debye                   0.20357033     0.19008230    -0.02700269

 State-averaged charge density matrix saved on record  2140.2 (density set 1)

 !MCSCF expec         <1.1|DMX|1.1>    -0.039994542699 au =    -0.101649329832 Debye
 !MCSCF trans         <2.1|DMX|1.1>    -0.036544879026 au =    -0.092881733636 Debye
 !MCSCF expec         <2.1|DMX|2.1>     0.012099409897 au =     0.030751618205 Debye
 !MCSCF trans         <3.1|DMX|1.1>    -0.003026977798 au =    -0.007693306233 Debye
 !MCSCF trans         <3.1|DMX|2.1>    -0.035533931671 au =    -0.090312330056 Debye
 !MCSCF expec         <3.1|DMX|3.1>     0.080095974580 au =     0.203570327073 Debye

 !MCSCF expec         <1.1|DMY|1.1>    -0.046272287709 au =    -0.117604720996 Debye
 !MCSCF trans         <2.1|DMY|1.1>    -0.026019473251 au =    -0.066130572825 Debye
 !MCSCF expec         <2.1|DMY|2.1>     0.008756588251 au =     0.022255569566 Debye
 !MCSCF trans         <3.1|DMY|1.1>    -0.003893134258 au =    -0.009894712167 Debye
 !MCSCF trans         <3.1|DMY|2.1>    -0.023920487139 au =    -0.060795831702 Debye
 !MCSCF expec         <3.1|DMY|3.1>     0.074789028505 au =     0.190082299068 Debye

 !MCSCF expec         <1.1|DMZ|1.1>     0.011023954226 au =     0.028018261582 Debye
 !MCSCF trans         <2.1|DMZ|1.1>    -0.001379894067 au =    -0.003507111162 Debye
 !MCSCF expec         <2.1|DMZ|2.1>    -0.000217844860 au =    -0.000553670139 Debye
 !MCSCF trans         <3.1|DMZ|1.1>     0.001165424033 au =     0.002962018414 Debye
 !MCSCF trans         <3.1|DMZ|2.1>    -0.002357274089 au =    -0.005991200678 Debye
 !MCSCF expec         <3.1|DMZ|3.1>    -0.010624372824 au =    -0.027002693483 Debye


 NATURAL ORBITALS (state averaged)
 =================================

  Orbital  Occupation    Energy     Coefficients
    1.1     2.00000   -11.25863     2 1s    0.99541
    2.1     2.00000   -11.24970     1 1s    0.99538
    3.1     2.00000    -1.05046     1 1s    0.28395     2 1s    0.27186
    4.1     2.00000    -0.78532     1 1s   -0.30755     2 1s    0.32761
    5.1     2.00000    -0.62496     1 2py   0.31707     2 2py   0.28607
    6.1     2.00000    -0.55987     1 2px   0.26161     2 2px  -0.25674     2 2py   0.25020
    7.1     2.00000    -0.41939     1 2pz   0.32279     1 2pz   0.28000     2 2pz   0.32738     2 2pz   0.28136
    8.1     1.00000    -0.08690     1 1s   -0.26167     1 2pz  -0.40630     1 2pz  -0.43342     2 1s   -0.27296     2 2pz   0.40255
                                    2 2pz   0.42584
    9.1     1.00000    -0.23077     1 2px  -0.30978     2 2px   0.31039     4 1s    0.28774     5 1s    0.30141
   10.1    -0.00000     0.21861     1 1s   -1.07022     1 2px   0.45340     1 2py   0.33590     1 2pz   0.36162     2 1s   -1.11652
                                    2 2px  -0.49754     2 2py  -0.42871     2 2pz  -0.38116     3 1s    0.53714     4 1s    1.00782
                                    5 1s    1.16892     6 1s    0.53129
   11.1    -0.00000     0.28118     1 1s    1.65933     1 2py   0.27767     1 2pz  -0.46796     2 1s   -1.65424     2 2py   0.31029
                                    2 2pz  -0.48818     3 1s   -1.40909     6 1s    1.46203
   12.1    -0.00000     0.31353     1 1s   -1.32819     1 2px   0.44530     1 2py  -0.46309     1 2pz   0.56201     2 1s   -0.26942
                                    2 2py   0.28626     2 2px  -0.29890     2 2py   1.24250     3 1s    1.36327     4 1s    0.57027
                                    5 1s   -1.04481     6 1s    1.44499
   13.1    -0.00000     0.32266     1 1s   -0.69621     1 2py   0.30336     1 2py   1.28683     2 1s    1.15067     2 2px   0.28677
                                    2 2pz   0.45826     3 1s   -0.88341     4 1s    1.87117     5 1s   -1.15212     6 1s   -0.57301
   14.1    -0.00000     0.42976     1 1s    1.86719     1 2px   1.80750     1 2py  -0.50818     1 2pz  -0.72036     2 1s   -1.91044
                                    2 2px   1.77945     2 2py  -0.54115     2 2pz  -0.74049     3 1s    0.64080     6 1s   -0.61539
   15.1    -0.00000     0.69910     1 2px   0.52331     1 2px  -0.85228     2 2px  -0.54362     2 2px   0.95647     4 1s   -0.26509
                                    4 1s    0.45679     5 1s    0.50451
   16.1    -0.00000     0.75423     1 1s   -0.43356     1 2px   0.26187     1 2py  -0.45707     1 2px  -0.73734     1 2py   1.05267
                                    2 1s    0.44929     2 2py  -0.25699     2 2px  -0.57369     2 2py   0.54539     3 1s   -0.50583
                                    4 1s    0.30181     6 1s    0.43220
   17.1    -0.00000     0.78802     1 2py   0.44957     1 2pz   0.47696     1 2py  -1.04289     1 2pz  -0.54747     2 1s   -0.32151
                                    2 2py  -0.58503     2 2px  -0.28660     2 2py   1.20553     4 1s   -0.27895     6 1s    0.27072
   18.1    -0.00000     0.80139     1 1s   -0.41727     1 2pz  -0.59577     1 2pz   0.61573     2 2pz  -0.78279     2 2py   0.53329
                                    2 2pz   0.83137     5 1s   -0.25446
   19.1    -0.00000     0.86288     1 1s    0.31766     1 2pz   0.67432     1 2px  -0.47949     1 2py   0.55701     1 2pz  -1.02570
                                    2 1s    0.30535     2 2px  -0.25593     2 2pz  -0.64888     2 2px   0.50358     2 2py  -0.54079
                                    2 2pz   1.00396     3 1s   -0.28055     6 1s   -0.27667
   20.1    -0.00000     0.98043     1 2px   0.69555     1 2py   0.33926     1 2px  -1.05907     1 2py  -0.75904     2 2px   0.72766
                                    2 2py   0.42362     2 2px  -1.08292     2 2py  -0.83452     4 1s   -1.02899     5 1s    1.01695
   21.1    -0.00000     1.07867     1 1s   -0.36548     1 1s    0.72430     1 2px   0.34747     1 2px  -0.35749     2 1s   -0.71494
                                    2 1s    1.23384     2 2py  -0.58457     2 2px   0.25890     2 2py   0.66290     4 1s   -0.45570
                                    5 1s    0.95475     5 1s   -1.52319
   22.1    -0.00000     1.13705     1 1s   -0.32889     1 1s    0.74489     1 2py   0.76029     1 2px   0.33155     1 2py  -1.04742
                                    2 1s   -0.30217     2 1s    0.41206     2 2px  -0.42828     2 2py   0.39427     2 2px   0.65706
                                    2 2py  -0.69304     3 1s   -0.44369     3 1s    0.95389     4 1s    0.67306     4 1s   -1.30502
                                    5 1s    0.27165     6 1s    0.31548     6 1s   -1.00477
   23.1    -0.00000     1.16319     1 1s    0.41612     1 2px  -0.32263     1 2px   1.04303     2 1s   -0.40331     2 2px  -0.28412
                                    2 2px   0.90283     2 2py  -0.46408     3 1s   -0.29468     3 1s    0.75991     4 1s   -0.71388
                                    4 1s    0.97193     5 1s    0.40544     5 1s   -0.29954     6 1s    0.70352     6 1s   -1.09391
   24.1    -0.00000     1.19652     1 1s   -0.67319     1 1s    0.93837     1 2px   0.34128     1 2py  -0.29215     1 2px  -0.44548
                                    1 2py   0.32471     2 1s   -0.50115     2 1s    0.88443     2 2py   0.30208     3 1s    0.85904
                                    3 1s   -1.21229     6 1s    0.66330     6 1s   -0.84321
   25.1    -0.00000     1.25063     1 1s   -1.29477     1 1s    2.56094     1 2px  -0.47179     1 2py   0.52127     1 2pz  -1.06692
                                    2 1s   -1.15846     2 1s    1.86532     2 2px   0.62103     2 2py  -0.61410     2 2pz   0.90347
                                    3 1s   -0.40047     3 1s   -0.99366     4 1s   -0.46137     4 1s   -0.44279     5 1s   -0.33908
                                    5 1s   -0.34677     6 1s   -0.36833     6 1s   -0.93462
   26.1    -0.00000     1.28067     1 1s    1.56766     1 1s   -5.08741     1 2px  -1.26209     1 2py   0.77450     1 2pz   1.16744
                                    2 1s   -1.65023     2 1s    5.12505     2 2px  -1.23350     2 2py   0.68417     2 2pz   1.24456
                                    3 1s    0.42664     4 1s    0.73057     5 1s   -0.30126     5 1s   -0.55790     6 1s   -0.53625
   27.1    -0.00000     1.69024     1 1s    0.63851     1 3d0   0.34942     1 3d2- -0.30548     1 3d2+ -0.32174     2 1s   -0.59241
                                    2 3d0  -0.33669     2 3d2-  0.29684     2 3d2+  0.33493
   28.1    -0.00000     1.91560     1 1s   -0.42302     1 2pz   0.28043     1 3d0   0.33278     1 3d1+  0.39724     1 3d2+  0.37924
                                    1 3d1-  0.37069     2 1s    0.35917     2 1s   -0.85651     2 2pz  -0.39322     2 3d0   0.36793
                                    2 3d1+  0.26702     2 3d2+  0.31811     3 1s    0.27059     6 1s    0.26983     6 1s    0.27063
   29.1    -0.00000     1.93772     1 1s    0.35359     1 1s   -1.47078     1 2px  -0.26842     1 2pz   0.41696     1 3d2-  0.29889
                                    1 3d1+ -0.33137     1 3d1- -0.31682     2 1s    1.19226     2 2px  -0.34224     2 2pz   0.27392
                                    2 3d2- -0.30126     2 3d1+  0.45322     2 3d1-  0.44042     3 1s    0.37718     6 1s   -0.27640
   30.1    -0.00000     2.18018     1 1s   -0.38311     1 1s    1.68069     1 2px   0.37754     1 2py  -0.25493     1 2pz  -0.46401
                                    1 3d0  -0.54943     1 3d2+ -0.32014     2 1s    0.30828     2 1s   -1.54982     2 2px   0.36330
                                    2 2py  -0.29886     2 2pz  -0.39765     2 3d0   0.58461     2 3d2+  0.39372     3 1s   -0.37286
                                    4 1s   -0.28836     5 1s    0.35678     6 1s    0.31732
   31.1    -0.00000     2.24678     1 1s   -0.45733     1 2px  -0.26644     1 3d2- -0.27701     1 3d1+ -0.38293     1 3d2+  0.41522
                                    2 1s   -0.52257     2 1s    0.50079     2 2px   0.26555     2 2px  -0.33629     2 3d2- -0.34270
                                    2 3d1+ -0.39892     2 3d2+  0.35794
   32.1    -0.00000     2.34315     1 2py   0.39494     1 3d0   0.54076     1 3d2- -0.29449     1 3d1- -0.33257     2 2py  -0.35771
                                    2 3d0   0.47675     2 3d2- -0.42843     2 3d1- -0.41679     4 1s    0.40921     5 1s    0.36135
                                    6 1s   -0.36854
   33.1    -0.00000     2.57549     1 3d2- -0.58649     1 3d1- -0.46442     2 1s    0.26805     2 2py   0.34671     2 3d2-  0.34890
                                    2 3d1-  0.68554     3 1s   -0.47544     4 1s    0.35104     5 1s   -0.41597     6 1s    0.47683
   34.1    -0.00000     2.64031     1 1s    0.40337     1 2py  -0.41195     1 3d2- -0.34119     1 3d2+ -0.50486     1 3d1-  0.64547
                                    2 3d2- -0.54620     2 3d2+ -0.48446     2 3d1-  0.33168     4 1s   -0.47896
   35.1    -0.00000     2.72767     1 3d0  -0.39368     1 3d2- -0.50104     1 3d1+  0.52559     1 3d1- -0.34193     2 3d0  -0.42762
                                    2 3d2- -0.43405     2 3d1+  0.46944     3 1s   -0.51184     6 1s   -0.43056
   36.1    -0.00000     2.95632     1 1s    1.73424     1 2px   0.43309     1 2px   0.88701     1 2pz  -0.43677     1 3d2- -0.35114
                                    1 3d1+ -0.69287     1 3d2+  0.66275     2 1s   -1.75388     2 2px   0.42574     2 2px   0.88165
                                    2 2py  -0.26150     2 2pz  -0.45530     2 3d2-  0.34150     2 3d1+  0.70398     2 3d2+ -0.62227


 Natural orbital dump (state averaged) at molpro section  2140.2    (Orbital set 2)



 **********************************************************************************************************************************
 DATASETS  * FILE   NREC   LENGTH (MB)   RECORD NAMES
              1      20       31.86       500      610      700      900      950      970     1000      129      960     1100   
                                          VAR    BASINP    GEOM    SYMINP    ZMAT    AOBASIS   BASIS     P2S    ABASIS      S 
                                         1400     1410     1200     1210     1080     1600     1650     1300     1700     1380   
                                           T        V       H0       H01     AOSYM     SMH    MOLCAS    ERIS     OPER     JKOP   

              2       5        5.42       700     1000      520     2100     2140   
                                         GEOM     BASIS   MCVARS     RHF     MCSCF   

 PROGRAMS   *        TOTAL     MULTI    HF-SCF       INT
 CPU TIMES  *         0.86      0.47      0.10      0.18
 REAL TIME  *         1.12 SEC
 DISK USED  *        39.04 MB
 **********************************************************************************************************************************
 Molecular orbitals read from record     2140.2  Type=MCSCF/NATURAL (state averaged)
 Occupation numbers read from record     2140.2  Type=MCSCF/NATURAL (state averaged)
 Orbital energies read from record       2140.2  Type=MCSCF/NATURAL (state averaged)
 Redundancy group numbers read from rec  2140.2  Type=MCSCF/NATURAL (state averaged)

 MULTI/6-31G* energy=    -77.551118986189

           MULTI          HF-SCF
    -77.55111899    -77.84710562
 **********************************************************************************************************************************
 Molpro calculation terminated
