
 Primary working directories    : /scratch.local/johan406.molpro_temp/molpro.yehVHtQush
 Secondary working directories  : /scratch.local/johan406.molpro_temp/molpro.yehVHtQush
 Wavefunction directory         : /home/goodpast/johan406/wfu/
 Main file repository           : /scratch.local/johan406.molpro_temp/molpro.yehVHtQush/

 id        : roweumn

 Nodes     nprocs
 acn09        1

 Using customized tuning parameters: mindgm=1; mindgv=20; mindgc=4; mindgr=1; noblas=0; minvec=7
 default implementation of scratch files=df  


 Variables initialized (934), CPU time= 0.00 sec
                                                                                 !leave this line blank
 
 gprint, orbitals=30
 memory, 125., m
 symmetry, nosym
 nelect=16
 basis=6-31g*
 
 geometry={
 C -0.6284 0.1329 0.2977
 C 0.6334 -0.1924 -0.36
 H -1.2662 0.8897 -0.1502
 H -0.9401 -0.8028 -0.1288
 H 0.9932 0.8787 0.0857
 H 1.277 -0.9531 0.0993
 }
 
 hf
 {multi,
 closed 7
 occ 9
 wf,spin=0;STATE,3
 }
 
 Commands  initialized (763), CPU time= 0.01 sec, 617 directives.
 Default parameters read. Elapsed time= 0.08 sec

 Checking input...
 Passed
1


                                         ***  PROGRAM SYSTEM MOLPRO  ***
                                       Copyright, TTI GmbH Stuttgart, 2015
                                    Version 2019.2 linked Oct 25 2019 22:50:27


 **********************************************************************************************************************************
 LABEL *                                                                                 
  64 bit serial version                                                                  DATE: 07-Feb-23          TIME: 15:45:15  
 **********************************************************************************************************************************

 SHA1:             8dbd9ae1082e4ce945b0f27595c9eb2d4aa09004
 **********************************************************************************************************************************


 Variable memory set to  125000000 words,  buffer space 

 SETTING NELECT         =        16.00000000                                  
 SETTING BASIS          =    6-31G*
 ZSYMEL=NOSYM


Geometry recognized as XYZ



 Recomputing integrals since basis changed


 Using spherical harmonics

 Library entry C      S 6-31G                selected for orbital group  1
 Library entry C      P 6-31G                selected for orbital group  1
 Library entry C      D 6-31G*               selected for orbital group  1
 Library entry H      S 6-31G                selected for orbital group  2


 PROGRAM * SEWARD (Integral evaluation for generally contracted gaussian basis sets)     Author: Roland Lindh, 1990

 Geometry written to block  1 of record 700


 Point group  C1  



 ATOMIC COORDINATES

 NR  ATOM    CHARGE       X              Y              Z

   1  C       6.00   -1.187503897    0.251144602    0.562571467
   2  C       6.00    1.196952527   -0.363583306   -0.680301405
   3  H       1.00   -2.392771219    1.681289333   -0.283836864
   4  H       1.00   -1.776531530   -1.517072133   -0.243396725
   5  H       1.00    1.876875987    1.660502346    0.161949529
   6  H       1.00    2.413180261   -1.801097969    0.187649804

 Bond lengths in Bohr (Angstrom)

 1-2  2.758306693  1-3  2.052898033  1-4  2.030548867  2-5  2.295344260  2-6  2.073402423
     ( 1.459633043)     ( 1.086346855)     ( 1.074520186)     ( 1.214643874)     ( 1.097197311)

 Bond angles

  1-2-5   83.92694717   1-2-6  118.22744366   2-1-3  118.49029641   2-1-4   82.98348534

  3-1-4  105.82412850   5-2-6  106.50000431

 NUCLEAR CHARGE:                   16
 NUMBER OF PRIMITIVE AOS:          72
 NUMBER OF SYMMETRY AOS:           70
 NUMBER OF CONTRACTIONS:           36   (   36A   )
 NUMBER OF CORE ORBITALS:           2   (    2A   )
 NUMBER OF VALENCE ORBITALS:       12   (   12A   )


 NUCLEAR REPULSION ENERGY   32.39068915

 Eigenvalues of metric

         1 0.920E-02 0.270E-01 0.588E-01 0.623E-01 0.840E-01 0.217E+00 0.236E+00 0.272E+00


 Contracted 2-electron integrals neglected if value below      1.0D-11
 AO integral compression algorithm  1   Integral accuracy      1.0D-11

     1.573 MB (compressed) written to integral file ( 59.2%)


 NUMBER OF SORTED TWO-ELECTRON INTEGRALS:     222111.     BUFFER LENGTH:  32768
 NUMBER OF SEGMENTS:   1  SEGMENT LENGTH:     222111      RECORD LENGTH: 524288

 Memory used in sort:       0.78 MW

 SORT1 READ      284735. AND WROTE      212531. INTEGRALS IN      1 RECORDS. CPU TIME:     0.00 SEC, REAL TIME:     0.01 SEC
 SORT2 READ      212531. AND WROTE      222111. INTEGRALS IN      6 RECORDS. CPU TIME:     0.02 SEC, REAL TIME:     0.02 SEC

 FILE SIZES:   FILE 1:    31.7 MBYTE,  FILE 4:     4.2 MBYTE,   TOTAL:     35.9 MBYTE

 OPERATOR DM      FOR CENTER  0  COORDINATES:    0.000000    0.000000    0.000000


 **********************************************************************************************************************************
 DATASETS  * FILE   NREC   LENGTH (MB)   RECORD NAMES
              1      19       31.13       500      610      700      900      950      970     1000      129      960     1100   
                                          VAR    BASINP    GEOM    SYMINP    ZMAT    AOBASIS   BASIS     P2S    ABASIS      S 
                                         1400     1410     1200     1210     1080     1600     1650     1300     1700   
                                           T        V       H0       H01     AOSYM     SMH    MOLCAS    ERIS     OPER   

 PROGRAMS   *        TOTAL       INT
 CPU TIMES  *         0.31      0.20
 REAL TIME  *         0.56 SEC
 DISK USED  *        36.24 MB
 **********************************************************************************************************************************


 PROGRAM * RHF-SCF (CLOSED SHELL)       Authors: W. Meyer, H.-J. Werner


 NUMBER OF ELECTRONS:       8+    8-    SPACE SYMMETRY=1    SPIN SYMMETRY: Singlet 
 CONVERGENCE THRESHOLDS:    1.00E-05 (Density)    1.00E-07 (Energy)
 MAX. NUMBER OF ITERATIONS:       60
 INTERPOLATION TYPE:            DIIS
 INTERPOLATION STEPS:              2 (START)      1 (STEP)
 LEVEL SHIFTS:                  0.00 (CLOSED)  0.00 (OPEN) 



 Orbital guess generated from atomic densities. Full valence occupancy:    8

 Molecular orbital dump at record        2100.2

 Initial occupancy:   8

 ITERATION    DDIFF          GRAD             ENERGY        2-EL.EN.            DIPOLE MOMENTS         DIIS   ORB.
    1      0.000D+00      0.000D+00       -77.82203980    115.984288    0.08199   -0.01670   -0.06637    0    start
    2      0.000D+00      0.721D-02       -77.84041062    114.947766   -0.06306   -0.01247    0.07312    1    diag
    3      0.783D-02      0.261D-02       -77.84261966    115.333927    0.00415   -0.06500   -0.03900    2    diag
    4      0.316D-02      0.125D-02       -77.84325299    115.271767   -0.05510   -0.03955    0.03630    3    diag
    5      0.176D-02      0.537D-03       -77.84340021    115.232724   -0.04365   -0.05262    0.01332    4    diag
    6      0.718D-03      0.231D-03       -77.84349364    115.243162   -0.05025   -0.05319    0.01727    5    diag
    7      0.783D-03      0.102D-03       -77.84352319    115.244194   -0.05166   -0.05359    0.01735    6    diag
    8      0.515D-03      0.311D-04       -77.84352559    115.245293   -0.05152   -0.05354    0.01727    7    diag
    9      0.150D-03      0.981D-05       -77.84352578    115.245511   -0.05131   -0.05344    0.01719    8    diag
   10      0.417D-04      0.306D-05       -77.84352579    115.245507   -0.05123   -0.05345    0.01714    9    orth
   11      0.954D-05      0.794D-06       -77.84352579    115.245511   -0.05123   -0.05344    0.01715    0    orth

 Final occupancy:   8

 !RHF STATE  1.1 Energy               -77.843525791829
 Nuclear energy                        32.39068915
 One-electron energy                 -167.85697047
 Two-electron energy                   57.62275553
 Virial quotient                       -1.00094967
 !RHF STATE  1.1 Dipole moment         -0.05123449    -0.05343751     0.01715133
 Dipole moment /Debye                  -0.13021654    -0.13581570     0.04359147

 ELECTRON ORBITALS
 =================

  Orbital  Occupation    Energy     Coefficients
    1.1     2.00000   -11.26727     2 1s    0.99596
    2.1     2.00000   -11.25172     1 1s    0.99590
    3.1     2.00000    -1.03910     1 1s    0.29376     2 1s    0.27189
    4.1     2.00000    -0.78495     1 1s   -0.27238     2 1s    0.31053
    5.1     2.00000    -0.62278     1 2py   0.34418     2 2py   0.27044
    6.1     2.00000    -0.56136     1 2px   0.30595     2 2px  -0.29448
    7.1     2.00000    -0.39275     1 2pz   0.27113     1 2pz   0.25931     2 2pz   0.31883     2 2pz   0.28211
    8.1     2.00000    -0.38580     2 2px   0.28766     4 1s    0.25139     5 1s    0.29622
    9.1     0.00000     0.06286     1 1s   -0.37135     1 2pz  -0.33356     1 2pz  -0.48042     2 1s   -0.42169     2 2pz   0.32780
                                    2 2pz   0.45611
   10.1     0.00000     0.22899     1 1s   -1.09977     1 2px   0.42356     1 2py   0.30712     1 2pz   0.42963     2 1s   -1.02972
                                    2 2px  -0.52096     2 2py  -0.43262     2 2pz  -0.41571     3 1s    0.57457     4 1s    0.96899
                                    5 1s    1.16586     6 1s    0.52432
   11.1     0.00000     0.28196     1 1s    1.50886     1 2py   0.32643     1 2pz  -0.41627     2 1s   -1.61862     2 2py   0.38777
                                    2 2pz  -0.50393     3 1s   -1.35229     6 1s    1.53279
   12.1     0.00000     0.31128     1 1s   -1.15301     1 2px   0.47095     1 2py  -0.79839     1 2pz   0.55892     2 1s   -0.47938
                                    2 2px  -0.34220     2 2py   1.10469     2 2pz  -0.36200     3 1s    1.62958     5 1s   -0.71108
                                    6 1s    1.42994
   13.1     0.00000     0.33926     1 1s   -1.15437     1 2py   0.25247     1 2py   1.10749     1 2pz   0.27292     2 1s    0.92365
                                    2 2px   0.30201     2 2py   0.39444     2 2pz   0.35737     3 1s   -0.33160     4 1s    2.10766
                                    5 1s   -1.23374     6 1s   -0.34480
   14.1     0.00000     0.42337     1 1s    1.99611     1 2px   1.80971     1 2py  -0.60725     1 2pz  -0.76815     2 1s   -2.03990
                                    2 2px   1.75409     2 2py  -0.64435     2 2pz  -0.80242     3 1s    0.65772     6 1s   -0.59923
   15.1     0.00000     0.70222     1 1s    0.25170     1 2px   0.53033     1 2px  -0.83654     2 2px  -0.56067     2 2px   1.01072
                                    4 1s    0.38214     5 1s    0.45028
   16.1     0.00000     0.75337     1 1s   -0.34501     1 2px   0.27567     1 2py  -0.54062     1 2px  -0.71292     1 2py   1.23812
                                    1 2pz   0.25208     2 1s    0.41652     2 2px  -0.43152     2 2py   0.28275     3 1s   -0.50315
                                    4 1s    0.33232     6 1s    0.37090
   17.1     0.00000     0.78828     1 2py   0.32894     1 2pz   0.59569     1 2py  -0.78310     1 2pz  -0.60087     2 1s   -0.31735
                                    2 2py  -0.55691     2 2px  -0.36257     2 2py   1.10114     6 1s    0.33454     6 1s    0.27313
   18.1     0.00000     0.80484     1 2pz  -0.46847     1 2py  -0.46753     1 2pz   0.43394     2 2py  -0.42124     2 2pz  -0.76372
                                    2 2py   0.80756     2 2pz   0.69886     5 1s   -0.30086
   19.1     0.00000     0.86470     1 1s    0.36394     1 2pz   0.70255     1 2px  -0.43317     1 2py   0.56120     1 2pz  -0.96745
                                    2 1s    0.34317     2 2pz  -0.66706     2 2px   0.47639     2 2py  -0.54384     2 2pz   0.95038
   20.1     0.00000     0.97312     1 2px   0.68727     1 2py   0.30829     1 2px  -1.13534     1 2py  -0.71795     2 1s    0.27648
                                    2 2px   0.73484     2 2py   0.44557     2 2px  -1.16195     2 2py  -0.84283     4 1s   -1.10071
                                    5 1s    1.03653
   21.1     0.00000     1.09334     1 1s   -0.32266     1 1s    0.56628     1 2px   0.37768     1 2px  -0.49084     2 1s   -0.73776
                                    2 1s    1.37499     2 2py  -0.56315     2 2py   0.66685     3 1s   -0.30267     4 1s   -0.39487
                                    5 1s    0.95132     5 1s   -1.51638
   22.1     0.00000     1.14436     1 1s    0.54976     1 2px  -0.29667     1 2py   0.55536     1 2px   0.71642     1 2py  -0.92517
                                    2 1s   -0.50356     2 1s    0.49557     2 2px  -0.49477     2 2py   0.41064     2 2px   0.99737
                                    2 2py  -0.78358     3 1s   -0.54486     3 1s    1.17587     4 1s   -0.64466     6 1s    0.63093
                                    6 1s   -1.47250
   23.1     0.00000     1.18468     1 1s    0.57978     1 2py  -0.56118     1 2py   0.51251     2 1s   -0.28365     2 2px   0.35993
                                    3 1s    0.69031     3 1s   -0.91082     4 1s   -0.43276     4 1s    0.76529     6 1s    0.78655
                                    6 1s   -0.87238
   24.1     0.00000     1.21553     1 1s   -0.98285     1 1s    1.17857     1 2px   0.31146     1 2pz   0.35214     1 2px  -0.96028
                                    1 2pz  -0.34185     2 1s   -0.63139     2 1s    1.59551     2 2pz   0.41045     3 1s    0.43745
                                    3 1s   -0.98319     4 1s    0.78401     4 1s   -1.35492     5 1s   -0.45979     6 1s   -0.39707
   25.1     0.00000     1.26151     1 1s   -1.37496     1 1s    3.27816     1 2py  -0.26348     1 2py   0.36723     1 2pz  -1.23596
                                    2 1s   -0.74315     2 1s    0.62704     2 2px   0.83367     2 2py  -0.70584     2 2pz   0.60947
                                    3 1s   -0.47404     3 1s   -0.92497     4 1s   -0.64493     4 1s   -0.38843     6 1s   -0.35816
                                    6 1s   -0.74201
   26.1     0.00000     1.29010     1 1s    1.40242     1 1s   -4.71431     1 2px  -1.23755     1 2py   0.91448     1 2pz   1.01267
                                    2 1s   -1.74376     2 1s    5.13224     2 2px  -1.09793     2 2py   0.60658     2 2pz   1.35029
                                    3 1s    0.26398     4 1s    0.88975     5 1s   -0.36567     5 1s   -0.54889     6 1s   -0.63825
   27.1     0.00000     1.69515     1 1s    0.62431     1 3d0   0.36198     1 3d2- -0.30564     1 3d2+ -0.31410     2 1s   -0.54534
                                    2 3d0  -0.33716     2 3d2-  0.28818     2 3d2+  0.33820
   28.1     0.00000     1.91572     1 2px   0.27967     1 3d0   0.31964     1 3d1+  0.43671     1 3d2+  0.38977     1 3d1-  0.40158
                                    2 1s    0.39947     2 1s   -0.99654     2 2pz  -0.42492     2 3d0   0.37489     2 3d2+  0.28156
                                    3 1s    0.26050     6 1s    0.29200     6 1s    0.26344
   29.1     0.00000     1.94186     1 1s    0.39120     1 1s   -1.57119     1 2pz   0.46943     1 3d2-  0.29669     1 3d1+ -0.27129
                                    1 3d1- -0.26417     2 1s    1.08458     2 2px  -0.36617     2 2py   0.25948     2 3d2- -0.29406
                                    2 3d1+  0.48446     2 3d2+  0.25241     2 3d1-  0.47680     3 1s    0.40538
   30.1     0.00000     2.17606     1 1s   -0.38932     1 1s    1.68977     1 2px   0.37366     1 2pz  -0.47738     1 3d0  -0.52791
                                    1 3d2+ -0.29615     2 1s    0.27896     2 1s   -1.47804     2 2px   0.35527     2 2py  -0.30569
                                    2 2pz  -0.37247     2 3d0   0.59061     2 3d2+  0.41092     3 1s   -0.37783     4 1s   -0.26590
                                    5 1s    0.37382     6 1s    0.28852
   31.1     0.00000     2.25221     1 1s   -0.45038     1 2px  -0.25775     1 3d1+ -0.36636     1 3d2+  0.42662     2 1s   -0.54121
                                    2 1s    0.56557     2 2px   0.25697     2 2px  -0.36843     2 3d2- -0.33844     2 3d1+ -0.38748
                                    2 3d2+  0.34400
   32.1     0.00000     2.34843     1 1s   -0.39025     1 2px  -0.25458     1 2py   0.38451     1 3d0   0.54924     1 3d1- -0.28203
                                    2 1s    0.34636     2 2py  -0.32304     2 3d0   0.44543     2 3d2- -0.48497     2 3d1- -0.43162
                                    4 1s    0.43303     5 1s    0.34868     6 1s   -0.41245
   33.1     0.00000     2.57661     1 3d2- -0.61518     1 3d1- -0.36549     2 2py   0.35578     2 3d2-  0.26240     2 3d1+ -0.25464
                                    2 3d2+ -0.26805     2 3d1-  0.70703     3 1s   -0.43616     4 1s    0.31664     5 1s   -0.40831
                                    6 1s    0.45610
   34.1     0.00000     2.65622     1 1s    0.53966     1 2py  -0.43438     1 3d2- -0.30385     1 3d2+ -0.47378     1 3d1-  0.68240
                                    2 2px   0.27232     2 3d2- -0.59266     2 3d2+ -0.45606     4 1s   -0.55290     6 1s   -0.25599
   35.1     0.00000     2.72596     1 2py   0.25785     1 3d0  -0.35192     1 3d2- -0.52422     1 3d1+  0.53749     1 3d1- -0.43780
                                    2 3d0  -0.42673     2 3d2- -0.38561     2 3d1+  0.41761     3 1s   -0.54926     4 1s    0.34588
                                    6 1s   -0.38190
   36.1     0.00000     2.96220     1 1s    1.67908     1 2px   0.44187     1 2px   0.87255     1 2pz  -0.41589     1 3d2- -0.36100
                                    1 3d1+ -0.68310     1 3d2+  0.68479     2 1s   -1.71924     2 2px   0.42701     2 2px   0.86216
                                    2 2py  -0.26198     2 2pz  -0.45181     2 3d2-  0.34249     2 3d1+  0.70351     2 3d2+ -0.60758


 HOMO      8.1    -0.385802 =     -10.4982eV
 LUMO      9.1     0.062858 =       1.7105eV
 LUMO-HOMO         0.448660 =      12.2087eV


 **********************************************************************************************************************************
 DATASETS  * FILE   NREC   LENGTH (MB)   RECORD NAMES
              1      19       31.13       500      610      700      900      950      970     1000      129      960     1100   
                                          VAR    BASINP    GEOM    SYMINP    ZMAT    AOBASIS   BASIS     P2S    ABASIS      S 
                                         1400     1410     1200     1210     1080     1600     1650     1300     1700   
                                           T        V       H0       H01     AOSYM     SMH    MOLCAS    ERIS     OPER   

              2       4        2.86       700     1000      520     2100   
                                         GEOM     BASIS   MCVARS     RHF  

 PROGRAMS   *        TOTAL    HF-SCF       INT
 CPU TIMES  *         0.43      0.12      0.20
 REAL TIME  *         0.79 SEC
 DISK USED  *        36.24 MB
 **********************************************************************************************************************************


 PROGRAM * MULTI (Direct Multiconfiguration SCF)       Authors: P.J. Knowles, H.-J. Werner (1984)


 Number of closed-shell orbitals:   7 (   7 )
 Number of active  orbitals:        2 (   2 )
 Number of external orbitals:      27 (  27 )

 State symmetry 1

 Number of electrons:     2    Spin symmetry=Singlet   Space symmetry=1
 Number of states:        3
 Number of CSFs:          3   (4 determinants, 4 intermediate states)

 Molecular orbitals read from record     2100.2  Type=RHF/CANONICAL (state 1.1)

 Wavefunction dump at record             2140.2

 Convergence thresholds  0.10E-01 (gradient)  0.10E-05 (energy)  0.10E-02 (step length)

 Weight factors for state symmetry  1:    0.33333   0.33333   0.33333

 Number of orbital rotations:      257   (    14 Core/Active    189 Core/Virtual   0 Active/Active     54 Active/Virtual)
 Total number of variables:        269

 Micro-Iterations solved by the two-step solver

 ITER. MIC  NCI  NEG     ENERGY(VAR)     ENERGY(PROJ)   ENERGY CHANGE     GRAD(0)  GRAD(ORB)   GRAD(CI)     STEP       TIME

   1   10    6    0     -77.68090692     -77.70714916   -0.02624224    0.16076890 0.00061924 0.00000000  0.20D+00      0.18
   2    6    5    0     -77.70621655     -77.70642727   -0.00021072    0.02373878 0.00002968 0.00000000  0.10D-01      0.28
   3    7    5    0     -77.70642785     -77.70642785   -0.00000000    0.00011408 0.00000001 0.00000000  0.54D-04      0.38
   4    3    3    0     -77.70642785     -77.70642785   -0.00000000    0.00000000 0.00000000 0.00000000  0.29D-08      0.44

 ** WVFN ****  CONVERGENCE REACHED, FINAL GRADIENT:  0.85D-13



 Results for state 1.1
 =====================

 !MCSCF STATE  1.1 Energy             -77.837122034682
 Nuclear energy                        32.39068915
 Kinetic energy                        77.82404436
 One electron energy                 -167.93013076
 Two electron energy                   57.70231958
 Virial ratio                           2.00016804

 !MCSCF STATE  1.1 Dipole moment       -0.07391615    -0.08560282     0.02035877
 Dipole moment /Debye                  -0.18786381    -0.21756641     0.05174345

 Results for state 2.1
 =====================

 !MCSCF STATE  2.1 Energy             -77.734233585590
 Nuclear energy                        32.39068915
 Kinetic energy                        77.90053116
 One electron energy                 -167.63016205
 Two electron energy                   57.50523932
 Virial ratio                           1.99786526

 !MCSCF STATE  2.1 Dipole moment        0.02217552     0.01603422    -0.00039658
 Dipole moment /Debye                   0.05636086     0.04075225    -0.00100794

 Results for state 3.1
 =====================

 !MCSCF STATE  3.1 Energy             -77.547927926981
 Nuclear energy                        32.39068915
 Kinetic energy                        77.96271982
 One electron energy                 -167.37954014
 Two electron energy                   57.44092307
 Virial ratio                           1.99467961

 !MCSCF STATE  3.1 Dipole moment        0.14805875     0.13832936    -0.01952517
 Dipole moment /Debye                   0.37630316     0.35157513    -0.04962477

 State-averaged charge density matrix saved on record  2140.2 (density set 1)

 !MCSCF expec         <1.1|DMX|1.1>    -0.073916148859 au =    -0.187863805617 Debye
 !MCSCF trans         <2.1|DMX|1.1>    -0.067343197559 au =    -0.171158124051 Debye
 !MCSCF expec         <2.1|DMX|2.1>     0.022175521396 au =     0.056360861671 Debye
 !MCSCF trans         <3.1|DMX|1.1>    -0.005568134405 au =    -0.014151859042 Debye
 !MCSCF trans         <3.1|DMX|2.1>    -0.065326889032 au =    -0.166033514626 Debye
 !MCSCF expec         <3.1|DMX|3.1>     0.148058751464 au =     0.376303161545 Debye

 !MCSCF expec         <1.1|DMY|1.1>    -0.085602819582 au =    -0.217566414194 Debye
 !MCSCF trans         <2.1|DMY|1.1>    -0.048072781313 au =    -0.122180819529 Debye
 !MCSCF expec         <2.1|DMY|2.1>     0.016034218300 au =     0.040752248546 Debye
 !MCSCF trans         <3.1|DMY|1.1>    -0.007190323085 au =    -0.018274781345 Debye
 !MCSCF trans         <3.1|DMY|2.1>    -0.044048101802 au =    -0.111951774578 Debye
 !MCSCF expec         <3.1|DMY|3.1>     0.138329357952 au =     0.351575129584 Debye

 !MCSCF expec         <1.1|DMZ|1.1>     0.020358771199 au =     0.051743445704 Debye
 !MCSCF trans         <2.1|DMZ|1.1>    -0.002655461765 au =    -0.006749068514 Debye
 !MCSCF expec         <2.1|DMZ|2.1>    -0.000396579819 au =    -0.001007939337 Debye
 !MCSCF trans         <3.1|DMZ|1.1>     0.002168992691 au =     0.005512668443 Debye
 !MCSCF trans         <3.1|DMZ|2.1>    -0.004496398331 au =    -0.011427956070 Debye
 !MCSCF expec         <3.1|DMZ|3.1>    -0.019525167023 au =    -0.049624774003 Debye


 NATURAL ORBITALS (state averaged)
 =================================

  Orbital  Occupation    Energy     Coefficients
    1.1     2.00000   -11.26233     2 1s    0.99603
    2.1     2.00000   -11.24589     1 1s    0.99597
    3.1     2.00000    -1.05172     1 1s    0.28896     2 1s    0.26663
    4.1     2.00000    -0.78564     1 1s   -0.29818     2 1s    0.33530
    5.1     2.00000    -0.62516     1 2py   0.32934     2 2py   0.27241
    6.1     2.00000    -0.55955     1 2px   0.26357     2 2px  -0.25468     2 2py   0.26047
    7.1     2.00000    -0.41944     1 2pz   0.32094     1 2pz   0.27936     2 2pz   0.32938     2 2pz   0.28185
    8.1     1.00000    -0.08712     1 1s   -0.25637     1 2pz  -0.40787     1 2pz  -0.43638     2 1s   -0.27734     2 2pz   0.40092
                                    2 2pz   0.42236
    9.1     1.00000    -0.23078     1 2px  -0.30935     2 2px   0.31046     4 1s    0.28275     5 1s    0.30789
   10.1    -0.00000     0.21642     1 1s   -1.02577     1 2px   0.42774     1 2py   0.30028     1 2pz   0.34631     2 1s   -1.10476
                                    2 2px  -0.50667     2 2py  -0.46521     2 2pz  -0.38039     3 1s    0.52245     4 1s    0.92576
                                    5 1s    1.21024     6 1s    0.51146
   11.1    -0.00000     0.28105     1 1s    1.65304     1 2py   0.26669     1 2pz  -0.45649     2 1s   -1.65036     2 2py   0.32789
                                    2 2pz  -0.49641     3 1s   -1.38265     6 1s    1.48601
   12.1    -0.00000     0.31125     1 1s   -1.48213     1 2px   0.46076     1 2py  -0.37616     1 2pz   0.59575     2 1s   -0.26123
                                    2 2py   0.28602     2 2px  -0.30733     2 2py   1.20859     3 1s    1.36319     4 1s    0.75673
                                    5 1s   -1.00310     6 1s    1.39809
   13.1    -0.00000     0.32688     1 1s   -0.76295     1 2py   0.30604     1 2py   1.36052     2 1s    1.05442     2 2px   0.26888
                                    2 2pz   0.44667     3 1s   -0.94987     4 1s    1.99175     5 1s   -0.97578     6 1s   -0.61367
   14.1    -0.00000     0.42976     1 1s    1.83718     1 2px   1.81916     1 2py  -0.48821     1 2pz  -0.70829     2 1s   -1.91937
                                    2 2px   1.76723     2 2py  -0.55004     2 2pz  -0.74590     3 1s    0.65147     6 1s   -0.60478
   15.1    -0.00000     0.69881     1 2px   0.51073     1 2px  -0.80172     2 2px  -0.54843     2 2px   0.99656     4 1s   -0.27906
                                    4 1s    0.42510     5 1s    0.51625
   16.1    -0.00000     0.75156     1 1s   -0.47488     1 2px   0.28579     1 2py  -0.50512     1 2px  -0.77679     1 2py   1.21082
                                    1 2pz   0.30109     2 1s    0.48874     2 2px  -0.48031     2 2py   0.35060     3 1s   -0.50465
                                    4 1s    0.32636     6 1s    0.37798
   17.1    -0.00000     0.78754     1 2py   0.33376     1 2pz   0.56980     1 2py  -0.83588     1 2pz  -0.65059     2 1s   -0.36680
                                    2 2py  -0.55633     2 2px  -0.35088     2 2py   1.11124     6 1s    0.32925     6 1s    0.26115
   18.1    -0.00000     0.80443     1 1s   -0.39664     1 2pz  -0.48442     1 2py  -0.41202     1 2pz   0.47717     2 2py  -0.36741
                                    2 2pz  -0.77311     2 2py   0.75887     2 2pz   0.81056     5 1s   -0.30115
   19.1    -0.00000     0.86296     1 1s    0.32203     1 2pz   0.68350     1 2px  -0.46895     1 2py   0.57373     1 2pz  -1.03263
                                    2 1s    0.29865     2 2px  -0.25875     2 2pz  -0.63536     2 2px   0.51440     2 2py  -0.54432
                                    2 2pz   0.99231     3 1s   -0.28486     6 1s   -0.27759
   20.1    -0.00000     0.97960     1 2px   0.67338     1 2py   0.31071     1 2px  -1.04361     1 2py  -0.73552     2 2px   0.73702
                                    2 2py   0.46952     2 2px  -1.09285     2 2py  -0.87782     4 1s   -1.05176     5 1s    1.04504
   21.1    -0.00000     1.06002     1 1s    0.52203     1 2px   0.37161     1 2px  -0.37613     2 1s   -0.71857     2 1s    1.24093
                                    2 2py  -0.54889     2 2py   0.62614     4 1s   -0.31464     5 1s    0.99583     5 1s   -1.49698
   22.1    -0.00000     1.14535     1 1s    0.65022     1 2px  -0.31354     1 2py   0.61624     1 2px   0.69920     1 2py  -0.99082
                                    2 1s   -0.42311     2 1s    0.37301     2 2px  -0.50520     2 2py   0.43306     2 2px   0.97293
                                    2 2py  -0.80803     3 1s   -0.53438     3 1s    1.16762     4 1s    0.29940     4 1s   -0.79860
                                    6 1s    0.58026     6 1s   -1.40627
   23.1    -0.00000     1.17529     1 1s    0.33298     1 2py  -0.55698     1 2px   0.74008     1 2py   0.38574     2 1s   -0.66463
                                    2 2px   0.53525     4 1s   -0.81612     4 1s    1.37118     5 1s    0.31256     6 1s    0.71091
                                    6 1s   -0.72570
   24.1    -0.00000     1.20213     1 1s   -0.87959     1 1s    1.13818     1 2px   0.39798     1 2pz   0.26801     1 2px  -0.73641
                                    2 1s   -0.59208     2 1s    1.24363     2 2py   0.25944     3 1s    0.81201     3 1s   -1.30077
                                    4 1s    0.44352     4 1s   -0.66543     6 1s    0.44449     6 1s   -0.68158
   25.1    -0.00000     1.25253     1 1s   -1.31538     1 1s    2.86575     1 2py  -0.26871     1 2px  -0.34443     1 2py   0.47620
                                    1 2pz  -1.13502     2 1s   -1.02026     2 1s    1.39858     2 2px   0.69708     2 2py  -0.66005
                                    2 2pz   0.79108     3 1s   -0.43470     3 1s   -0.97837     4 1s   -0.55153     4 1s   -0.43949
                                    5 1s   -0.27928     5 1s   -0.29468     6 1s   -0.36264     6 1s   -0.86484
   26.1    -0.00000     1.28243     1 1s    1.52786     1 1s   -5.01691     1 2px  -1.24733     1 2py   0.83046     1 2pz   1.11619
                                    2 1s   -1.68479     2 1s    5.09950     2 2px  -1.19261     2 2py   0.64140     2 2pz   1.27527
                                    3 1s    0.37198     4 1s    0.84433     5 1s   -0.33707     5 1s   -0.50840     6 1s   -0.58400
   27.1    -0.00000     1.69003     1 1s    0.65555     1 3d0   0.35494     1 3d2- -0.30898     1 3d2+ -0.31600     2 1s   -0.57045
                                    2 3d0  -0.33134     2 3d2-  0.29297     2 3d2+  0.34046
   28.1    -0.00000     1.91329     1 1s   -0.25227     1 2px   0.27783     1 3d0   0.31599     1 3d1+  0.42988     1 3d2+  0.39379
                                    1 3d1-  0.39779     2 1s    0.38645     2 1s   -0.96891     2 2pz  -0.41504     2 3d0   0.37622
                                    2 3d2+  0.29280     3 1s    0.25939     6 1s    0.29056     6 1s    0.25915
   29.1    -0.00000     1.93869     1 1s    0.37996     1 1s   -1.53373     1 2pz   0.45736     1 3d2-  0.29258     1 3d1+ -0.28025
                                    1 3d1- -0.26660     2 1s    1.06304     2 2px  -0.35654     2 2py   0.25981     2 3d2- -0.29453
                                    2 3d1+  0.48409     2 3d2+  0.25374     2 3d1-  0.47399     3 1s    0.40543
   30.1    -0.00000     2.17567     1 1s   -0.39892     1 1s    1.67566     1 2px   0.36597     1 2pz  -0.47461     1 3d0  -0.52855
                                    1 3d2+ -0.29298     2 1s    0.27230     2 1s   -1.44435     2 2px   0.34602     2 2py  -0.31107
                                    2 2pz  -0.35720     2 3d0   0.59194     2 3d2+  0.41721     3 1s   -0.37894     4 1s   -0.25363
                                    5 1s    0.37095     6 1s    0.27867
   31.1    -0.00000     2.24815     1 1s   -0.43686     1 2px  -0.26335     1 3d1+ -0.37077     1 3d2+  0.43096     2 1s   -0.54384
                                    2 1s    0.61035     2 2px   0.26235     2 2px  -0.37084     2 3d0  -0.25011     2 3d2- -0.35552
                                    2 3d1+ -0.39688     2 3d2+  0.33557
   32.1    -0.00000     2.34257     1 1s   -0.41937     1 2px  -0.27234     1 2py   0.40313     1 3d0   0.55507     1 3d1- -0.29332
                                    2 1s    0.34717     2 2py  -0.33527     2 3d0   0.43908     2 3d2- -0.47966     2 3d1- -0.44567
                                    4 1s    0.42318     5 1s    0.33499     6 1s   -0.42919
   33.1    -0.00000     2.57137     1 3d2- -0.63215     1 3d1- -0.35897     2 2py   0.35695     2 3d2+ -0.27529     2 3d1-  0.70820
                                    3 1s   -0.44641     4 1s    0.30616     5 1s   -0.39661     6 1s    0.44759
   34.1    -0.00000     2.64897     1 1s    0.54794     1 2py  -0.45021     1 3d2- -0.28416     1 3d2+ -0.47368     1 3d1-  0.70090
                                    2 2px   0.26826     2 3d2- -0.59332     2 3d2+ -0.44716     4 1s   -0.55624     6 1s   -0.25786
   35.1    -0.00000     2.73062     1 3d0  -0.36498     1 3d2- -0.51573     1 3d1+  0.54146     1 3d1- -0.42120     2 3d0  -0.43311
                                    2 3d2- -0.38772     2 3d1+  0.42927     3 1s   -0.54390     4 1s    0.32136     6 1s   -0.38770
   36.1    -0.00000     2.95799     1 1s    1.71063     1 2px   0.43531     1 2px   0.88453     1 2pz  -0.42436     1 3d2- -0.35911
                                    1 3d1+ -0.68597     1 3d2+  0.68171     2 1s   -1.74818     2 2px   0.42124     2 2px   0.87449
                                    2 2py  -0.26931     2 2pz  -0.45927     2 3d2-  0.34018     2 3d1+  0.70656     2 3d2+ -0.60550


 Natural orbital dump (state averaged) at molpro section  2140.2    (Orbital set 2)



 **********************************************************************************************************************************
 DATASETS  * FILE   NREC   LENGTH (MB)   RECORD NAMES
              1      20       31.86       500      610      700      900      950      970     1000      129      960     1100   
                                          VAR    BASINP    GEOM    SYMINP    ZMAT    AOBASIS   BASIS     P2S    ABASIS      S 
                                         1400     1410     1200     1210     1080     1600     1650     1300     1700     1380   
                                           T        V       H0       H01     AOSYM     SMH    MOLCAS    ERIS     OPER     JKOP   

              2       5        5.42       700     1000      520     2100     2140   
                                         GEOM     BASIS   MCVARS     RHF     MCSCF   

 PROGRAMS   *        TOTAL     MULTI    HF-SCF       INT
 CPU TIMES  *         0.92      0.49      0.12      0.20
 REAL TIME  *         1.55 SEC
 DISK USED  *        39.04 MB
 **********************************************************************************************************************************
 Molecular orbitals read from record     2140.2  Type=MCSCF/NATURAL (state averaged)
 Occupation numbers read from record     2140.2  Type=MCSCF/NATURAL (state averaged)
 Orbital energies read from record       2140.2  Type=MCSCF/NATURAL (state averaged)
 Redundancy group numbers read from rec  2140.2  Type=MCSCF/NATURAL (state averaged)

 MULTI/6-31G* energy=    -77.547927926981

           MULTI          HF-SCF
    -77.54792793    -77.84352579
 **********************************************************************************************************************************
 Molpro calculation terminated
