
 Primary working directories    : /scratch.local/johan406.molpro_temp/molpro.IrnTb6nfs6
 Secondary working directories  : /scratch.local/johan406.molpro_temp/molpro.IrnTb6nfs6
 Wavefunction directory         : /home/goodpast/johan406/wfu/
 Main file repository           : /scratch.local/johan406.molpro_temp/molpro.IrnTb6nfs6/

 id        : roweumn

 Nodes     nprocs
 acn09        1

 Using customized tuning parameters: mindgm=1; mindgv=20; mindgc=4; mindgr=1; noblas=0; minvec=7
 default implementation of scratch files=df  


 Variables initialized (934), CPU time= 0.01 sec
                                                                                 !leave this line blank
 
 gprint, orbitals=30
 memory, 125., m
 symmetry, nosym
 nelect=16
 basis=6-31g*
 
 geometry={
 C -0.629 0.1315 0.2974
 C 0.6329 -0.1938 -0.3603
 H -1.2659 0.8877 -0.1488
 H -0.9337 -0.7843 -0.1263
 H 0.9996 0.8969 0.0882
 H 1.2773 -0.955 0.1007
 }
 
 hf
 {multi,
 closed 7
 occ 9
 wf,spin=0;STATE,3
 }
 
 Commands  initialized (763), CPU time= 0.01 sec, 617 directives.
 Default parameters read. Elapsed time= 0.08 sec

 Checking input...
 Passed
1


                                         ***  PROGRAM SYSTEM MOLPRO  ***
                                       Copyright, TTI GmbH Stuttgart, 2015
                                    Version 2019.2 linked Oct 25 2019 22:50:27


 **********************************************************************************************************************************
 LABEL *                                                                                 
  64 bit serial version                                                                  DATE: 07-Feb-23          TIME: 15:45:49  
 **********************************************************************************************************************************

 SHA1:             8dbd9ae1082e4ce945b0f27595c9eb2d4aa09004
 **********************************************************************************************************************************


 Variable memory set to  125000000 words,  buffer space 

 SETTING NELECT         =        16.00000000                                  
 SETTING BASIS          =    6-31G*
 ZSYMEL=NOSYM


Geometry recognized as XYZ



 Recomputing integrals since basis changed


 Using spherical harmonics

 Library entry C      S 6-31G                selected for orbital group  1
 Library entry C      P 6-31G                selected for orbital group  1
 Library entry C      D 6-31G*               selected for orbital group  1
 Library entry H      S 6-31G                selected for orbital group  2


 PROGRAM * SEWARD (Integral evaluation for generally contracted gaussian basis sets)     Author: Roland Lindh, 1990

 Geometry written to block  1 of record 700


 Point group  C1  



 ATOMIC COORDINATES

 NR  ATOM    CHARGE       X              Y              Z

   1  C       6.00   -1.188637732    0.248498985    0.562004549
   2  C       6.00    1.196007664   -0.366228923   -0.680868323
   3  H       1.00   -2.392204301    1.677509881   -0.281191247
   4  H       1.00   -1.764437283   -1.482112199   -0.238672410
   5  H       1.00    1.888970234    1.694895361    0.166673844
   6  H       1.00    2.413747179   -1.804688449    0.190295421

 Bond lengths in Bohr (Angstrom)

 1-2  2.758470055  1-3  2.049786276  1-4  1.991894522  2-5  2.333829077  2-6  2.076290346
     ( 1.459719490)     ( 1.084700184)     ( 1.054065188)     ( 1.235009162)     ( 1.098725534)

 Bond angles

  1-2-5   84.04461133   1-2-6  118.18765424   2-1-3  118.52953107   2-1-4   82.82876372

  3-1-4  105.70104127   5-2-6  106.57885204

 NUCLEAR CHARGE:                   16
 NUMBER OF PRIMITIVE AOS:          72
 NUMBER OF SYMMETRY AOS:           70
 NUMBER OF CONTRACTIONS:           36   (   36A   )
 NUMBER OF CORE ORBITALS:           2   (    2A   )
 NUMBER OF VALENCE ORBITALS:       12   (   12A   )


 NUCLEAR REPULSION ENERGY   32.40549289

 Eigenvalues of metric

         1 0.917E-02 0.268E-01 0.580E-01 0.616E-01 0.861E-01 0.216E+00 0.236E+00 0.273E+00


 Contracted 2-electron integrals neglected if value below      1.0D-11
 AO integral compression algorithm  1   Integral accuracy      1.0D-11

     1.573 MB (compressed) written to integral file ( 59.2%)


 NUMBER OF SORTED TWO-ELECTRON INTEGRALS:     222111.     BUFFER LENGTH:  32768
 NUMBER OF SEGMENTS:   1  SEGMENT LENGTH:     222111      RECORD LENGTH: 524288

 Memory used in sort:       0.78 MW

 SORT1 READ      284735. AND WROTE      212531. INTEGRALS IN      1 RECORDS. CPU TIME:     0.00 SEC, REAL TIME:     0.01 SEC
 SORT2 READ      212531. AND WROTE      222111. INTEGRALS IN      6 RECORDS. CPU TIME:     0.02 SEC, REAL TIME:     0.03 SEC

 FILE SIZES:   FILE 1:    31.7 MBYTE,  FILE 4:     4.2 MBYTE,   TOTAL:     35.9 MBYTE

 OPERATOR DM      FOR CENTER  0  COORDINATES:    0.000000    0.000000    0.000000


 **********************************************************************************************************************************
 DATASETS  * FILE   NREC   LENGTH (MB)   RECORD NAMES
              1      19       31.13       500      610      700      900      950      970     1000      129      960     1100   
                                          VAR    BASINP    GEOM    SYMINP    ZMAT    AOBASIS   BASIS     P2S    ABASIS      S 
                                         1400     1410     1200     1210     1080     1600     1650     1300     1700   
                                           T        V       H0       H01     AOSYM     SMH    MOLCAS    ERIS     OPER   

 PROGRAMS   *        TOTAL       INT
 CPU TIMES  *         0.32      0.22
 REAL TIME  *         0.58 SEC
 DISK USED  *        36.24 MB
 **********************************************************************************************************************************


 PROGRAM * RHF-SCF (CLOSED SHELL)       Authors: W. Meyer, H.-J. Werner


 NUMBER OF ELECTRONS:       8+    8-    SPACE SYMMETRY=1    SPIN SYMMETRY: Singlet 
 CONVERGENCE THRESHOLDS:    1.00E-05 (Density)    1.00E-07 (Energy)
 MAX. NUMBER OF ITERATIONS:       60
 INTERPOLATION TYPE:            DIIS
 INTERPOLATION STEPS:              2 (START)      1 (STEP)
 LEVEL SHIFTS:                  0.00 (CLOSED)  0.00 (OPEN) 



 Orbital guess generated from atomic densities. Full valence occupancy:    8

 Molecular orbital dump at record        2100.2

 Initial occupancy:   8

 ITERATION    DDIFF          GRAD             ENERGY        2-EL.EN.            DIPOLE MOMENTS         DIIS   ORB.
    1      0.000D+00      0.000D+00       -77.81810013    116.010302    0.10635   -0.02160   -0.08612    0    start
    2      0.000D+00      0.733D-02       -77.83672266    114.964678   -0.08165   -0.01604    0.09468    1    diag
    3      0.802D-02      0.281D-02       -77.83907438    115.333545    0.00246   -0.08168   -0.04549    2    diag
    4      0.328D-02      0.139D-02       -77.83982044    115.296631   -0.06622   -0.05354    0.04022    3    diag
    5      0.186D-02      0.555D-03       -77.83998148    115.248056   -0.05719   -0.06743    0.01843    4    diag
    6      0.769D-03      0.232D-03       -77.84007722    115.258520   -0.06479   -0.06883    0.02210    5    diag
    7      0.796D-03      0.103D-03       -77.84010675    115.259421   -0.06663   -0.06929    0.02229    6    diag
    8      0.508D-03      0.325D-04       -77.84010938    115.260558   -0.06649   -0.06924    0.02218    7    diag
    9      0.155D-03      0.108D-04       -77.84010961    115.260807   -0.06622   -0.06911    0.02208    8    diag
   10      0.463D-04      0.342D-05       -77.84010963    115.260813   -0.06612   -0.06913    0.02201    9    orth
   11      0.111D-04      0.914D-06       -77.84010963    115.260810   -0.06610   -0.06912    0.02199    9    diag
   12      0.251D-05      0.255D-06       -77.84010963    115.260813   -0.06609   -0.06912    0.02200    0    orth

 Final occupancy:   8

 !RHF STATE  1.1 Energy               -77.840109626897
 Nuclear energy                        32.40549289
 One-electron energy                 -167.87600900
 Two-electron energy                   57.63040649
 Virial quotient                       -1.00076873
 !RHF STATE  1.1 Dipole moment         -0.06609474    -0.06912199     0.02199579
 Dipole moment /Debye                  -0.16798506    -0.17567908     0.05590407

 ELECTRON ORBITALS
 =================

  Orbital  Occupation    Energy     Coefficients
    1.1     2.00000   -11.26957     2 1s    0.99612
    2.1     2.00000   -11.24953     1 1s    0.99604
    3.1     2.00000    -1.04036     1 1s    0.29683     2 1s    0.26857
    4.1     2.00000    -0.78540     1 1s   -0.26589     2 1s    0.31525
    5.1     2.00000    -0.62335     1 2py   0.35380     2 2py   0.25957
    6.1     2.00000    -0.56122     1 2px   0.30826     2 2px  -0.29369
    7.1     2.00000    -0.39318     1 2pz   0.26495     1 2pz   0.25413     2 2pz   0.31862     2 2pz   0.27924
    8.1     2.00000    -0.38499     2 2px   0.28701     5 1s    0.29901
    9.1     0.00000     0.06254     1 1s   -0.36293     1 2pz  -0.33447     1 2pz  -0.48359     2 1s   -0.42794     2 2pz   0.32703
                                    2 2pz   0.45228
   10.1     0.00000     0.22733     1 1s   -1.08961     1 2px   0.40404     1 2py   0.29289     1 2pz   0.42524     2 1s   -0.99919
                                    2 2px  -0.52684     2 2py  -0.45025     2 2pz  -0.40719     3 1s    0.56584     4 1s    0.93220
                                    5 1s    1.17761     6 1s    0.50309
   11.1     0.00000     0.28182     1 1s    1.49102     1 2py   0.31671     1 2pz  -0.40305     2 1s   -1.63089     2 2py   0.39543
                                    2 2pz  -0.51551     3 1s   -1.32447     6 1s    1.55573
   12.1     0.00000     0.31032     1 1s   -1.25628     1 2px   0.48448     1 2py  -0.74989     1 2pz   0.58344     2 1s   -0.44695
                                    2 2px  -0.34018     2 2py   1.09848     2 2pz  -0.34771     3 1s    1.64648     5 1s   -0.72088
                                    6 1s    1.39556
   13.1     0.00000     0.34146     1 1s   -1.20505     1 2py   0.25727     1 2py   1.17478     1 2pz   0.27333     2 1s    0.87685
                                    2 2px   0.29351     2 2py   0.32730     2 2pz   0.35855     3 1s   -0.39809     4 1s    2.20873
                                    5 1s   -1.12716     6 1s   -0.38201
   14.1     0.00000     0.42323     1 1s    1.97852     1 2px   1.81780     1 2py  -0.59613     1 2pz  -0.75974     2 1s   -2.03776
                                    2 2px   1.74595     2 2py  -0.64541     2 2pz  -0.80445     3 1s    0.66686     6 1s   -0.59185
   15.1     0.00000     0.70194     1 1s    0.30425     1 2px   0.52215     1 2px  -0.80444     2 2px  -0.56201     2 2px   1.03327
                                    4 1s    0.36199     5 1s    0.45402
   16.1     0.00000     0.75050     1 1s   -0.37962     1 2px   0.28653     1 2py  -0.55801     1 2px  -0.73057     1 2py   1.31352
                                    1 2pz   0.30709     2 1s    0.45016     2 2px  -0.37011     3 1s   -0.49376     4 1s    0.34426
                                    6 1s    0.33412
   17.1     0.00000     0.78797     1 2py   0.25835     1 2pz   0.62324     1 2py  -0.65019     1 2pz  -0.63364     2 1s   -0.30905
                                    2 2py  -0.52485     2 2pz   0.27213     2 2px  -0.38941     2 2py   1.02526     2 2pz  -0.30402
                                    6 1s    0.35612     6 1s    0.27200
   18.1     0.00000     0.80739     1 2pz  -0.41210     1 2py  -0.51199     1 2pz   0.36650     2 2py  -0.47747     2 2pz  -0.74709
                                    2 2py   0.89260     2 2pz   0.66874     5 1s   -0.31093
   19.1     0.00000     0.86468     1 1s    0.36641     1 2pz   0.70661     1 2px  -0.42623     1 2py   0.57312     1 2pz  -0.96873
                                    2 1s    0.33888     2 2pz  -0.65935     2 2px   0.48273     2 2py  -0.55137     2 2pz   0.94653
   20.1     0.00000     0.97245     1 2px   0.67579     1 2py   0.29245     1 2px  -1.12786     1 2py  -0.70497     2 1s    0.28089
                                    2 2px   0.73832     2 2py   0.46890     2 2px  -1.16403     2 2py  -0.86456     4 1s   -1.12080
                                    5 1s    1.04277
   21.1     0.00000     1.08396     1 1s   -0.26668     1 1s    0.46022     1 2px   0.38590     1 2px  -0.50144     2 1s   -0.75298
                                    2 1s    1.41204     2 2py  -0.53137     2 2py   0.63092     2 2pz   0.25110     3 1s   -0.28260
                                    4 1s   -0.34952     5 1s    0.97109     5 1s   -1.49956
   22.1     0.00000     1.14459     1 1s    0.53657     1 2px  -0.29665     1 2py   0.49534     1 2px   0.74557     1 2py  -0.87061
                                    2 1s   -0.51830     2 1s    0.49378     2 2px  -0.49823     2 2py   0.43259     2 2px   1.01933
                                    2 2py  -0.80420     3 1s   -0.50542     3 1s    1.13005     4 1s   -0.53415     6 1s    0.69207
                                    6 1s   -1.54072
   23.1     0.00000     1.18564     1 1s   -0.32836     1 1s    0.66648     1 2py  -0.58216     1 2py   0.56554     2 2px   0.27679
                                    3 1s    0.77525     3 1s   -1.07132     4 1s   -0.36320     4 1s    0.70245     6 1s    0.74072
                                    6 1s   -0.76172
   24.1     0.00000     1.22787     1 1s   -1.08101     1 1s    1.37222     1 2px   0.27748     1 2pz   0.35129     1 2px  -1.03777
                                    1 2pz  -0.46737     2 1s   -0.85961     2 1s    2.01349     2 2pz   0.58903     3 1s    0.28098
                                    3 1s   -0.96871     4 1s    0.72341     4 1s   -1.46548     5 1s   -0.48622     6 1s   -0.51706
   25.1     0.00000     1.26394     1 1s   -1.37539     1 1s    3.63926     1 2py  -0.30574     1 2py   0.28045     1 2pz  -1.28919
                                    2 1s   -0.45547     2 2px   0.95516     2 2py  -0.74936     2 2pz   0.38777     3 1s   -0.50079
                                    3 1s   -0.85363     4 1s   -0.74748     4 1s   -0.32433     6 1s   -0.32797     6 1s   -0.60453
   26.1     0.00000     1.29363     1 1s    1.33188     1 1s   -4.46460     1 2px  -1.16606     1 2py   0.96868     1 2pz   0.91359
                                    2 1s   -1.73904     2 1s    4.96336     2 2px  -1.00031     2 2py   0.53738     2 2pz   1.35330
                                    4 1s    1.01017     5 1s   -0.37396     5 1s   -0.52238     6 1s   -0.67615
   27.1     0.00000     1.69483     1 1s    0.63288     1 3d0   0.36578     1 3d2- -0.30807     1 3d2+ -0.31032     2 1s   -0.53096
                                    2 3d0  -0.33358     2 3d2-  0.28544     2 3d2+  0.34162
   28.1     0.00000     1.91357     1 2px   0.29245     1 3d0   0.31126     1 3d1+  0.45003     1 3d2+  0.39651     1 3d1-  0.41133
                                    2 1s    0.41012     2 1s   -1.04296     2 2pz  -0.43148     2 3d0   0.37812     2 3d2+  0.26812
                                    3 1s    0.25193     6 1s    0.29829     6 1s    0.25515
   29.1     0.00000     1.94261     1 1s    0.40129     1 1s   -1.59694     1 2pz   0.48827     1 3d2-  0.29343     2 1s    1.01063
                                    2 2px  -0.37016     2 2py   0.27064     2 3d2- -0.28812     2 3d1+  0.49795     2 3d2+  0.26175
                                    2 3d1-  0.49208     3 1s    0.41907
   30.1     0.00000     2.17243     1 1s   -0.39370     1 1s    1.67627     1 2px   0.36341     1 2pz  -0.47970     1 3d0  -0.51556
                                    1 3d2+ -0.28302     2 1s    0.25953     2 1s   -1.41065     2 2px   0.34433     2 2py  -0.31137
                                    2 2pz  -0.34810     2 3d0   0.59484     2 3d2+  0.42255     3 1s   -0.37812     5 1s    0.37861
                                    6 1s    0.26460
   31.1     0.00000     2.25293     1 1s   -0.44315     1 2px  -0.25551     1 3d1+ -0.35954     1 3d2+  0.43277     2 1s   -0.54999
                                    2 1s    0.60786     2 2px   0.25519     2 2px  -0.38441     2 2py   0.25116     2 3d0  -0.27009
                                    2 3d2- -0.34148     2 3d1+ -0.38427     2 3d2+  0.33365
   32.1     0.00000     2.34783     1 1s   -0.49283     1 2px  -0.27001     1 2py   0.38698     1 3d0   0.55315     1 3d1- -0.25769
                                    2 1s    0.44615     2 2py  -0.30837     2 2pz   0.26514     2 3d0   0.42106     2 3d2- -0.51489
                                    2 3d1- -0.44721     4 1s    0.44000     5 1s    0.33083     6 1s   -0.44664
   33.1     0.00000     2.57342     1 3d0   0.26264     1 3d2- -0.62950     1 3d1- -0.31111     2 2py   0.35337     2 3d1+ -0.26725
                                    2 3d2+ -0.30157     2 3d1-  0.70776     3 1s   -0.41605     4 1s    0.29311     5 1s   -0.38953
                                    6 1s    0.43846
   34.1     0.00000     2.66223     1 1s    0.60926     1 2py  -0.43766     1 3d2- -0.30185     1 3d2+ -0.44510     1 3d1-  0.68150
                                    2 2px   0.29724     2 3d2- -0.61710     2 3d1+  0.25582     2 3d2+ -0.43015     4 1s   -0.57609
                                    6 1s   -0.30275
   35.1     0.00000     2.72945     1 1s   -0.28578     1 2py   0.30358     1 3d0  -0.32210     1 3d2- -0.52491     1 3d1+  0.54388
                                    1 3d1- -0.50816     2 1s    0.27710     2 3d0  -0.42603     2 3d2- -0.34158     2 3d1+  0.37741
                                    3 1s   -0.56803     4 1s    0.41723     6 1s   -0.34506
   36.1     0.00000     2.96365     1 1s    1.65801     1 2px   0.44308     1 2px   0.86935     1 2pz  -0.40602     1 3d2- -0.36748
                                    1 3d1+ -0.67773     1 3d2+  0.69780     2 1s   -1.71134     2 2px   0.42328     2 2px   0.85578
                                    2 2py  -0.26585     2 2pz  -0.45322     2 3d2-  0.34217     2 3d1+  0.70418     2 3d2+ -0.59637


 HOMO      8.1    -0.384993 =     -10.4762eV
 LUMO      9.1     0.062542 =       1.7019eV
 LUMO-HOMO         0.447535 =      12.1781eV


 **********************************************************************************************************************************
 DATASETS  * FILE   NREC   LENGTH (MB)   RECORD NAMES
              1      19       31.13       500      610      700      900      950      970     1000      129      960     1100   
                                          VAR    BASINP    GEOM    SYMINP    ZMAT    AOBASIS   BASIS     P2S    ABASIS      S 
                                         1400     1410     1200     1210     1080     1600     1650     1300     1700   
                                           T        V       H0       H01     AOSYM     SMH    MOLCAS    ERIS     OPER   

              2       4        2.86       700     1000      520     2100   
                                         GEOM     BASIS   MCVARS     RHF  

 PROGRAMS   *        TOTAL    HF-SCF       INT
 CPU TIMES  *         0.44      0.12      0.22
 REAL TIME  *         0.78 SEC
 DISK USED  *        36.24 MB
 **********************************************************************************************************************************


 PROGRAM * MULTI (Direct Multiconfiguration SCF)       Authors: P.J. Knowles, H.-J. Werner (1984)


 Number of closed-shell orbitals:   7 (   7 )
 Number of active  orbitals:        2 (   2 )
 Number of external orbitals:      27 (  27 )

 State symmetry 1

 Number of electrons:     2    Spin symmetry=Singlet   Space symmetry=1
 Number of states:        3
 Number of CSFs:          3   (4 determinants, 4 intermediate states)

 Molecular orbitals read from record     2100.2  Type=RHF/CANONICAL (state 1.1)

 Wavefunction dump at record             2140.2

 Convergence thresholds  0.10E-01 (gradient)  0.10E-05 (energy)  0.10E-02 (step length)

 Weight factors for state symmetry  1:    0.33333   0.33333   0.33333

 Number of orbital rotations:      257   (    14 Core/Active    189 Core/Virtual   0 Active/Active     54 Active/Virtual)
 Total number of variables:        269

 Micro-Iterations solved by the two-step solver

 ITER. MIC  NCI  NEG     ENERGY(VAR)     ENERGY(PROJ)   ENERGY CHANGE     GRAD(0)  GRAD(ORB)   GRAD(CI)     STEP       TIME

   1   10    6    0     -77.67613374     -77.70388844   -0.02775470    0.15912330 0.00052727 0.00000000  0.21D+00      0.18
   2    7    5    0     -77.70294770     -77.70321081   -0.00026311    0.02636575 0.00003459 0.00000000  0.12D-01      0.28
   3    6    5    0     -77.70321164     -77.70321165   -0.00000001    0.00014018 0.00000001 0.00000000  0.70D-04      0.37
   4    3    3    0     -77.70321165     -77.70321165    0.00000000    0.00000000 0.00000000 0.00000000  0.38D-08      0.43

 ** WVFN ****  CONVERGENCE REACHED, FINAL GRADIENT:  0.12D-12



 Results for state 1.1
 =====================

 !MCSCF STATE  1.1 Energy             -77.833692691742
 Nuclear energy                        32.40549289
 Kinetic energy                        77.83370520
 One electron energy                 -167.94689844
 Two electron energy                   57.70771286
 Virial ratio                           1.99999984

 !MCSCF STATE  1.1 Dipole moment       -0.09533627    -0.11070367     0.02614339
 Dipole moment /Debye                  -0.24230475    -0.28136223     0.06644553

 Results for state 2.1
 =====================

 !MCSCF STATE  2.1 Energy             -77.731085414017
 Nuclear energy                        32.40549289
 Kinetic energy                        77.91076953
 One electron energy                 -167.65026673
 Two electron energy                   57.51368843
 Virial ratio                           1.99769372

 !MCSCF STATE  2.1 Dipole moment        0.02838121     0.02054184    -0.00055506
 Dipole moment /Debye                   0.07213311     0.05220874    -0.00141072

 Results for state 3.1
 =====================

 !MCSCF STATE  3.1 Energy             -77.544856835733
 Nuclear energy                        32.40549289
 Kinetic energy                        77.97348634
 One electron energy                 -167.40482290
 Two electron energy                   57.45447317
 Virial ratio                           1.99450288

 !MCSCF STATE  3.1 Dipole moment        0.19117361     0.17883485    -0.02516417
 Dipole moment /Debye                   0.48588303     0.45452309    -0.06395674

 State-averaged charge density matrix saved on record  2140.2 (density set 1)

 !MCSCF expec         <1.1|DMX|1.1>    -0.095336269013 au =    -0.242304754599 Debye
 !MCSCF trans         <2.1|DMX|1.1>    -0.086976694968 au =    -0.221058228398 Debye
 !MCSCF expec         <2.1|DMX|2.1>     0.028381208502 au =     0.072133111903 Debye
 !MCSCF trans         <3.1|DMX|1.1>    -0.007129890521 au =    -0.018121187150 Debye
 !MCSCF trans         <3.1|DMX|2.1>    -0.084225255209 au =    -0.214065224134 Debye
 !MCSCF expec         <3.1|DMX|3.1>     0.191173610530 au =     0.485883025052 Debye

 !MCSCF expec         <1.1|DMY|1.1>    -0.110703668725 au =    -0.281362230359 Debye
 !MCSCF trans         <2.1|DMY|1.1>    -0.062026831739 au =    -0.157646155010 Debye
 !MCSCF expec         <2.1|DMY|2.1>     0.020541843473 au =     0.052208738535 Debye
 !MCSCF trans         <3.1|DMY|1.1>    -0.009288094061 au =    -0.023606434103 Debye
 !MCSCF trans         <3.1|DMY|2.1>    -0.056644037365 au =    -0.143965352485 Debye
 !MCSCF expec         <3.1|DMY|3.1>     0.178834853246 au =     0.454523086314 Debye

 !MCSCF expec         <1.1|DMZ|1.1>     0.026143393169 au =     0.066445525209 Debye
 !MCSCF trans         <2.1|DMZ|1.1>    -0.003319870192 au =    -0.008437715683 Debye
 !MCSCF expec         <2.1|DMZ|2.1>    -0.000555055276 au =    -0.001410717388 Debye
 !MCSCF trans         <3.1|DMZ|1.1>     0.002798151542 au =     0.007111725995 Debye
 !MCSCF trans         <3.1|DMZ|2.1>    -0.005713344566 au =    -0.014520922282 Debye
 !MCSCF expec         <3.1|DMZ|3.1>    -0.025164166065 au =    -0.063956741189 Debye


 NATURAL ORBITALS (state averaged)
 =================================

  Orbital  Occupation    Energy     Coefficients
    1.1     2.00000   -11.26465     2 1s    0.99614
    2.1     2.00000   -11.24346     1 1s    0.99606
    3.1     2.00000    -1.05289     1 1s    0.29209     2 1s    0.26328
    4.1     2.00000    -0.78596     1 1s   -0.29194     2 1s    0.33990
    5.1     2.00000    -0.62534     1 2py   0.33676     2 2py   0.26371
    6.1     2.00000    -0.55927     1 2px   0.26477     2 2px  -0.25340     2 2py   0.26648
    7.1     2.00000    -0.41947     1 2pz   0.31982     1 2pz   0.27894     2 2pz   0.33068     2 2pz   0.28216
    8.1     1.00000    -0.08733     1 1s   -0.25280     1 2pz  -0.40885     1 2pz  -0.43817     2 1s   -0.28001     2 2pz   0.39988
                                    2 2pz   0.42009
    9.1     1.00000    -0.23079     1 2px  -0.30902     2 2px   0.31048     4 1s    0.27985     5 1s    0.31216
   10.1    -0.00000     0.21442     1 1s   -0.99363     1 2px   0.41055     1 2py   0.28009     1 2pz   0.33563     2 1s   -1.08837
                                    2 2px  -0.50957     2 2py  -0.48588     2 2pz  -0.37726     3 1s    0.50948     4 1s    0.87386
                                    5 1s    1.22662     6 1s    0.49501
   11.1    -0.00000     0.28096     1 1s    1.64578     1 2py   0.26028     1 2pz  -0.44806     2 1s   -1.64922     2 2py   0.33963
                                    2 2pz  -0.50208     3 1s   -1.36394     6 1s    1.50250
   12.1    -0.00000     0.31000     1 1s   -1.56368     1 2px   0.47010     1 2py  -0.36210     1 2pz   0.61477     2 1s   -0.28741
                                    2 2py   0.28208     2 2px  -0.32288     2 2py   1.18131     3 1s    1.39265     4 1s    0.81793
                                    5 1s   -0.94278     6 1s    1.38620
   13.1    -0.00000     0.32988     1 1s   -0.84985     1 2py   0.30502     1 2py   1.39278     2 1s    0.99679     2 2pz   0.43557
                                    3 1s   -0.95270     4 1s    2.08688     5 1s   -0.90570     6 1s   -0.59660
   14.1    -0.00000     0.42975     1 1s    1.81326     1 2px   1.82645     1 2py  -0.47339     1 2pz  -0.69912     2 1s   -1.92205
                                    2 2px   1.75936     2 2py  -0.55442     2 2pz  -0.74817     3 1s    0.65832     6 1s   -0.59851
   15.1    -0.00000     0.69852     1 1s    0.29688     1 2px   0.50115     1 2px  -0.76641     2 2px  -0.55010     2 2px   1.02111
                                    4 1s   -0.28910     4 1s    0.40000     5 1s    0.52139
   16.1    -0.00000     0.74931     1 1s   -0.51039     1 2px   0.29898     1 2py  -0.52134     1 2px  -0.79741     1 2py   1.28441
                                    1 2pz   0.35772     2 1s    0.51393     2 2px  -0.41853     3 1s   -0.49751     4 1s    0.33486
                                    6 1s    0.34283
   17.1    -0.00000     0.78727     1 2py   0.26783     1 2pz   0.59894     1 2py  -0.71334     1 2pz  -0.68248     2 1s   -0.37545
                                    2 2py  -0.53118     2 2px  -0.37658     2 2py   1.04422     2 2pz  -0.26738     6 1s    0.35237
                                    6 1s    0.26714
   18.1    -0.00000     0.80685     1 1s   -0.36882     1 2pz  -0.42735     1 2py  -0.46316     1 2pz   0.40222     2 2py  -0.42474
                                    2 2pz  -0.75986     2 2py   0.84679     2 2pz   0.78729     5 1s   -0.31617
   19.1    -0.00000     0.86304     1 1s    0.32467     1 2pz   0.68917     1 2px  -0.46179     1 2py   0.58750     1 2pz  -1.03638
                                    2 1s    0.29368     2 2px  -0.26077     2 2pz  -0.62547     2 2px   0.52151     2 2py  -0.54999
                                    2 2pz   0.98407     3 1s   -0.28856     6 1s   -0.27896
   20.1    -0.00000     0.97870     1 2px   0.65416     1 2py   0.29406     1 2px  -1.02860     1 2py  -0.72228     2 2px   0.74164
                                    2 2py   0.50259     2 2px  -1.09870     2 2py  -0.90957     4 1s   -1.06746     5 1s    1.07860
   21.1    -0.00000     1.04878     1 1s    0.43089     1 2px   0.39439     1 2px  -0.41023     2 1s   -0.72294     2 1s    1.25955
                                    2 2py  -0.51043     2 2py   0.57861     4 1s   -0.29765     5 1s    1.00772     5 1s   -1.45332
   22.1    -0.00000     1.14660     1 1s    0.60520     1 2px  -0.33510     1 2py   0.51721     1 2px   0.80097     1 2py  -0.90975
                                    2 1s   -0.43243     2 1s    0.31380     2 2px  -0.51391     2 2py   0.45517     2 2px   1.03944
                                    2 2py  -0.83676     3 1s   -0.50535     3 1s    1.14986     4 1s   -0.57144     6 1s    0.67752
                                    6 1s   -1.51243
   23.1    -0.00000     1.18313     1 2py  -0.65294     1 2px   0.45505     1 2py   0.55303     2 1s   -0.58794     2 2px   0.35719
                                    3 1s    0.55366     3 1s   -0.59016     4 1s   -0.66226     4 1s    1.24381     6 1s    0.73097
                                    6 1s   -0.61603
   24.1    -0.00000     1.21046     1 1s   -1.01834     1 1s    1.27557     1 2px   0.39729     1 2pz   0.31438     1 2px  -0.95430
                                    1 2pz  -0.29386     2 1s   -0.76508     2 1s    1.71448     2 2pz   0.38694     3 1s    0.63906
                                    3 1s   -1.23082     4 1s    0.62457     4 1s   -1.09600     5 1s   -0.31811     6 1s   -0.62187
   25.1    -0.00000     1.25478     1 1s   -1.31304     1 1s    3.11208     1 2py  -0.31156     1 2py   0.43388     1 2pz  -1.18327
                                    2 1s   -0.85125     2 1s    0.89942     2 2px   0.77510     2 2py  -0.69508     2 2pz   0.66549
                                    3 1s   -0.46736     3 1s   -0.93910     4 1s   -0.64169     4 1s   -0.39444     5 1s   -0.25549
                                    6 1s   -0.35503     6 1s   -0.78152
   26.1    -0.00000     1.28446     1 1s    1.49503     1 1s   -4.91772     1 2px  -1.21486     1 2py   0.88016     1 2pz   1.06360
                                    2 1s   -1.70093     2 1s    5.03967     2 2px  -1.14279     2 2py   0.60177     2 2pz   1.29249
                                    3 1s    0.33025     4 1s    0.94604     5 1s   -0.35327     5 1s   -0.48444     6 1s   -0.61733
   27.1    -0.00000     1.68985     1 1s    0.66532     1 3d0   0.35850     1 3d2- -0.31120     1 3d2+ -0.31223     2 1s   -0.55539
                                    2 3d0  -0.32788     2 3d2-  0.29044     2 3d2+  0.34398
   28.1    -0.00000     1.91133     1 2px   0.28984     1 3d0   0.30714     1 3d1+  0.44327     1 3d2+  0.39995     1 3d1-  0.40745
                                    2 1s    0.39700     2 1s   -1.01408     2 2pz  -0.42129     2 3d0   0.38067     2 3d2+  0.28013
                                    3 1s    0.25119     6 1s    0.29703     6 1s    0.25068
   29.1    -0.00000     1.93944     1 1s    0.38986     1 1s   -1.55977     1 2pz   0.47619     1 3d2-  0.28899     1 3d1+ -0.25312
                                    2 1s    0.99066     2 2px  -0.36112     2 2py   0.27125     2 3d2- -0.28935     2 3d1+  0.49745
                                    2 3d2+  0.26368     2 3d1-  0.48953     3 1s    0.41904
   30.1    -0.00000     2.17176     1 1s   -0.40336     1 1s    1.65856     1 2px   0.35394     1 2pz  -0.47671     1 3d0  -0.51528
                                    1 3d2+ -0.27945     2 1s    0.25100     2 1s   -1.37020     2 2px   0.33420     2 2py  -0.31733
                                    2 2pz  -0.33032     2 3d0   0.59521     2 3d2+  0.42853     3 1s   -0.37893     5 1s    0.37509
                                    6 1s    0.25209
   31.1    -0.00000     2.24921     1 1s   -0.42896     1 2px  -0.26090     1 3d1+ -0.36302     1 3d2+  0.43751     2 1s   -0.55357
                                    2 1s    0.65687     2 2px   0.26025     2 2px  -0.38856     2 3d0  -0.27375     2 3d2- -0.35845
                                    2 3d1+ -0.39343     2 3d2+  0.32452
   32.1    -0.00000     2.34209     1 1s   -0.52560     1 2px  -0.28810     1 2py   0.40599     1 3d0   0.56022     1 3d1- -0.26830
                                    2 1s    0.45009     2 2py  -0.31940     2 2pz   0.26772     2 3d0   0.41292     2 3d2- -0.50960
                                    2 3d1- -0.46111     4 1s    0.43052     5 1s    0.31667     6 1s   -0.46390
   33.1    -0.00000     2.56835     1 3d0   0.25159     1 3d2- -0.64792     1 3d1- -0.30378     2 2py   0.35393     2 3d1+ -0.25401
                                    2 3d2+ -0.30823     2 3d1-  0.70774     3 1s   -0.42733     4 1s    0.28274     5 1s   -0.37715
                                    6 1s    0.42758
   34.1    -0.00000     2.65573     1 1s    0.62409     1 2py  -0.45834     1 3d2- -0.27271     1 3d2+ -0.44732     1 3d1-  0.70745
                                    2 2px   0.29464     2 3d2- -0.61256     2 3d2+ -0.42247     4 1s   -0.58694     6 1s   -0.30094
   35.1    -0.00000     2.73385     1 1s   -0.26122     1 2py   0.28891     1 3d0  -0.33863     1 3d2- -0.51985     1 3d1+  0.54897
                                    1 3d1- -0.48400     2 1s    0.26474     2 3d0  -0.43305     2 3d2- -0.35090     2 3d1+  0.39389
                                    3 1s   -0.56293     4 1s    0.38448     6 1s   -0.35529
   36.1    -0.00000     2.95957     1 1s    1.68975     1 2px   0.43646     1 2px   0.88125     1 2pz  -0.41459     1 3d2- -0.36575
                                    1 3d1+ -0.68058     1 3d2+  0.69469     2 1s   -1.73978     2 2px   0.41768     2 2px   0.86813
                                    2 2py  -0.27300     2 2pz  -0.46050     2 3d2-  0.33986     2 3d1+  0.70733     2 3d2+ -0.59452


 Natural orbital dump (state averaged) at molpro section  2140.2    (Orbital set 2)



 **********************************************************************************************************************************
 DATASETS  * FILE   NREC   LENGTH (MB)   RECORD NAMES
              1      20       31.86       500      610      700      900      950      970     1000      129      960     1100   
                                          VAR    BASINP    GEOM    SYMINP    ZMAT    AOBASIS   BASIS     P2S    ABASIS      S 
                                         1400     1410     1200     1210     1080     1600     1650     1300     1700     1380   
                                           T        V       H0       H01     AOSYM     SMH    MOLCAS    ERIS     OPER     JKOP   

              2       5        5.42       700     1000      520     2100     2140   
                                         GEOM     BASIS   MCVARS     RHF     MCSCF   

 PROGRAMS   *        TOTAL     MULTI    HF-SCF       INT
 CPU TIMES  *         0.91      0.47      0.12      0.22
 REAL TIME  *         1.47 SEC
 DISK USED  *        39.04 MB
 **********************************************************************************************************************************
 Molecular orbitals read from record     2140.2  Type=MCSCF/NATURAL (state averaged)
 Occupation numbers read from record     2140.2  Type=MCSCF/NATURAL (state averaged)
 Orbital energies read from record       2140.2  Type=MCSCF/NATURAL (state averaged)
 Redundancy group numbers read from rec  2140.2  Type=MCSCF/NATURAL (state averaged)

 MULTI/6-31G* energy=    -77.544856835733

           MULTI          HF-SCF
    -77.54485684    -77.84010963
 **********************************************************************************************************************************
 Molpro calculation terminated
