
 Primary working directories    : /scratch.local/johan406.molpro_temp/molpro.btvQfQ6YiH
 Secondary working directories  : /scratch.local/johan406.molpro_temp/molpro.btvQfQ6YiH
 Wavefunction directory         : /home/goodpast/johan406/wfu/
 Main file repository           : /scratch.local/johan406.molpro_temp/molpro.btvQfQ6YiH/

 id        : roweumn

 Nodes     nprocs
 acn09        1

 Using customized tuning parameters: mindgm=1; mindgv=20; mindgc=4; mindgr=1; noblas=0; minvec=7
 default implementation of scratch files=df  


 Variables initialized (934), CPU time= 0.00 sec
                                                                                 !leave this line blank
 
 gprint, orbitals=30
 memory, 125., m
 symmetry, nosym
 nelect=16
 basis=6-31g*
 
 geometry={
 C -0.6294 0.1303 0.2972
 C 0.6324 -0.195 -0.3605
 H -1.2656 0.8861 -0.1476
 H -0.9281 -0.7685 -0.1241
 H 1.0051 0.9125 0.0904
 H 1.2775 -0.9567 0.1019
 }
 
 hf
 {multi,
 closed 7
 occ 9
 wf,spin=0;STATE,3
 }
 
 Commands  initialized (763), CPU time= 0.01 sec, 617 directives.
 Default parameters read. Elapsed time= 0.07 sec

 Checking input...
 Passed
1


                                         ***  PROGRAM SYSTEM MOLPRO  ***
                                       Copyright, TTI GmbH Stuttgart, 2015
                                    Version 2019.2 linked Oct 25 2019 22:50:27


 **********************************************************************************************************************************
 LABEL *                                                                                 
  64 bit serial version                                                                  DATE: 07-Feb-23          TIME: 15:46:16  
 **********************************************************************************************************************************

 SHA1:             8dbd9ae1082e4ce945b0f27595c9eb2d4aa09004
 **********************************************************************************************************************************


 Variable memory set to  125000000 words,  buffer space 

 SETTING NELECT         =        16.00000000                                  
 SETTING BASIS          =    6-31G*
 ZSYMEL=NOSYM


Geometry recognized as XYZ



 Recomputing integrals since basis changed


 Using spherical harmonics

 Library entry C      S 6-31G                selected for orbital group  1
 Library entry C      P 6-31G                selected for orbital group  1
 Library entry C      D 6-31G*               selected for orbital group  1
 Library entry H      S 6-31G                selected for orbital group  2


 PROGRAM * SEWARD (Integral evaluation for generally contracted gaussian basis sets)     Author: Roland Lindh, 1990

 Geometry written to block  1 of record 700


 Point group  C1  



 ATOMIC COORDINATES

 NR  ATOM    CHARGE       X              Y              Z

   1  C       6.00   -1.189393623    0.246231314    0.561626604
   2  C       6.00    1.195062801   -0.368496594   -0.681246268
   3  H       1.00   -2.391637383    1.674486319   -0.278923576
   4  H       1.00   -1.753854816   -1.452254527   -0.234515012
   5  H       1.00    1.899363728    1.724375089    0.170831242
   6  H       1.00    2.414125124   -1.807900983    0.192563092

 Bond lengths in Bohr (Angstrom)

 1-2  2.758306693  1-3  2.047395180  1-4  1.958905833  2-5  2.366894117  2-6  2.078831581
     ( 1.459633043)     ( 1.083434871)     ( 1.036608325)     ( 1.252506427)     ( 1.100070298)

 Bond angles

  1-2-5   84.14320914   1-2-6  118.15439687   2-1-3  118.56131370   2-1-4   82.68810295

  3-1-4  105.59272526   5-2-6  106.64441683

 NUCLEAR CHARGE:                   16
 NUMBER OF PRIMITIVE AOS:          72
 NUMBER OF SYMMETRY AOS:           70
 NUMBER OF CONTRACTIONS:           36   (   36A   )
 NUMBER OF CORE ORBITALS:           2   (    2A   )
 NUMBER OF VALENCE ORBITALS:       12   (   12A   )


 NUCLEAR REPULSION ENERGY   32.42226342

 Eigenvalues of metric

         1 0.913E-02 0.266E-01 0.570E-01 0.613E-01 0.881E-01 0.215E+00 0.235E+00 0.273E+00


 Contracted 2-electron integrals neglected if value below      1.0D-11
 AO integral compression algorithm  1   Integral accuracy      1.0D-11

     1.573 MB (compressed) written to integral file ( 59.2%)


 NUMBER OF SORTED TWO-ELECTRON INTEGRALS:     222111.     BUFFER LENGTH:  32768
 NUMBER OF SEGMENTS:   1  SEGMENT LENGTH:     222111      RECORD LENGTH: 524288

 Memory used in sort:       0.78 MW

 SORT1 READ      284735. AND WROTE      212531. INTEGRALS IN      1 RECORDS. CPU TIME:     0.00 SEC, REAL TIME:     0.00 SEC
 SORT2 READ      212531. AND WROTE      222111. INTEGRALS IN      6 RECORDS. CPU TIME:     0.02 SEC, REAL TIME:     0.03 SEC

 FILE SIZES:   FILE 1:    31.7 MBYTE,  FILE 4:     4.2 MBYTE,   TOTAL:     35.9 MBYTE

 OPERATOR DM      FOR CENTER  0  COORDINATES:    0.000000    0.000000    0.000000


 **********************************************************************************************************************************
 DATASETS  * FILE   NREC   LENGTH (MB)   RECORD NAMES
              1      19       31.13       500      610      700      900      950      970     1000      129      960     1100   
                                          VAR    BASINP    GEOM    SYMINP    ZMAT    AOBASIS   BASIS     P2S    ABASIS      S 
                                         1400     1410     1200     1210     1080     1600     1650     1300     1700   
                                           T        V       H0       H01     AOSYM     SMH    MOLCAS    ERIS     OPER   

 PROGRAMS   *        TOTAL       INT
 CPU TIMES  *         0.31      0.20
 REAL TIME  *         0.68 SEC
 DISK USED  *        36.24 MB
 **********************************************************************************************************************************


 PROGRAM * RHF-SCF (CLOSED SHELL)       Authors: W. Meyer, H.-J. Werner


 NUMBER OF ELECTRONS:       8+    8-    SPACE SYMMETRY=1    SPIN SYMMETRY: Singlet 
 CONVERGENCE THRESHOLDS:    1.00E-05 (Density)    1.00E-07 (Energy)
 MAX. NUMBER OF ITERATIONS:       60
 INTERPOLATION TYPE:            DIIS
 INTERPOLATION STEPS:              2 (START)      1 (STEP)
 LEVEL SHIFTS:                  0.00 (CLOSED)  0.00 (OPEN) 



 Orbital guess generated from atomic densities. Full valence occupancy:    8

 Molecular orbital dump at record        2100.2

 Initial occupancy:   8

 ITERATION    DDIFF          GRAD             ENERGY        2-EL.EN.            DIPOLE MOMENTS         DIIS   ORB.
    1      0.000D+00      0.000D+00       -77.81387398    116.040408    0.12737   -0.02580   -0.10326    0    start
    2      0.000D+00      0.745D-02       -77.83276363    114.984472   -0.09758   -0.01916    0.11314    1    diag
    3      0.822D-02      0.301D-02       -77.83529776    115.337792   -0.00017   -0.09510   -0.04910    2    diag
    4      0.339D-02      0.148D-02       -77.83613907    115.321354   -0.07530   -0.06576    0.04300    3    diag
    5      0.193D-02      0.564D-03       -77.83630938    115.266446   -0.06860   -0.08030    0.02251    4    diag
    6      0.805D-03      0.234D-03       -77.83640673    115.276841   -0.07715   -0.08233    0.02610    5    diag
    7      0.805D-03      0.103D-03       -77.83643615    115.277617   -0.07935   -0.08285    0.02638    6    diag
    8      0.501D-03      0.338D-04       -77.83643902    115.278785   -0.07922   -0.08281    0.02625    7    diag
    9      0.160D-03      0.118D-04       -77.83643930    115.279065   -0.07890   -0.08266    0.02613    8    diag
   10      0.507D-04      0.373D-05       -77.83643932    115.279081   -0.07879   -0.08267    0.02604    9    orth
   11      0.125D-04      0.101D-05       -77.83643932    115.279079   -0.07875   -0.08267    0.02602    9    diag
   12      0.275D-05      0.284D-06       -77.83643932    115.279082   -0.07875   -0.08266    0.02603    0    orth

 Final occupancy:   8

 !RHF STATE  1.1 Energy               -77.836439317894
 Nuclear energy                        32.42226342
 One-electron energy                 -167.89824377
 Two-electron energy                   57.63954102
 Virial quotient                       -1.00057776
 !RHF STATE  1.1 Dipole moment         -0.07875316    -0.08266366     0.02602805
 Dipole moment /Debye                  -0.20015747    -0.21009630     0.06615238

 ELECTRON ORBITALS
 =================

  Orbital  Occupation    Energy     Coefficients
    1.1     2.00000   -11.27153     2 1s    0.99619
    2.1     2.00000   -11.24769     1 1s    0.99609
    3.1     2.00000    -1.04174     1 1s    0.29941     2 1s    0.26573
    4.1     2.00000    -0.78582     1 1s   -0.26018     2 1s    0.25017     2 1s    0.31917
    5.1     2.00000    -0.62395     1 2py   0.36161     2 2py   0.25050
    6.1     2.00000    -0.56107     1 2px   0.31036     2 2px  -0.29325
    7.1     2.00000    -0.39360     1 2pz   0.26197     1 2pz   0.25143     2 2pz   0.31884     2 2pz   0.27751
    8.1     2.00000    -0.38419     2 2px   0.28632     5 1s    0.30252
    9.1     0.00000     0.06223     1 1s   -0.35563     1 2pz  -0.33524     1 2pz  -0.48620     2 1s   -0.43316     2 2pz   0.32637
                                    2 2pz   0.44895
   10.1     0.00000     0.22560     1 1s   -1.07798     1 2px   0.38723     1 2py   0.28206     1 2pz   0.42072     2 1s   -0.97005
                                    2 2px  -0.53027     2 2py  -0.46418     2 2pz  -0.39903     3 1s    0.55584     4 1s    0.90107
                                    5 1s    1.18342     6 1s    0.48338
   11.1     0.00000     0.28165     1 1s    1.47547     1 2py   0.30874     1 2pz  -0.39178     2 1s   -1.63994     2 2py   0.40147
                                    2 2pz  -0.52473     3 1s   -1.30110     6 1s    1.57398
   12.1     0.00000     0.30945     1 1s   -1.33791     1 2px   0.49354     1 2py  -0.71614     1 2pz   0.60256     2 1s   -0.43021
                                    2 2px  -0.34237     2 2py   1.08785     2 2pz  -0.33902     3 1s    1.66159     4 1s    0.27898
                                    5 1s   -0.71390     6 1s    1.37005
   13.1     0.00000     0.34357     1 1s   -1.25878     1 2py   0.25955     1 2py   1.22398     1 2pz   0.27875     2 1s    0.83853
                                    2 2px   0.28294     2 2py   0.28280     2 2pz   0.35816     3 1s   -0.44269     4 1s    2.29401
                                    5 1s   -1.04821     6 1s   -0.40019
   14.1     0.00000     0.42313     1 1s    1.96215     1 2px   1.82516     1 2py  -0.58497     1 2pz  -0.75222     2 1s   -2.03602
                                    2 2px   1.73946     2 2py  -0.64580     2 2pz  -0.80609     3 1s    0.67394     6 1s   -0.58556
   15.1     0.00000     0.70157     1 1s    0.35310     1 2px   0.51395     1 2px  -0.77455     2 2px  -0.56214     2 2px   1.05199
                                    4 1s   -0.25936     4 1s    0.34147     5 1s    0.45631
   16.1     0.00000     0.74782     1 1s   -0.41374     1 2px   0.29634     1 2py  -0.56486     1 2px  -0.74543     1 2py   1.36243
                                    1 2pz   0.35116     2 1s    0.47647     2 2px  -0.31651     3 1s   -0.48380     4 1s    0.35000
                                    6 1s    0.30402
   17.1     0.00000     0.78774     1 2pz  -0.63612     1 2py   0.55056     1 2pz   0.65009     2 1s    0.29799     2 2py   0.49833
                                    2 2pz  -0.31909     2 2px   0.40511     2 2py  -0.96481     2 2pz   0.35073     6 1s   -0.36866
                                    6 1s   -0.26856
   18.1     0.00000     0.80971     1 2pz  -0.37246     1 2py  -0.53080     1 2pz   0.31586     2 2py  -0.51312     2 2pz  -0.73433
                                    2 2py   0.93974     2 2pz   0.64496     5 1s   -0.31306
   19.1     0.00000     0.86467     1 1s    0.36856     1 2pz   0.71012     1 2px  -0.42004     1 2py   0.58518     1 2pz  -0.96949
                                    2 1s    0.33482     2 2px  -0.25080     2 2pz  -0.65188     2 2px   0.48812     2 2py  -0.55995
                                    2 2pz   0.94283
   20.1     0.00000     0.97177     1 2px   0.66453     1 2py   0.27988     1 2px  -1.11931     1 2py  -0.69544     2 1s    0.27934
                                    2 2px   0.74062     2 2py   0.48934     2 2px  -1.16504     2 2py  -0.88372     4 1s   -1.13937
                                    5 1s    1.05263
   21.1     0.00000     1.07636     1 1s    0.38073     1 2px   0.39523     1 2px  -0.51903     2 1s   -0.76561     2 1s    1.44817
                                    2 2py  -0.50067     2 2py   0.59511     2 2pz   0.25350     3 1s   -0.26837     4 1s   -0.33069
                                    5 1s    0.98302     5 1s   -1.47811
   22.1     0.00000     1.14417     1 1s    0.53625     1 2px  -0.29504     1 2py   0.45080     1 2px   0.76099     1 2py  -0.82839
                                    2 1s   -0.52282     2 1s    0.48558     2 2px  -0.49988     2 2py   0.45074     2 2px   1.02990
                                    2 2py  -0.81921     3 1s   -0.46972     3 1s    1.08511     4 1s   -0.46243     6 1s    0.73402
                                    6 1s   -1.58392
   23.1     0.00000     1.18647     1 1s   -0.38284     1 1s    0.73217     1 2py  -0.59401     1 2py   0.59860     3 1s    0.82253
                                    3 1s   -1.16998     4 1s   -0.31958     4 1s    0.66363     6 1s    0.70193     6 1s   -0.67571
   24.1     0.00000     1.23710     1 1s   -1.20470     1 1s    1.69318     1 2pz   0.34078     1 2px  -1.07912     1 2pz  -0.63090
                                    2 1s   -1.06801     2 1s    2.32161     2 2py  -0.29360     2 2pz   0.75152     3 1s   -1.01995
                                    4 1s    0.58410     4 1s   -1.50310     5 1s   -0.50945     6 1s   -0.65853
   25.1     0.00000     1.26732     1 1s   -1.34285     1 1s    3.96676     1 2py  -0.33577     1 2px   0.43976     1 2pz  -1.30979
                                    2 1s   -1.17300     2 2px   1.07680     2 2py  -0.77628     3 1s   -0.50982     3 1s   -0.73796
                                    4 1s   -0.82979     6 1s   -0.28043     6 1s   -0.41080
   26.1     0.00000     1.29861     1 1s    1.25764     1 1s   -4.13002     1 2py  -0.30628     1 2px  -1.04118     1 2py   1.01245
                                    1 2pz   0.80003     2 1s   -1.67579     2 1s    4.63580     2 2px  -0.87235     2 2py   0.45782
                                    2 2pz   1.31369     4 1s   -0.34539     4 1s    1.14805     5 1s   -0.35753     5 1s   -0.49812
                                    6 1s   -0.68690
   27.1     0.00000     1.69453     1 1s    0.63969     1 3d0   0.36924     1 3d2- -0.31009     1 3d2+ -0.30691     2 1s   -0.51815
                                    2 3d0  -0.33050     2 3d2-  0.28292     2 3d2+  0.34461
   28.1     0.00000     1.91139     1 2px   0.29992     1 3d0   0.30541     1 3d1+  0.45785     1 3d2+  0.40100     1 3d1-  0.41598
                                    2 1s    0.41589     2 1s   -1.06870     2 2pz  -0.43343     2 3d0   0.38096     2 3d2+  0.25917
                                    6 1s    0.30045
   29.1     0.00000     1.94325     1 1s    0.40670     1 1s   -1.61414     1 2pz   0.50128     1 3d2-  0.29144     2 1s    0.95632
                                    2 2px  -0.37193     2 2py   0.27858     2 3d2- -0.28310     2 3d1+  0.50642     2 3d2+  0.26638
                                    2 3d1-  0.50242     3 1s    0.42896
   30.1     0.00000     2.16878     1 1s   -0.39451     1 1s    1.65822     1 2px   0.35235     1 2pz  -0.47951     1 3d0  -0.50519
                                    1 3d2+ -0.27413     2 1s   -1.35030     2 2px   0.33484     2 2py  -0.31561     2 2pz  -0.32690
                                    2 3d0   0.59795     2 3d2+  0.43075     3 1s   -0.37670     5 1s    0.38021
   31.1     0.00000     2.25378     1 1s   -0.43996     1 2px  -0.25348     1 3d1+ -0.35406     1 3d2+  0.43630     2 1s   -0.55556
                                    2 1s    0.63167     2 2px   0.25381     2 2px  -0.39559     2 2py   0.26026     2 3d0  -0.28587
                                    2 3d2- -0.34142     2 3d1+ -0.38077     2 3d2+  0.32662
   32.1     0.00000     2.34725     1 1s   -0.57759     1 2px  -0.28191     1 2py   0.38786     1 3d0   0.55425     2 1s    0.52788
                                    2 2py  -0.29508     2 2pz   0.28604     2 3d0   0.39904     2 3d2- -0.53894     2 3d1- -0.45898
                                    4 1s    0.44534     5 1s    0.31483     6 1s   -0.47367
   33.1     0.00000     2.57059     1 3d0   0.27781     1 3d2- -0.63709     1 3d1- -0.27192     2 2py   0.34785     2 3d1+ -0.27546
                                    2 3d2+ -0.32359     2 3d1-  0.70293     3 1s   -0.39990     4 1s    0.27702     5 1s   -0.37134
                                    6 1s    0.42309
   34.1     0.00000     2.66754     1 1s    0.65364     1 2py  -0.42959     1 3d2- -0.31504     1 3d2+ -0.41706     1 3d1-  0.66251
                                    2 2px   0.31191     2 3d2- -0.63327     2 3d1+  0.30859     2 3d2+ -0.40648     4 1s   -0.58096
                                    6 1s   -0.33758
   35.1     0.00000     2.73361     1 1s   -0.38686     1 2py   0.34726     1 3d0  -0.28978     1 3d2- -0.51952     1 3d1+  0.54597
                                    1 3d1- -0.57452     2 1s    0.34426     2 3d0  -0.42193     2 3d2- -0.29871     2 3d1+  0.33400
                                    3 1s   -0.58005     4 1s    0.48770     6 1s   -0.30891
   36.1     0.00000     2.96536     1 1s    1.63616     1 2px   0.44423     1 2px   0.86545     1 2pz  -0.39635     1 3d2- -0.37411
                                    1 3d1+ -0.67261     1 3d2+  0.70955     2 1s   -1.70168     2 2px   0.41984     2 2px   0.84904
                                    2 2py  -0.26839     2 2pz  -0.45369     2 3d2-  0.34216     2 3d1+  0.70423     2 3d2+ -0.58633
                                    4 1s    0.25818


 HOMO      8.1    -0.384189 =     -10.4543eV
 LUMO      9.1     0.062230 =       1.6934eV
 LUMO-HOMO         0.446419 =      12.1477eV


 **********************************************************************************************************************************
 DATASETS  * FILE   NREC   LENGTH (MB)   RECORD NAMES
              1      19       31.13       500      610      700      900      950      970     1000      129      960     1100   
                                          VAR    BASINP    GEOM    SYMINP    ZMAT    AOBASIS   BASIS     P2S    ABASIS      S 
                                         1400     1410     1200     1210     1080     1600     1650     1300     1700   
                                           T        V       H0       H01     AOSYM     SMH    MOLCAS    ERIS     OPER   

              2       4        2.86       700     1000      520     2100   
                                         GEOM     BASIS   MCVARS     RHF  

 PROGRAMS   *        TOTAL    HF-SCF       INT
 CPU TIMES  *         0.41      0.10      0.20
 REAL TIME  *         0.90 SEC
 DISK USED  *        36.24 MB
 **********************************************************************************************************************************


 PROGRAM * MULTI (Direct Multiconfiguration SCF)       Authors: P.J. Knowles, H.-J. Werner (1984)


 Number of closed-shell orbitals:   7 (   7 )
 Number of active  orbitals:        2 (   2 )
 Number of external orbitals:      27 (  27 )

 State symmetry 1

 Number of electrons:     2    Spin symmetry=Singlet   Space symmetry=1
 Number of states:        3
 Number of CSFs:          3   (4 determinants, 4 intermediate states)

 Molecular orbitals read from record     2100.2  Type=RHF/CANONICAL (state 1.1)

 Wavefunction dump at record             2140.2

 Convergence thresholds  0.10E-01 (gradient)  0.10E-05 (energy)  0.10E-02 (step length)

 Weight factors for state symmetry  1:    0.33333   0.33333   0.33333

 Number of orbital rotations:      257   (    14 Core/Active    189 Core/Virtual   0 Active/Active     54 Active/Virtual)
 Total number of variables:        269

 Micro-Iterations solved by the two-step solver

 ITER. MIC  NCI  NEG     ENERGY(VAR)     ENERGY(PROJ)   ENERGY CHANGE     GRAD(0)  GRAD(ORB)   GRAD(CI)     STEP       TIME

   1   10    6    0     -77.67184576     -77.70035469   -0.02850892    0.15824740 0.00050243 0.00000000  0.21D+00      0.17
   2    7    5    0     -77.69944935     -77.69973781   -0.00028847    0.02743794 0.00003971 0.00000000  0.12D-01      0.27
   3    7    5    0     -77.69973880     -77.69973881   -0.00000001    0.00015456 0.00000000 0.00000000  0.93D-04      0.37
   4    3    3    0     -77.69973881     -77.69973881    0.00000000    0.00000001 0.00000000 0.00000000  0.75D-08      0.43

 ** WVFN ****  CONVERGENCE REACHED, FINAL GRADIENT:  0.12D-12



 Results for state 1.1
 =====================

 !MCSCF STATE  1.1 Energy             -77.830010255163
 Nuclear energy                        32.42226342
 Kinetic energy                        77.84380975
 One electron energy                 -167.96667966
 Two electron energy                   57.71440598
 Virial ratio                           1.99982273

 !MCSCF STATE  1.1 Dipole moment       -0.11353312    -0.13232541     0.03092821
 Dipole moment /Debye                  -0.28855351    -0.33631561     0.07860653

 Results for state 2.1
 =====================

 !MCSCF STATE  2.1 Energy             -77.727685375123
 Nuclear energy                        32.42226342
 Kinetic energy                        77.92151424
 One electron energy                 -167.67367013
 Two electron energy                   57.52372134
 Virial ratio                           1.99751251

 !MCSCF STATE  2.1 Dipole moment        0.03355518     0.02421037    -0.00074929
 Dipole moment /Debye                   0.08528316     0.06153258    -0.00190439

 Results for state 3.1
 =====================

 !MCSCF STATE  3.1 Energy             -77.541520793383
 Nuclear energy                        32.42226342
 Kinetic energy                        77.98481488
 One electron energy                 -167.43391507
 Two electron energy                   57.47013085
 Virial ratio                           1.99431564

 !MCSCF STATE  3.1 Dipole moment        0.22812433     0.21358050    -0.02993324
 Dipole moment /Debye                   0.57979623     0.54283192    -0.07607772

 State-averaged charge density matrix saved on record  2140.2 (density set 1)

 !MCSCF expec         <1.1|DMX|1.1>    -0.113533119521 au =    -0.288553505912 Debye
 !MCSCF trans         <2.1|DMX|1.1>    -0.103847550156 au =    -0.263936856526 Debye
 !MCSCF expec         <2.1|DMX|2.1>     0.033555175412 au =     0.085283162723 Debye
 !MCSCF trans         <3.1|DMX|1.1>    -0.008413810482 au =    -0.021384372446 Debye
 !MCSCF trans         <3.1|DMX|2.1>    -0.100362897514 au =    -0.255080333065 Debye
 !MCSCF expec         <3.1|DMX|3.1>     0.228124329494 au =     0.579796233355 Debye

 !MCSCF expec         <1.1|DMY|1.1>    -0.132325405989 au =    -0.336315605353 Debye
 !MCSCF trans         <2.1|DMY|1.1>    -0.074044709017 au =    -0.188190551543 Debye
 !MCSCF expec         <2.1|DMY|2.1>     0.024210365615 au =     0.061532581040 Debye
 !MCSCF trans         <3.1|DMY|1.1>    -0.011069544635 au =    -0.028134133254 Debye
 !MCSCF trans         <3.1|DMY|2.1>    -0.067376118605 au =    -0.171241795524 Debye
 !MCSCF expec         <3.1|DMY|3.1>     0.213580498287 au =     0.542831922836 Debye

 !MCSCF expec         <1.1|DMZ|1.1>     0.030928212292 au =     0.078606525797 Debye
 !MCSCF trans         <2.1|DMZ|1.1>    -0.003850105174 au =    -0.009785350308 Debye
 !MCSCF expec         <2.1|DMZ|2.1>    -0.000749292311 au =    -0.001904386352 Debye
 !MCSCF trans         <3.1|DMZ|1.1>     0.003332423644 au =     0.008469621285 Debye
 !MCSCF trans         <3.1|DMZ|2.1>    -0.006728172622 au =    -0.017100188973 Debye
 !MCSCF expec         <3.1|DMZ|3.1>    -0.029933237333 au =    -0.076077717340 Debye


 NATURAL ORBITALS (state averaged)
 =================================

  Orbital  Occupation    Energy     Coefficients
    1.1     2.00000   -11.26660     2 1s    0.99619
    2.1     2.00000   -11.24138     1 1s    0.99610
    3.1     2.00000    -1.05416     1 1s    0.29474     2 1s    0.26041
    4.1     2.00000    -0.78624     1 1s   -0.28648     2 1s    0.34370
    5.1     2.00000    -0.62553     1 2py   0.34280     2 2py   0.25633
    6.1     2.00000    -0.55897     1 2px   0.26582     2 2px  -0.25235     2 2py   0.27121
    7.1     2.00000    -0.41953     1 2pz   0.31888     1 2pz   0.27854     2 2pz   0.33180     2 2pz   0.28240
    8.1     1.00000    -0.08751     1 2pz  -0.40964     1 2pz  -0.43965     2 1s   -0.28232     2 2pz   0.39894     2 2pz   0.41813
    9.1     1.00000    -0.23078     1 2px  -0.30866     2 2px   0.31041     4 1s    0.27763     5 1s    0.31594
   10.1    -0.00000     0.21237     1 1s   -0.96485     1 2px   0.39577     1 2py   0.26452     1 2pz   0.32631     2 1s   -1.06948
                                    2 2px  -0.51059     2 2py  -0.50167     2 2pz  -0.37319     3 1s    0.49678     4 1s    0.83066
                                    5 1s    1.23470     6 1s    0.47915
   11.1    -0.00000     0.28084     1 1s    1.63695     1 2py   0.25531     1 2pz  -0.44004     2 1s   -1.64866     2 2py   0.34973
                                    2 2pz  -0.50696     3 1s   -1.34676     6 1s    1.51700
   12.1    -0.00000     0.30905     1 1s   -1.62885     1 2px   0.47699     1 2py  -0.35974     1 2pz   0.63023     2 1s   -0.31260
                                    2 2py   0.27784     2 2px  -0.33778     2 2py   1.15774     3 1s    1.42353     4 1s    0.85629
                                    5 1s   -0.88716     6 1s    1.37874
   13.1    -0.00000     0.33257     1 1s   -0.93679     1 2py   0.30339     1 2py   1.41742     2 1s    0.95229     2 2pz   0.42672
                                    3 1s   -0.94719     4 1s    2.17365     5 1s   -0.85680     6 1s   -0.57425
   14.1    -0.00000     0.42980     1 1s    1.79153     1 2px   1.83303     1 2py  -0.45922     1 2pz  -0.69095     2 1s   -1.92441
                                    2 2px   1.75302     2 2py  -0.55765     2 2pz  -0.75003     3 1s    0.66336     6 1s   -0.59303
   15.1    -0.00000     0.69815     1 1s    0.35264     1 2px   0.49192     1 2px  -0.73417     1 2py  -0.25672     2 2px  -0.55041
                                    2 2px   1.04128     4 1s   -0.29831     4 1s    0.37512     5 1s    0.52443
   16.1    -0.00000     0.74721     1 1s   -0.54451     1 2px   0.30969     1 2py  -0.52819     1 2px  -0.81321     1 2py   1.33343
                                    1 2pz   0.40334     2 1s    0.53392     2 2px  -0.36465     3 1s   -0.48891     4 1s    0.33842
                                    6 1s    0.31328
   17.1    -0.00000     0.78708     1 2pz  -0.61276     1 2py   0.61822     1 2pz   0.69715     2 1s    0.37507     2 2py   0.50918
                                    2 2pz  -0.29661     2 2px   0.39228     2 2py  -0.98913     2 2pz   0.32594     6 1s   -0.36651
                                    6 1s   -0.26876
   18.1    -0.00000     0.80912     1 1s   -0.33999     1 2pz  -0.38608     1 2py  -0.48716     1 2pz   0.34531     2 2py  -0.46245
                                    2 2pz  -0.74860     2 2py   0.89771     2 2pz   0.76692     5 1s   -0.32246
   19.1    -0.00000     0.86315     1 1s    0.32694     1 2pz   0.69403     1 2px  -0.45531     1 2py   0.60126     1 2pz  -1.03906
                                    2 1s    0.28893     2 2px  -0.26271     2 2pz  -0.61603     2 2px   0.52767     2 2py  -0.55699
                                    2 2pz   0.97636     3 1s   -0.29222     6 1s   -0.28047
   20.1    -0.00000     0.97768     1 2px   0.63267     1 2py   0.28054     1 2px  -1.00960     1 2py  -0.71189     2 2px   0.74419
                                    2 2py   0.53368     2 2px  -1.10224     2 2py  -0.93978     4 1s   -1.08004     5 1s    1.12048
   21.1    -0.00000     1.03988     1 1s    0.36478     1 2px   0.42018     1 2px  -0.45318     2 1s   -0.72715     2 1s    1.28092
                                    2 2py  -0.46926     2 2py   0.52481     4 1s   -0.31097     5 1s    1.01352     5 1s   -1.40198
   22.1    -0.00000     1.14657     1 1s    0.59299     1 2px  -0.34013     1 2py   0.45612     1 2px   0.84073     1 2py  -0.85403
                                    2 1s   -0.43295     2 1s    0.28235     2 2px  -0.51575     2 2py   0.46982     2 2px   1.06266
                                    2 2py  -0.84871     3 1s   -0.47110     3 1s    1.11016     4 1s   -0.45549     6 1s    0.72932
                                    6 1s   -1.56103
   23.1    -0.00000     1.18735     1 1s    0.32969     1 2py  -0.66058     1 2py   0.60849     2 1s   -0.46281     2 2px   0.25524
                                    3 1s    0.72486     3 1s   -0.88751     4 1s   -0.50812     4 1s    1.05125     6 1s    0.71879
                                    6 1s   -0.55899
   24.1    -0.00000     1.22006     1 1s   -1.10975     1 1s    1.40855     1 2px   0.36051     1 2pz   0.32803     1 2px  -1.08953
                                    1 2pz  -0.41463     2 1s   -0.97987     2 1s    2.18148     2 2pz   0.57928     3 1s    0.43846
                                    3 1s   -1.15500     4 1s    0.65317     4 1s   -1.34448     5 1s   -0.38471     6 1s   -0.66483
   25.1    -0.00000     1.25794     1 1s   -1.30149     1 1s    3.40470     1 2py  -0.35526     1 2py   0.36743     1 2pz  -1.22877
                                    2 1s   -0.59063     2 2px   0.87929     2 2py  -0.72976     2 2pz   0.47654     3 1s   -0.49859
                                    3 1s   -0.86995     4 1s   -0.74193     4 1s   -0.31855     6 1s   -0.33791     6 1s   -0.65277
   26.1    -0.00000     1.28733     1 1s    1.45105     1 1s   -4.74355     1 2px  -1.15275     1 2py   0.93583     1 2pz   0.98954
                                    2 1s   -1.69700     2 1s    4.90797     2 2px  -1.06638     2 2py   0.54897     2 2pz   1.29746
                                    3 1s    0.28433     4 1s    1.06412     5 1s   -0.35798     5 1s   -0.46875     6 1s   -0.64539
   27.1    -0.00000     1.68969     1 1s    0.67331     1 3d0   0.36174     1 3d2- -0.31305     1 3d2+ -0.30885     2 1s   -0.54209
                                    2 3d0  -0.32489     2 3d2-  0.28811     2 3d2+  0.34706
   28.1    -0.00000     1.90935     1 2px   0.29677     1 3d0   0.30083     1 3d1+  0.45120     1 3d2+  0.40396     1 3d1-  0.41211
                                    2 1s    0.40275     2 1s   -1.03928     2 2pz  -0.42306     2 3d0   0.38451     2 3d2+  0.27173
                                    6 1s    0.29936
   29.1    -0.00000     1.94012     1 1s    0.39525     1 1s   -1.57723     1 2pz   0.48927     1 3d2-  0.28671     2 1s    0.93703
                                    2 2px  -0.36333     2 2py   0.27942     2 3d2- -0.28486     2 3d1+  0.50594     2 3d2+  0.26887
                                    2 3d1-  0.50014     3 1s    0.42888
   30.1    -0.00000     2.16788     1 1s   -0.40383     1 1s    1.63732     1 2px   0.34122     1 2pz  -0.47618     1 3d0  -0.50431
                                    1 3d1+ -0.25124     1 3d2+ -0.27073     2 1s   -1.30477     2 2px   0.32422     2 2py  -0.32200
                                    2 2pz  -0.30729     2 3d0   0.59755     2 3d2+  0.43610     3 1s   -0.37718     4 1s   -0.25017
                                    5 1s    0.37584
   31.1    -0.00000     2.25039     1 1s   -0.42584     1 2px  -0.25877     1 3d1+ -0.35699     1 3d2+  0.44109     2 1s   -0.55957
                                    2 1s    0.68219     2 2px   0.25866     2 2px  -0.40077     2 2py   0.25070     2 3d0  -0.29083
                                    2 3d2- -0.35821     2 3d1+ -0.38975     2 3d2+  0.31742
   32.1    -0.00000     2.34164     1 1s   -0.61307     1 2px  -0.30015     1 2py   0.40712     1 3d0   0.56227     2 1s    0.53395
                                    2 2py  -0.30511     2 2pz   0.28899     2 3d0   0.38952     2 3d2- -0.53358     2 3d1- -0.47264
                                    4 1s    0.43611     5 1s    0.30035     6 1s   -0.49120
   33.1    -0.00000     2.56572     1 3d0   0.26601     1 3d2- -0.65633     1 3d1- -0.26426     2 2py   0.34792     2 3d1+ -0.26151
                                    2 3d2+ -0.32960     2 3d1-  0.70200     3 1s   -0.41193     4 1s    0.26682     5 1s   -0.35862
                                    6 1s    0.41069
   34.1    -0.00000     2.66188     1 1s    0.67703     1 2py  -0.45551     1 3d2- -0.27803     1 3d2+ -0.42178     1 3d1-  0.69651
                                    2 2px   0.31181     2 3d2- -0.62472     2 3d1+  0.29507     2 3d2+ -0.40102     4 1s   -0.60040
                                    6 1s   -0.33292
   35.1    -0.00000     2.73767     1 1s   -0.35418     1 2py   0.32907     1 3d0  -0.31006     1 3d2- -0.51867     1 3d1+  0.55300
                                    1 3d1- -0.54438     2 1s    0.32792     2 3d0  -0.43028     2 3d2- -0.31488     2 3d1+  0.35577
                                    3 1s   -0.57635     4 1s    0.44782     6 1s   -0.32360
   36.1    -0.00000     2.96143     1 1s    1.66798     1 2px   0.43758     1 2px   0.87725     1 2pz  -0.40497     1 3d2- -0.37255
                                    1 3d1+ -0.67544     1 3d2+  0.70645     2 1s   -1.72965     2 2px   0.41438     2 2px   0.86140
                                    2 2py  -0.27539     2 2pz  -0.46082     2 3d2-  0.33988     2 3d1+  0.70749     2 3d2+ -0.58469


 Natural orbital dump (state averaged) at molpro section  2140.2    (Orbital set 2)



 **********************************************************************************************************************************
 DATASETS  * FILE   NREC   LENGTH (MB)   RECORD NAMES
              1      20       31.86       500      610      700      900      950      970     1000      129      960     1100   
                                          VAR    BASINP    GEOM    SYMINP    ZMAT    AOBASIS   BASIS     P2S    ABASIS      S 
                                         1400     1410     1200     1210     1080     1600     1650     1300     1700     1380   
                                           T        V       H0       H01     AOSYM     SMH    MOLCAS    ERIS     OPER     JKOP   

              2       5        5.42       700     1000      520     2100     2140   
                                         GEOM     BASIS   MCVARS     RHF     MCSCF   

 PROGRAMS   *        TOTAL     MULTI    HF-SCF       INT
 CPU TIMES  *         0.89      0.48      0.10      0.20
 REAL TIME  *         1.49 SEC
 DISK USED  *        39.04 MB
 **********************************************************************************************************************************
 Molecular orbitals read from record     2140.2  Type=MCSCF/NATURAL (state averaged)
 Occupation numbers read from record     2140.2  Type=MCSCF/NATURAL (state averaged)
 Orbital energies read from record       2140.2  Type=MCSCF/NATURAL (state averaged)
 Redundancy group numbers read from rec  2140.2  Type=MCSCF/NATURAL (state averaged)

 MULTI/6-31G* energy=    -77.541520793383

           MULTI          HF-SCF
    -77.54152079    -77.83643932
 **********************************************************************************************************************************
 Molpro calculation terminated
