
 Primary working directories    : /scratch.local/johan406.molpro_temp/molpro.GAxLPaeG2k
 Secondary working directories  : /scratch.local/johan406.molpro_temp/molpro.GAxLPaeG2k
 Wavefunction directory         : /home/goodpast/johan406/wfu/
 Main file repository           : /scratch.local/johan406.molpro_temp/molpro.GAxLPaeG2k/

 id        : roweumn

 Nodes     nprocs
 acn09        1

 Using customized tuning parameters: mindgm=1; mindgv=20; mindgc=4; mindgr=1; noblas=0; minvec=7
 default implementation of scratch files=df  


 Variables initialized (934), CPU time= 0.00 sec
                                                                                 !leave this line blank
 
 gprint, orbitals=30
 memory, 125., m
 symmetry, nosym
 nelect=16
 basis=6-31g*
 
 geometry={
 C -0.6296 0.1299 0.2971
 C 0.6322 -0.1954 -0.3606
 H -1.2656 0.8855 -0.1472
 H -0.9263 -0.7632 -0.1234
 H 1.007 0.9177 0.0911
 H 1.2776 -0.9573 0.1023
 }
 
 hf
 {multi,
 closed 7
 occ 9
 wf,spin=0;STATE,3
 }
 
 Commands  initialized (763), CPU time= 0.01 sec, 617 directives.
 Default parameters read. Elapsed time= 0.08 sec

 Checking input...
 Passed
1


                                         ***  PROGRAM SYSTEM MOLPRO  ***
                                       Copyright, TTI GmbH Stuttgart, 2015
                                    Version 2019.2 linked Oct 25 2019 22:50:27


 **********************************************************************************************************************************
 LABEL *                                                                                 
  64 bit serial version                                                                  DATE: 07-Feb-23          TIME: 15:46:25  
 **********************************************************************************************************************************

 SHA1:             8dbd9ae1082e4ce945b0f27595c9eb2d4aa09004
 **********************************************************************************************************************************


 Variable memory set to  125000000 words,  buffer space 

 SETTING NELECT         =        16.00000000                                  
 SETTING BASIS          =    6-31G*
 ZSYMEL=NOSYM


Geometry recognized as XYZ



 Recomputing integrals since basis changed


 Using spherical harmonics

 Library entry C      S 6-31G                selected for orbital group  1
 Library entry C      P 6-31G                selected for orbital group  1
 Library entry C      D 6-31G*               selected for orbital group  1
 Library entry H      S 6-31G                selected for orbital group  2


 PROGRAM * SEWARD (Integral evaluation for generally contracted gaussian basis sets)     Author: Roland Lindh, 1990

 Geometry written to block  1 of record 700


 Point group  C1  



 ATOMIC COORDINATES

 NR  ATOM    CHARGE       X              Y              Z

   1  C       6.00   -1.189771568    0.245475424    0.561437632
   2  C       6.00    1.194684856   -0.369252485   -0.681435241
   3  H       1.00   -2.391637383    1.673352483   -0.278167686
   4  H       1.00   -1.750453309   -1.442238978   -0.233192204
   5  H       1.00    1.902954207    1.734201665    0.172154050
   6  H       1.00    2.414314097   -1.809034819    0.193318983

 Bond lengths in Bohr (Angstrom)

 1-2  2.758306693  1-3  2.046521787  1-4  1.947865625  2-5  2.377978030  2-6  2.079822975
     ( 1.459633043)     ( 1.082972691)     ( 1.030766099)     ( 1.258371781)     ( 1.100594921)

 Bond angles

  1-2-5   84.18007042   1-2-6  118.14442298   2-1-3  118.57509661   2-1-4   82.64093208

  3-1-4  105.55226256   5-2-6  106.66117050

 NUCLEAR CHARGE:                   16
 NUMBER OF PRIMITIVE AOS:          72
 NUMBER OF SYMMETRY AOS:           70
 NUMBER OF CONTRACTIONS:           36   (   36A   )
 NUMBER OF CORE ORBITALS:           2   (    2A   )
 NUMBER OF VALENCE ORBITALS:       12   (   12A   )


 NUCLEAR REPULSION ENERGY   32.42790429

 Eigenvalues of metric

         1 0.912E-02 0.265E-01 0.567E-01 0.612E-01 0.888E-01 0.215E+00 0.235E+00 0.273E+00


 Contracted 2-electron integrals neglected if value below      1.0D-11
 AO integral compression algorithm  1   Integral accuracy      1.0D-11

     1.573 MB (compressed) written to integral file ( 59.2%)


 NUMBER OF SORTED TWO-ELECTRON INTEGRALS:     222111.     BUFFER LENGTH:  32768
 NUMBER OF SEGMENTS:   1  SEGMENT LENGTH:     222111      RECORD LENGTH: 524288

 Memory used in sort:       0.78 MW

 SORT1 READ      284735. AND WROTE      212531. INTEGRALS IN      1 RECORDS. CPU TIME:     0.01 SEC, REAL TIME:     0.00 SEC
 SORT2 READ      212531. AND WROTE      222111. INTEGRALS IN      6 RECORDS. CPU TIME:     0.02 SEC, REAL TIME:     0.02 SEC

 FILE SIZES:   FILE 1:    31.7 MBYTE,  FILE 4:     4.2 MBYTE,   TOTAL:     35.9 MBYTE

 OPERATOR DM      FOR CENTER  0  COORDINATES:    0.000000    0.000000    0.000000


 **********************************************************************************************************************************
 DATASETS  * FILE   NREC   LENGTH (MB)   RECORD NAMES
              1      19       31.13       500      610      700      900      950      970     1000      129      960     1100   
                                          VAR    BASINP    GEOM    SYMINP    ZMAT    AOBASIS   BASIS     P2S    ABASIS      S 
                                         1400     1410     1200     1210     1080     1600     1650     1300     1700   
                                           T        V       H0       H01     AOSYM     SMH    MOLCAS    ERIS     OPER   

 PROGRAMS   *        TOTAL       INT
 CPU TIMES  *         0.29      0.18
 REAL TIME  *         0.65 SEC
 DISK USED  *        36.24 MB
 **********************************************************************************************************************************


 PROGRAM * RHF-SCF (CLOSED SHELL)       Authors: W. Meyer, H.-J. Werner


 NUMBER OF ELECTRONS:       8+    8-    SPACE SYMMETRY=1    SPIN SYMMETRY: Singlet 
 CONVERGENCE THRESHOLDS:    1.00E-05 (Density)    1.00E-07 (Energy)
 MAX. NUMBER OF ITERATIONS:       60
 INTERPOLATION TYPE:            DIIS
 INTERPOLATION STEPS:              2 (START)      1 (STEP)
 LEVEL SHIFTS:                  0.00 (CLOSED)  0.00 (OPEN) 



 Orbital guess generated from atomic densities. Full valence occupancy:    8

 Molecular orbital dump at record        2100.2

 Initial occupancy:   8

 ITERATION    DDIFF          GRAD             ENERGY        2-EL.EN.            DIPOLE MOMENTS         DIIS   ORB.
    1      0.000D+00      0.000D+00       -77.81227854    116.050361    0.13456   -0.02731   -0.10912    0    start
    2      0.000D+00      0.749D-02       -77.83126906    114.990705   -0.10300   -0.02017    0.11943    1    diag
    3      0.829D-02      0.309D-02       -77.83387910    115.338631   -0.00126   -0.09944   -0.04996    2    diag
    4      0.343D-02      0.151D-02       -77.83475163    115.328894   -0.07833   -0.06987    0.04389    3    diag
    5      0.196D-02      0.566D-03       -77.83492493    115.272114   -0.07243   -0.08463    0.02385    4    diag
    6      0.816D-03      0.235D-03       -77.83502291    115.282476   -0.08132   -0.08686    0.02744    5    diag
    7      0.809D-03      0.104D-03       -77.83505230    115.283207   -0.08363   -0.08741    0.02774    6    diag
    8      0.498D-03      0.343D-04       -77.83505526    115.284386   -0.08351   -0.08736    0.02761    7    diag
    9      0.161D-03      0.121D-04       -77.83505555    115.284677   -0.08317   -0.08721    0.02748    8    diag
   10      0.523D-04      0.384D-05       -77.83505557    115.284696   -0.08305   -0.08722    0.02739    9    orth
   11      0.129D-04      0.104D-05       -77.83505557    115.284694   -0.08302   -0.08722    0.02737    9    diag
   12      0.284D-05      0.293D-06       -77.83505557    115.284698   -0.08302   -0.08721    0.02737    0    orth

 Final occupancy:   8

 !RHF STATE  1.1 Energy               -77.835055570662
 Nuclear energy                        32.42790429
 One-electron energy                 -167.90530880
 Two-electron energy                   57.64234894
 Virial quotient                       -1.00050757
 !RHF STATE  1.1 Dipole moment         -0.08301588    -0.08721492     0.02737122
 Dipole moment /Debye                  -0.21099149    -0.22166370     0.06956614

 ELECTRON ORBITALS
 =================

  Orbital  Occupation    Energy     Coefficients
    1.1     2.00000   -11.27221     2 1s    0.99621
    2.1     2.00000   -11.24708     1 1s    0.99611
    3.1     2.00000    -1.04224     1 1s    0.30029     2 1s    0.26477
    4.1     2.00000    -0.78597     1 1s   -0.25821     2 1s    0.25120     2 1s    0.32047
    5.1     2.00000    -0.62415     1 2py   0.36418
    6.1     2.00000    -0.56101     1 2px   0.31109     2 2px  -0.29315
    7.1     2.00000    -0.39374     1 2pz   0.26120     1 2pz   0.25069     2 2pz   0.31894     2 2pz   0.27698
    8.1     2.00000    -0.38391     2 2px   0.28606     5 1s    0.30379
    9.1     0.00000     0.06211     1 1s   -0.35309     1 2pz  -0.33551     1 2pz  -0.48706     2 1s   -0.43487     2 2pz   0.32615
                                    2 2pz   0.44782
   10.1     0.00000     0.22497     1 1s   -1.07360     1 2px   0.38167     1 2py   0.27873     1 2pz   0.41908     2 1s   -0.95991
                                    2 2px  -0.53113     2 2py  -0.46855     2 2pz  -0.39620     3 1s    0.55208     4 1s    0.89086
                                    5 1s    1.18457     6 1s    0.47667
   11.1     0.00000     0.28157     1 1s    1.47002     1 2py   0.30578     1 2pz  -0.38786     2 1s   -1.64267     2 2py   0.40371
                                    2 2pz  -0.52781     3 1s   -1.29283     6 1s    1.58007
   12.1     0.00000     0.30916     1 1s   -1.36485     1 2px   0.49608     1 2py  -0.70627     1 2pz   0.60881     2 1s   -0.42538
                                    2 2px  -0.34372     2 2py   1.08341     2 2pz  -0.33639     3 1s    1.66737     4 1s    0.30511
                                    5 1s   -0.70940     6 1s    1.36150
   13.1     0.00000     0.34430     1 1s   -1.27849     1 2py   0.26004     1 2py   1.23915     1 2pz   0.28138     2 1s    0.82611
                                    2 2px   0.27896     2 2py   0.27009     2 2pz   0.35785     3 1s   -0.45581     4 1s    2.32255
                                    5 1s   -1.02395     6 1s   -0.40407
   14.1     0.00000     0.42309     1 1s    1.95576     1 2px   1.82763     1 2py  -0.58096     1 2pz  -0.74945     2 1s   -2.03512
                                    2 2px   1.73719     2 2py  -0.64572     2 2pz  -0.80652     3 1s    0.67651     6 1s   -0.58343
   15.1     0.00000     0.70143     1 1s    0.37066     1 2px   0.51087     1 2px  -0.76377     2 2px  -0.56195     2 2pz   0.25040
                                    2 2px   1.05814     4 1s   -0.26325     4 1s    0.33372     5 1s    0.45679
   16.1     0.00000     0.74687     1 1s   -0.42538     1 2px   0.30005     1 2py  -0.56558     1 2px  -0.75105     1 2py   1.37570
                                    1 2pz   0.36492     2 1s    0.48466     2 2px  -0.29813     3 1s   -0.48028     4 1s    0.35091
                                    6 1s    0.29435
   17.1     0.00000     0.78768     1 2pz  -0.63914     1 2py   0.52033     1 2pz   0.65420     2 1s    0.29371     2 2py   0.48980
                                    2 2pz  -0.33234     2 2px   0.40919     2 2py  -0.94564     2 2pz   0.36373     6 1s   -0.37185
                                    6 1s   -0.26700
   18.1     0.00000     0.81050     1 2pz  -0.36047     1 2py  -0.53451     1 2pz   0.29989     2 2py  -0.52302     2 2pz  -0.73071
                                    2 2py   0.95138     2 2pz   0.63786     5 1s   -0.31262
   19.1     0.00000     0.86467     1 1s    0.36934     1 2pz   0.71125     1 2px  -0.41782     1 2py   0.58969     1 2pz  -0.96960
                                    2 1s    0.33340     2 2px  -0.25153     2 2pz  -0.64913     2 2px   0.49000     2 2py  -0.56360
                                    2 2pz   0.94142
   20.1     0.00000     0.97150     1 2px   0.66049     1 2py   0.27584     1 2px  -1.11613     1 2py  -0.69241     2 1s    0.27807
                                    2 2px   0.74125     2 2py   0.49615     2 2px  -1.16534     2 2py  -0.89001     4 1s   -1.14570
                                    5 1s    1.05655
   21.1     0.00000     1.07392     1 1s    0.35526     1 2px   0.39865     1 2px  -0.52641     2 1s   -0.76979     2 1s    1.46129
                                    2 2py  -0.48991     2 2py   0.58251     2 2pz   0.25460     3 1s   -0.26423     4 1s   -0.32715
                                    5 1s    0.98628     5 1s   -1.47002
   22.1     0.00000     1.14392     1 1s    0.53843     1 2px  -0.29398     1 2py   0.43678     1 2px   0.76432     1 2py  -0.81468
                                    2 1s   -0.52389     2 1s    0.48321     2 2px  -0.50044     2 2py   0.45656     2 2px   1.03234
                                    2 2py  -0.82356     3 1s   -0.45704     3 1s    1.06845     4 1s   -0.44205     6 1s    0.74687
                                    6 1s   -1.59658
   23.1     0.00000     1.18676     1 1s   -0.39847     1 1s    0.75125     1 2px   0.25050     1 2py  -0.59773     1 2py   0.60893
                                    3 1s    0.83538     3 1s   -1.19849     4 1s   -0.30753     4 1s    0.65385     6 1s    0.68876
                                    6 1s   -0.64738
   24.1     0.00000     1.23969     1 1s   -1.25134     1 1s    1.83622     1 2pz   0.33432     1 2px  -1.07934     1 2pz  -0.69494
                                    2 1s   -1.12537     2 1s    2.38110     2 2py  -0.32993     2 2pz   0.79682     3 1s   -1.04423
                                    4 1s    0.52185     4 1s   -1.50450     5 1s   -0.51327     6 1s   -0.70339
   25.1     0.00000     1.26874     1 1s   -1.32700     1 1s    4.07527     1 2py  -0.33981     1 2px   0.55594     1 2pz  -1.30874
                                    2 1s   -1.55985     2 2px   1.11703     2 2py  -0.78097     3 1s   -0.50591     3 1s   -0.68886
                                    4 1s   -0.84618     6 1s   -0.25899     6 1s   -0.32970
   26.1     0.00000     1.30090     1 1s    1.22873     1 1s   -3.98536     1 2py  -0.33644     1 2px  -0.98207     1 2py   1.02334
                                    1 2pz   0.75556     2 1s   -1.63528     2 1s    4.47148     2 2px  -0.81859     2 2py   0.42665
                                    2 2pz   1.28633     4 1s   -0.41118     4 1s    1.19939     5 1s   -0.34551     5 1s   -0.48826
                                    6 1s   -0.68215
   27.1     0.00000     1.69441     1 1s    0.64163     1 3d0   0.37040     1 3d2- -0.31081     1 3d2+ -0.30575     2 1s   -0.51350
                                    2 3d0  -0.32940     2 3d2-  0.28208     2 3d2+  0.34565
   28.1     0.00000     1.91059     1 2px   0.30179     1 3d0   0.30377     1 3d1+  0.45987     1 3d2+  0.40233     1 3d1-  0.41691
                                    2 1s    0.41721     2 1s   -1.07470     2 2pz  -0.43341     2 3d0   0.38196     2 3d2+  0.25668
                                    6 1s    0.30056
   29.1     0.00000     1.94349     1 1s    0.40793     1 1s   -1.61907     1 2pz   0.50507     1 3d2-  0.29091     2 1s    0.93986
                                    2 2px  -0.37218     2 2py   0.28092     2 3d2- -0.28146     2 3d1+  0.50880     2 3d2+  0.26737
                                    2 3d1-  0.50542     3 1s    0.43199
   30.1     0.00000     2.16745     1 1s   -0.39431     1 1s    1.65124     1 2px   0.34825     1 2pz  -0.47909     1 3d0  -0.50187
                                    1 3d1+ -0.25027     1 3d2+ -0.27156     2 1s   -1.32985     2 2px   0.33163     2 2py  -0.31687
                                    2 2pz  -0.31983     2 3d0   0.59893     2 3d2+  0.43312     3 1s   -0.37599     5 1s    0.38025
   31.1     0.00000     2.25403     1 1s   -0.43947     1 2px  -0.25278     1 3d1+ -0.35228     1 3d2+  0.43717     2 1s   -0.55699
                                    2 1s    0.63700     2 2px   0.25342     2 2px  -0.39880     2 2py   0.26314     2 3d0  -0.29075
                                    2 3d2- -0.34079     2 3d1+ -0.37941     2 3d2+  0.32465
   32.1     0.00000     2.34702     1 1s   -0.60495     1 2px  -0.28547     1 2py   0.38778     1 3d0   0.55408     2 1s    0.55423
                                    2 2py  -0.29045     2 2pz   0.29271     2 3d0   0.39148     2 3d2- -0.54675     2 3d1- -0.46256
                                    4 1s    0.44696     5 1s    0.30940     6 1s   -0.48215
   33.1     0.00000     2.56960     1 3d0   0.28252     1 3d2- -0.63876     1 3d1- -0.25998     2 2py   0.34554     2 3d1+ -0.27794
                                    2 3d2+ -0.32993     2 3d1-  0.70056     3 1s   -0.39460     4 1s    0.27228     5 1s   -0.36511
                                    6 1s    0.41798
   34.1     0.00000     2.66922     1 1s   -0.66524     1 2py   0.42474     1 3d0   0.25559     1 3d2-  0.32204     1 3d2+  0.40701
                                    1 3d1- -0.65262     2 2px  -0.31542     2 3d2-  0.63764     2 3d1+ -0.32565     2 3d2+  0.39816
                                    4 1s    0.57945     6 1s    0.34801
   35.1     0.00000     2.73529     1 1s    0.42395     1 2py  -0.36253     1 3d0   0.27740     1 3d2-  0.51655     1 3d1+ -0.54585
                                    1 3d1-  0.59756     2 1s   -0.36891     2 3d0   0.41960     2 3d2-  0.28351     2 3d1+ -0.31737
                                    3 1s    0.58320     4 1s   -0.51293     6 1s    0.29576
   36.1     0.00000     2.96599     1 1s    1.62782     1 2px   0.44454     1 2px   0.86385     1 2pz  -0.39279     1 3d2- -0.37659
                                    1 3d1+ -0.67071     1 3d2+  0.71363     2 1s   -1.69767     2 2px   0.41851     2 2px   0.84646
                                    2 2py  -0.26907     2 2pz  -0.45366     2 3d2-  0.34220     2 3d1+  0.70406     2 3d2+ -0.58284
                                    4 1s    0.26946


 HOMO      8.1    -0.383908 =     -10.4467eV
 LUMO      9.1     0.062108 =       1.6900eV
 LUMO-HOMO         0.446016 =      12.1367eV


 **********************************************************************************************************************************
 DATASETS  * FILE   NREC   LENGTH (MB)   RECORD NAMES
              1      19       31.13       500      610      700      900      950      970     1000      129      960     1100   
                                          VAR    BASINP    GEOM    SYMINP    ZMAT    AOBASIS   BASIS     P2S    ABASIS      S 
                                         1400     1410     1200     1210     1080     1600     1650     1300     1700   
                                           T        V       H0       H01     AOSYM     SMH    MOLCAS    ERIS     OPER   

              2       4        2.86       700     1000      520     2100   
                                         GEOM     BASIS   MCVARS     RHF  

 PROGRAMS   *        TOTAL    HF-SCF       INT
 CPU TIMES  *         0.40      0.11      0.18
 REAL TIME  *         0.88 SEC
 DISK USED  *        36.24 MB
 **********************************************************************************************************************************


 PROGRAM * MULTI (Direct Multiconfiguration SCF)       Authors: P.J. Knowles, H.-J. Werner (1984)


 Number of closed-shell orbitals:   7 (   7 )
 Number of active  orbitals:        2 (   2 )
 Number of external orbitals:      27 (  27 )

 State symmetry 1

 Number of electrons:     2    Spin symmetry=Singlet   Space symmetry=1
 Number of states:        3
 Number of CSFs:          3   (4 determinants, 4 intermediate states)

 Molecular orbitals read from record     2100.2  Type=RHF/CANONICAL (state 1.1)

 Wavefunction dump at record             2140.2

 Convergence thresholds  0.10E-01 (gradient)  0.10E-05 (energy)  0.10E-02 (step length)

 Weight factors for state symmetry  1:    0.33333   0.33333   0.33333

 Number of orbital rotations:      257   (    14 Core/Active    189 Core/Virtual   0 Active/Active     54 Active/Virtual)
 Total number of variables:        269

 Micro-Iterations solved by the two-step solver

 ITER. MIC  NCI  NEG     ENERGY(VAR)     ENERGY(PROJ)   ENERGY CHANGE     GRAD(0)  GRAD(ORB)   GRAD(CI)     STEP       TIME

   1    9    6    0     -77.67030249     -77.69901610   -0.02871361    0.15801031 0.00049286 0.00000000  0.21D+00      0.14
   2    7    5    0     -77.69812602     -77.69842122   -0.00029520    0.02769862 0.00003899 0.00000000  0.13D-01      0.25
   3    7    5    0     -77.69842225     -77.69842226   -0.00000001    0.00015868 0.00000000 0.00000000  0.10D-03      0.34
   4    3    3    0     -77.69842226     -77.69842226    0.00000000    0.00000001 0.00000000 0.00000000  0.89D-08      0.39

 ** WVFN ****  CONVERGENCE REACHED, FINAL GRADIENT:  0.11D-12



 Results for state 1.1
 =====================

 !MCSCF STATE  1.1 Energy             -77.828621426822
 Nuclear energy                        32.42790429
 Kinetic energy                        77.84745841
 One electron energy                 -167.97279309
 Two electron energy                   57.71626737
 Virial ratio                           1.99975803

 !MCSCF STATE  1.1 Dipole moment       -0.11964572    -0.13959574     0.03251569
 Dipole moment /Debye                  -0.30408917    -0.35479374     0.08264122

 Results for state 2.1
 =====================

 !MCSCF STATE  2.1 Energy             -77.726397618172
 Nuclear energy                        32.42790429
 Kinetic energy                        77.92540452
 One electron energy                 -167.68117474
 Two electron energy                   57.52687283
 Virial ratio                           1.99744619

 !MCSCF STATE  2.1 Dipole moment        0.03523133     0.02542699    -0.00081038
 Dipole moment /Debye                   0.08954325     0.06462473    -0.00205964

 Results for state 3.1
 =====================

 !MCSCF STATE  3.1 Energy             -77.540247747434
 Nuclear energy                        32.42790429
 Kinetic energy                        77.98893405
 One electron energy                 -167.44358094
 Two electron energy                   57.47542891
 Virial ratio                           1.99424680

 !MCSCF STATE  3.1 Dipole moment        0.24048086     0.22527247    -0.03151608
 Dipole moment /Debye                   0.61120135     0.57254799    -0.08010063

 State-averaged charge density matrix saved on record  2140.2 (density set 1)

 !MCSCF expec         <1.1|DMX|1.1>    -0.119645719775 au =    -0.304089168466 Debye
 !MCSCF trans         <2.1|DMX|1.1>    -0.109508038267 au =    -0.278323439900 Debye
 !MCSCF expec         <2.1|DMX|2.1>     0.035231330965 au =     0.089543246154 Debye
 !MCSCF trans         <3.1|DMX|1.1>    -0.008835872195 au =    -0.022457076053 Debye
 !MCSCF trans         <3.1|DMX|2.1>    -0.105759905182 au =    -0.268797259814 Debye
 !MCSCF expec         <3.1|DMX|3.1>     0.240480861239 au =     0.611201347308 Debye

 !MCSCF expec         <1.1|DMY|1.1>    -0.139595740258 au =    -0.354793741524 Debye
 !MCSCF trans         <2.1|DMY|1.1>    -0.078077470854 au =    -0.198440138374 Debye
 !MCSCF expec         <2.1|DMY|2.1>     0.025426989376 au =     0.064624727659 Debye
 !MCSCF trans         <3.1|DMY|1.1>    -0.011666770682 au =    -0.029652031031 Debye
 !MCSCF trans         <3.1|DMY|2.1>    -0.070955128679 au =    -0.180338135947 Debye
 !MCSCF expec         <3.1|DMY|3.1>     0.225272465154 au =     0.572547991985 Debye

 !MCSCF expec         <1.1|DMZ|1.1>     0.032515687313 au =     0.082641220560 Debye
 !MCSCF trans         <2.1|DMZ|1.1>    -0.004001434989 au =    -0.010169967139 Debye
 !MCSCF expec         <2.1|DMZ|2.1>    -0.000810379124 au =    -0.002059643374 Debye
 !MCSCF trans         <3.1|DMZ|1.1>     0.003509364623 au =     0.008919330939 Debye
 !MCSCF trans         <3.1|DMZ|2.1>    -0.007041961834 au =    -0.017897709358 Debye
 !MCSCF expec         <3.1|DMZ|3.1>    -0.031516078234 au =    -0.080100634119 Debye


 NATURAL ORBITALS (state averaged)
 =================================

  Orbital  Occupation    Energy     Coefficients
    1.1     2.00000   -11.26726     2 1s    0.99621
    2.1     2.00000   -11.24069     1 1s    0.99610
    3.1     2.00000    -1.05462     1 1s    0.29563     2 1s    0.25944
    4.1     2.00000    -0.78634     1 1s   -0.28460     2 1s    0.34496
    5.1     2.00000    -0.62559     1 2py   0.34481     2 2py   0.25382
    6.1     2.00000    -0.55885     1 2px   0.26616     2 2px  -0.25201     2 2py   0.27277
    7.1     2.00000    -0.41955     1 2pz   0.31858     1 2pz   0.27841     2 2pz   0.33218     2 2pz   0.28248
    8.1     1.00000    -0.08759     1 2pz  -0.40991     1 2pz  -0.44013     2 1s   -0.28309     2 2pz   0.39862     2 2pz   0.41745
    9.1     1.00000    -0.23079     1 2px  -0.30853     2 2px   0.31037     4 1s    0.27692     5 1s    0.31722
   10.1    -0.00000     0.21163     1 1s   -0.95506     1 2px   0.39089     1 2py   0.25970     1 2pz   0.32320     2 1s   -1.06243
                                    2 2px  -0.51070     2 2py  -0.50654     2 2pz  -0.37164     3 1s    0.49227     4 1s    0.81661
                                    5 1s    1.23630     6 1s    0.47366
   11.1    -0.00000     0.28078     1 1s    1.63330     1 2py   0.25340     1 2pz  -0.43706     2 1s   -1.64858     2 2py   0.35340
                                    2 2pz  -0.50872     3 1s   -1.34029     6 1s    1.52218
   12.1    -0.00000     0.30876     1 1s   -1.65077     1 2px   0.47900     1 2py  -0.36000     1 2pz   0.63541     2 1s   -0.32003
                                    2 2py   0.27628     2 2px  -0.34283     2 2py   1.14976     3 1s    1.43479     4 1s    0.86764
                                    5 1s   -0.86862     6 1s    1.37569
   13.1    -0.00000     0.33350     1 1s   -0.96709     1 2py   0.30274     1 2py   1.42536     2 1s    0.93813     2 2pz   0.42392
                                    3 1s   -0.94501     4 1s    2.20329     5 1s   -0.84179     6 1s   -0.56596
   14.1    -0.00000     0.42981     1 1s    1.78333     1 2px   1.83522     1 2py  -0.45422     1 2pz  -0.68794     2 1s   -1.92484
                                    2 2px   1.75079     2 2py  -0.55851     2 2pz  -0.75052     3 1s    0.66522     6 1s   -0.59116
   15.1    -0.00000     0.69802     1 1s    0.37247     1 2px   0.48854     1 2px  -0.72270     1 2py  -0.27648     2 2px  -0.55025
                                    2 2px   1.04788     4 1s   -0.30164     4 1s    0.36591     5 1s    0.52506
   16.1    -0.00000     0.74646     1 1s   -0.55604     1 2px   0.31342     1 2py  -0.52906     1 2px  -0.81874     1 2py   1.34691
                                    1 2pz   0.41762     2 1s    0.54014     2 2px  -0.34628     3 1s   -0.48569     4 1s    0.33872
                                    4 1s    0.25002     6 1s    0.30366
   17.1    -0.00000     0.78704     1 2pz  -0.61599     1 2py   0.58874     1 2pz   0.70052     2 1s    0.37373     2 2py   0.50186
                                    2 2pz  -0.31151     2 2px   0.39641     2 2py  -0.97125     2 2pz   0.34285     6 1s   -0.37022
                                    6 1s   -0.26868
   18.1    -0.00000     0.80991     1 1s   -0.32961     1 2pz  -0.37340     1 2py  -0.49243     1 2pz   0.32725     2 2py  -0.47320
                                    2 2pz  -0.74520     2 2py   0.91078     2 2pz   0.76052     5 1s   -0.32336
   19.1    -0.00000     0.86320     1 1s    0.32775     1 2pz   0.69560     1 2px  -0.45298     1 2py   0.60636     1 2pz  -1.03977
                                    2 1s    0.28726     2 2px  -0.26346     2 2pz  -0.61261     2 2px   0.52984     2 2py  -0.56010
                                    2 2pz   0.97354     3 1s   -0.29360     6 1s   -0.28114
   20.1    -0.00000     0.97726     1 2px   0.62428     1 2py   0.27609     1 2px  -1.00182     1 2py  -0.70833     2 2px   0.74462
                                    2 2py   0.54443     2 2px  -1.10305     2 2py  -0.95011     4 1s   -1.08366     5 1s    1.13692
   21.1    -0.00000     1.03706     1 1s    0.34395     1 2px   0.42993     1 2px  -0.47020     2 1s   -0.72854     2 1s    1.28914
                                    2 2py  -0.45376     2 2py   0.50418     4 1s   -0.32002     5 1s    1.01460     5 1s   -1.38199
   22.1    -0.00000     1.14642     1 1s    0.59284     1 2px  -0.34029     1 2py   0.43887     1 2px   0.84868     1 2py  -0.83756
                                    2 1s   -0.43326     2 1s    0.27564     2 2px  -0.51620     2 2py   0.47432     2 2px   1.06728
                                    2 2py  -0.85149     3 1s   -0.45876     3 1s    1.09445     4 1s   -0.42664     6 1s    0.74354
                                    6 1s   -1.57365
   23.1    -0.00000     1.18837     1 1s    0.38639     1 2py  -0.65812     1 2py   0.61928     2 1s   -0.42896     3 1s    0.76203
                                    3 1s   -0.95729     4 1s   -0.46613     4 1s    0.99622     6 1s    0.70927     6 1s   -0.53948
   24.1    -0.00000     1.22334     1 1s   -1.14058     1 1s    1.47293     1 2px   0.34402     1 2pz   0.32752     1 2px  -1.12307
                                    1 2pz  -0.46335     2 1s   -1.05878     2 1s    2.33123     2 2pz   0.64669     3 1s    0.37211
                                    3 1s   -1.14493     4 1s    0.63122     4 1s   -1.39304     5 1s   -0.40309     6 1s   -0.69722
   25.1    -0.00000     1.25934     1 1s   -1.29814     1 1s    3.53144     1 2py  -0.36875     1 2py   0.33234     1 2pz  -1.24479
                                    2 1s   -0.46666     2 2px   0.92444     2 2py  -0.74206     2 2pz   0.38673     3 1s   -0.50694
                                    3 1s   -0.83759     4 1s   -0.77593     4 1s   -0.28950     6 1s   -0.32772     6 1s   -0.59120
   26.1    -0.00000     1.28870     1 1s    1.42944     1 1s   -4.64994     1 2px  -1.11896     1 2py   0.95665     1 2pz   0.95432
                                    2 1s   -1.68658     2 1s    4.82914     2 2px  -1.02858     2 2py   0.52471     2 2pz   1.29339
                                    3 1s    0.26587     4 1s    1.11134     5 1s   -0.35614     5 1s   -0.46405     6 1s   -0.65288
   27.1    -0.00000     1.68962     1 1s    0.67566     1 3d0   0.36281     1 3d2- -0.31370     1 3d2+ -0.30770     2 1s   -0.53728
                                    2 3d0  -0.32382     2 3d2-  0.28733     2 3d2+  0.34812
   28.1    -0.00000     1.90862     1 2px   0.29848     1 3d0   0.29903     1 3d1+  0.45326     1 3d2+  0.40512     1 3d1-  0.41305
                                    2 1s    0.40407     2 1s   -1.04516     2 2pz  -0.42299     2 3d0   0.38585     2 3d2+  0.26940
                                    6 1s    0.29953
   29.1    -0.00000     1.94038     1 1s    0.39648     1 1s   -1.58224     1 2pz   0.49311     1 3d2-  0.28608     2 1s    0.92067
                                    2 2px  -0.36371     2 2py   0.28183     2 3d2- -0.28337     2 3d1+  0.50834     2 3d2+  0.27005
                                    2 3d1-  0.50323     3 1s    0.43188
   30.1    -0.00000     2.16648     1 1s   -0.40347     1 1s    1.62929     1 2px   0.33656     1 2pz  -0.47563     1 3d0  -0.50083
                                    1 3d1+ -0.25481     1 3d2+ -0.26830     2 1s   -1.28279     2 2px   0.32088     2 2py  -0.32339
                                    2 2pz  -0.29966     2 3d0   0.59828     2 3d2+  0.43822     3 1s   -0.37636     4 1s   -0.25421
                                    5 1s    0.37555
   31.1    -0.00000     2.25075     1 1s   -0.42549     1 2px  -0.25806     1 3d1+ -0.35508     1 3d2+  0.44193     2 1s   -0.56110
                                    2 1s    0.68768     2 2px   0.25821     2 2px  -0.40425     2 2py   0.25396     2 3d0  -0.29600
                                    2 3d2- -0.35752     2 3d1+ -0.38833     2 3d2+  0.31553
   32.1    -0.00000     2.34146     1 1s   -0.64126     1 2px  -0.30373     1 2py   0.40712     1 3d0   0.56238     2 1s    0.56092
                                    2 2py  -0.30017     2 2pz   0.29576     2 3d0   0.38154     2 3d2- -0.54138     2 3d1- -0.47614
                                    4 1s    0.43781     5 1s    0.29484     6 1s   -0.49975
   33.1    -0.00000     2.56482     1 3d0   0.27049     1 3d2- -0.65823     1 3d1- -0.25226     2 2py   0.34546     2 3d1+ -0.26378
                                    2 3d2+ -0.33572     2 3d1-  0.69936     3 1s   -0.40687     4 1s    0.26214     5 1s   -0.35232
                                    6 1s    0.40515
   34.1    -0.00000     2.66388     1 1s   -0.69208     1 2py   0.45256     1 3d0   0.25484     1 3d2-  0.28262     1 3d2+  0.41261
                                    1 3d1- -0.68952     2 1s    0.26098     2 2px  -0.31643     2 3d2-  0.62801     2 3d1+ -0.31192
                                    2 3d2+  0.39362     4 1s    0.60212     6 1s    0.34264
   35.1    -0.00000     2.73921     1 1s    0.38870     1 2py  -0.34343     1 3d0   0.29902     1 3d2-  0.51732     1 3d1+ -0.55374
                                    1 3d1-  0.56581     2 1s   -0.35128     2 3d0   0.42856     2 3d2-  0.30190     2 3d1+ -0.34103
                                    3 1s    0.58027     4 1s   -0.47092     6 1s    0.31197
   36.1    -0.00000     2.96212     1 1s    1.65965     1 2px   0.43789     1 2px   0.87562     1 2pz  -0.40142     1 3d2- -0.37509
                                    1 3d1+ -0.67353     1 3d2+  0.71054     2 1s   -1.72548     2 2px   0.41310     2 2px   0.85882
                                    2 2py  -0.27601     2 2pz  -0.46074     2 3d2-  0.33992     2 3d1+  0.70737     2 3d2+ -0.58127
                                    4 1s    0.25865


 Natural orbital dump (state averaged) at molpro section  2140.2    (Orbital set 2)



 **********************************************************************************************************************************
 DATASETS  * FILE   NREC   LENGTH (MB)   RECORD NAMES
              1      20       31.86       500      610      700      900      950      970     1000      129      960     1100   
                                          VAR    BASINP    GEOM    SYMINP    ZMAT    AOBASIS   BASIS     P2S    ABASIS      S 
                                         1400     1410     1200     1210     1080     1600     1650     1300     1700     1380   
                                           T        V       H0       H01     AOSYM     SMH    MOLCAS    ERIS     OPER     JKOP   

              2       5        5.42       700     1000      520     2100     2140   
                                         GEOM     BASIS   MCVARS     RHF     MCSCF   

 PROGRAMS   *        TOTAL     MULTI    HF-SCF       INT
 CPU TIMES  *         0.85      0.45      0.11      0.18
 REAL TIME  *         1.40 SEC
 DISK USED  *        39.04 MB
 **********************************************************************************************************************************
 Molecular orbitals read from record     2140.2  Type=MCSCF/NATURAL (state averaged)
 Occupation numbers read from record     2140.2  Type=MCSCF/NATURAL (state averaged)
 Orbital energies read from record       2140.2  Type=MCSCF/NATURAL (state averaged)
 Redundancy group numbers read from rec  2140.2  Type=MCSCF/NATURAL (state averaged)

 MULTI/6-31G* energy=    -77.540247747434

           MULTI          HF-SCF
    -77.54024775    -77.83505557
 **********************************************************************************************************************************
 Molpro calculation terminated
