
 Primary working directories    : /scratch.local/johan406.molpro_temp/molpro.zZfAVy9Fxr
 Secondary working directories  : /scratch.local/johan406.molpro_temp/molpro.zZfAVy9Fxr
 Wavefunction directory         : /home/goodpast/johan406/wfu/
 Main file repository           : /scratch.local/johan406.molpro_temp/molpro.zZfAVy9Fxr/

 id        : roweumn

 Nodes     nprocs
 acn09        1

 Using customized tuning parameters: mindgm=1; mindgv=20; mindgc=4; mindgr=1; noblas=0; minvec=7
 default implementation of scratch files=df  


 Variables initialized (934), CPU time= 0.00 sec
                                                                                 !leave this line blank
 
 gprint, orbitals=30
 memory, 125., m
 symmetry, nosym
 nelect=16
 basis=6-31g*
 
 geometry={
 C -0.6305 0.1277 0.2967
 C 0.6314 -0.1976 -0.361
 H -1.2651 0.8824 -0.145
 H -0.9162 -0.7342 -0.1194
 H 1.0171 0.9463 0.095
 H 1.278 -0.9603 0.1045
 }
 
 hf
 {multi,
 closed 7
 occ 9
 wf,spin=0;STATE,3
 }
 
 Commands  initialized (763), CPU time= 0.01 sec, 617 directives.
 Default parameters read. Elapsed time= 0.07 sec

 Checking input...
 Passed
1


                                         ***  PROGRAM SYSTEM MOLPRO  ***
                                       Copyright, TTI GmbH Stuttgart, 2015
                                    Version 2019.2 linked Oct 25 2019 22:50:27


 **********************************************************************************************************************************
 LABEL *                                                                                 
  64 bit serial version                                                                  DATE: 07-Feb-23          TIME: 15:47:30  
 **********************************************************************************************************************************

 SHA1:             8dbd9ae1082e4ce945b0f27595c9eb2d4aa09004
 **********************************************************************************************************************************


 Variable memory set to  125000000 words,  buffer space 

 SETTING NELECT         =        16.00000000                                  
 SETTING BASIS          =    6-31G*
 ZSYMEL=NOSYM


Geometry recognized as XYZ



 Recomputing integrals since basis changed


 Using spherical harmonics

 Library entry C      S 6-31G                selected for orbital group  1
 Library entry C      P 6-31G                selected for orbital group  1
 Library entry C      D 6-31G*               selected for orbital group  1
 Library entry H      S 6-31G                selected for orbital group  2


 PROGRAM * SEWARD (Integral evaluation for generally contracted gaussian basis sets)     Author: Roland Lindh, 1990

 Geometry written to block  1 of record 700


 Point group  C1  



 ATOMIC COORDINATES

 NR  ATOM    CHARGE       X              Y              Z

   1  C       6.00   -1.191472322    0.241318026    0.560681741
   2  C       6.00    1.193173075   -0.373409882   -0.682191131
   3  H       1.00   -2.390692520    1.667494332   -0.274010288
   4  H       1.00   -1.731367075   -1.387436921   -0.225633299
   5  H       1.00    1.922040441    1.788247832    0.179523982
   6  H       1.00    2.415069987   -1.814703997    0.197476380

 Bond lengths in Bohr (Angstrom)

 1-2  2.758470055  1-3  2.041768529  1-4  1.887490494  2-5  2.438557903  2-6  2.084268630
     ( 1.459719490)     ( 1.080457375)     ( 0.998816955)     ( 1.290429270)     ( 1.102947460)

 Bond angles

  1-2-5   84.35435013   1-2-6  118.08246204   2-1-3  118.63408634   2-1-4   82.37258889

  3-1-4  105.33374660   5-2-6  106.77556912

 NUCLEAR CHARGE:                   16
 NUMBER OF PRIMITIVE AOS:          72
 NUMBER OF SYMMETRY AOS:           70
 NUMBER OF CONTRACTIONS:           36   (   36A   )
 NUMBER OF CORE ORBITALS:           2   (    2A   )
 NUMBER OF VALENCE ORBITALS:       12   (   12A   )


 NUCLEAR REPULSION ENERGY   32.46597783

 Eigenvalues of metric

         1 0.903E-02 0.259E-01 0.546E-01 0.610E-01 0.927E-01 0.212E+00 0.233E+00 0.273E+00


 Contracted 2-electron integrals neglected if value below      1.0D-11
 AO integral compression algorithm  1   Integral accuracy      1.0D-11

     1.573 MB (compressed) written to integral file ( 59.2%)


 NUMBER OF SORTED TWO-ELECTRON INTEGRALS:     222111.     BUFFER LENGTH:  32768
 NUMBER OF SEGMENTS:   1  SEGMENT LENGTH:     222111      RECORD LENGTH: 524288

 Memory used in sort:       0.78 MW

 SORT1 READ      284735. AND WROTE      212531. INTEGRALS IN      1 RECORDS. CPU TIME:     0.00 SEC, REAL TIME:     0.00 SEC
 SORT2 READ      212531. AND WROTE      222111. INTEGRALS IN      6 RECORDS. CPU TIME:     0.03 SEC, REAL TIME:     0.03 SEC

 FILE SIZES:   FILE 1:    31.7 MBYTE,  FILE 4:     4.2 MBYTE,   TOTAL:     35.9 MBYTE

 OPERATOR DM      FOR CENTER  0  COORDINATES:    0.000000    0.000000    0.000000


 **********************************************************************************************************************************
 DATASETS  * FILE   NREC   LENGTH (MB)   RECORD NAMES
              1      19       31.13       500      610      700      900      950      970     1000      129      960     1100   
                                          VAR    BASINP    GEOM    SYMINP    ZMAT    AOBASIS   BASIS     P2S    ABASIS      S 
                                         1400     1410     1200     1210     1080     1600     1650     1300     1700   
                                           T        V       H0       H01     AOSYM     SMH    MOLCAS    ERIS     OPER   

 PROGRAMS   *        TOTAL       INT
 CPU TIMES  *         0.29      0.18
 REAL TIME  *         0.48 SEC
 DISK USED  *        36.24 MB
 **********************************************************************************************************************************


 PROGRAM * RHF-SCF (CLOSED SHELL)       Authors: W. Meyer, H.-J. Werner


 NUMBER OF ELECTRONS:       8+    8-    SPACE SYMMETRY=1    SPIN SYMMETRY: Singlet 
 CONVERGENCE THRESHOLDS:    1.00E-05 (Density)    1.00E-07 (Energy)
 MAX. NUMBER OF ITERATIONS:       60
 INTERPOLATION TYPE:            DIIS
 INTERPOLATION STEPS:              2 (START)      1 (STEP)
 LEVEL SHIFTS:                  0.00 (CLOSED)  0.00 (OPEN) 



 Orbital guess generated from atomic densities. Full valence occupancy:    8

 Molecular orbital dump at record        2100.2

 Initial occupancy:   8

 ITERATION    DDIFF          GRAD             ENERGY        2-EL.EN.            DIPOLE MOMENTS         DIIS   ORB.
    1      0.000D+00      0.000D+00       -77.80181476    116.117183    0.17430   -0.03520   -0.14166    0    start
    2      0.000D+00      0.778D-02       -77.82145586    115.033655   -0.13266   -0.02570    0.15381    1    diag
    3      0.876D-02      0.353D-02       -77.82461026    115.352489   -0.00873   -0.12200   -0.05211    2    diag
    4      0.368D-02      0.163D-02       -77.82563636    115.376862   -0.09463   -0.09239    0.04856    3    diag
    5      0.209D-02      0.579D-03       -77.82582588    115.311488   -0.09300   -0.10856    0.03072    4    diag
    6      0.871D-03      0.241D-03       -77.82592753    115.321585   -0.10382   -0.11185    0.03441    5    diag
    7      0.827D-03      0.105D-03       -77.82595679    115.322065   -0.10669   -0.11250    0.03484    6    diag
    8      0.484D-03      0.371D-04       -77.82596031    115.323297   -0.10665   -0.11246    0.03469    7    diag
    9      0.173D-03      0.139D-04       -77.82596071    115.323653   -0.10623   -0.11227    0.03452    8    diag
   10      0.616D-04      0.439D-05       -77.82596073    115.323692   -0.10609   -0.11229    0.03440    9    orth
   11      0.154D-04      0.121D-05       -77.82596073    115.323692   -0.10605   -0.11229    0.03438    9    diag
   12      0.330D-05      0.337D-06       -77.82596073    115.323697   -0.10605   -0.11229    0.03438    0    orth

 Final occupancy:   8

 !RHF STATE  1.1 Energy               -77.825960732585
 Nuclear energy                        32.46597783
 One-electron energy                 -167.95378691
 Two-electron energy                   57.66184835
 Virial quotient                       -1.00004483
 !RHF STATE  1.1 Dipole moment         -0.10604746    -0.11228528     0.03438099
 Dipole moment /Debye                  -0.26952810    -0.28538203     0.08738203

 ELECTRON ORBITALS
 =================

  Orbital  Occupation    Energy     Coefficients
    1.1     2.00000   -11.27583     2 1s    0.99627
    2.1     2.00000   -11.24381     1 1s    0.99614
    3.1     2.00000    -1.04545     1 1s    0.30494     2 1s    0.25947
    4.1     2.00000    -0.78704     2 1s    0.25683     2 1s    0.32717
    5.1     2.00000    -0.62547     1 2py   0.37741
    6.1     2.00000    -0.56072     1 2px   0.31510     2 2px  -0.29292     2 2py   0.25189
    7.1     2.00000    -0.39452     1 2pz   0.25905     2 2pz   0.31998     2 2pz   0.27490
    8.1     2.00000    -0.38220     2 2px   0.28477     5 1s    0.31186
    9.1     0.00000     0.06133     1 1s   -0.33893     1 2pz  -0.33699     1 2pz  -0.49154     2 1s   -0.44365     2 2pz   0.32501
                                    2 2pz   0.44162
   10.1     0.00000     0.22106     1 1s   -1.04731     1 2px   0.35161     1 2py   0.26244     1 2pz   0.40955     2 1s   -0.90138
                                    2 2px  -0.53316     2 2py  -0.48977     2 2pz  -0.37975     3 1s    0.52907     4 1s    0.83758
                                    5 1s    1.18409     6 1s    0.43916
   11.1     0.00000     0.28121     1 1s    1.44202     1 2py   0.29103     1 2pz  -0.36757     2 1s   -1.65667     2 2py   0.41414
                                    2 2pz  -0.54383     3 1s   -1.25035     6 1s    1.61103
   12.1     0.00000     0.30761     1 1s   -1.50098     1 2px   0.50637     1 2py  -0.66308     1 2pz   0.63991     2 1s   -0.41118
                                    2 2px  -0.35516     2 2py   1.05619     2 2pz  -0.32601     3 1s    1.69899     4 1s    0.42857
                                    5 1s   -0.67204     6 1s    1.32268
   13.1     0.00000     0.34859     1 1s   -1.40336     1 2py   0.26084     1 2py   1.31379     1 2pz   0.30301     2 1s    0.76514
                                    2 2px   0.25308     2 2pz   0.35617     3 1s   -0.51399     4 1s    2.48169     5 1s   -0.90910
                                    6 1s   -0.41081
   14.1     0.00000     0.42279     1 1s    1.91363     1 2px   1.84063     1 2py  -0.55537     1 2pz  -0.73231     2 1s   -2.02647
                                    2 2px   1.72475     2 2py  -0.64453     2 2pz  -0.80733     3 1s    0.68966     6 1s   -0.57333
   15.1     0.00000     0.70045     1 1s    0.47765     1 2px   0.49050     1 2px  -0.69748     1 2py  -0.34896     2 2px  -0.55822
                                    2 2pz   0.25358     2 2px   1.09001     4 1s   -0.28729     4 1s    0.28176     5 1s    0.45760
   16.1     0.00000     0.74153     1 1s   -0.48734     1 2px   0.32429     1 2py  -0.55857     1 2pz  -0.26011     1 2px  -0.78565
                                    1 2py   1.42574     1 2pz   0.43165     2 1s    0.52056     3 1s   -0.45996     4 1s    0.34822
                                    4 1s    0.28554
   17.1     0.00000     0.78731     1 2pz  -0.64672     1 2px   0.27918     1 2py   0.38001     1 2pz   0.66675     2 1s    0.27060
                                    2 2py   0.44804     2 2pz  -0.38868     2 2px   0.42473     2 2py  -0.85417     2 2pz   0.41916
                                    6 1s   -0.38404     6 1s   -0.25834
   18.1     0.00000     0.81481     1 2pz  -0.30535     1 2py  -0.53808     2 1s   -0.32753     2 2py  -0.56324     2 2pz  -0.71654
                                    2 2py   0.98864     2 2pz   0.60643     5 1s   -0.30271
   19.1     0.00000     0.86465     1 1s    0.37330     1 2pz   0.71772     1 2px  -0.40475     1 2py   0.61703     1 2pz  -0.96983
                                    2 1s    0.32459     2 2px  -0.25555     2 2pz  -0.63236     2 2px   0.49980     2 2py  -0.58651
                                    2 2pz   0.93316
   20.1     0.00000     0.96963     1 2px   0.63613     1 2py   0.25526     1 2px  -1.09472     1 2py  -0.67856     2 1s    0.26003
                                    2 2px   0.74318     2 2py   0.53257     2 2px  -1.16456     2 2py  -0.92319     4 1s   -1.18143
                                    5 1s    1.08416
   21.1     0.00000     1.06174     1 2px   0.41998     1 2px  -0.57697     2 1s   -0.79214     2 1s    1.53864     2 2py  -0.42730
                                    2 2py   0.50803     2 2pz   0.26250     4 1s   -0.32760     5 1s    0.99933     5 1s   -1.41909
   22.1     0.00000     1.14232     1 1s    0.56216     1 2px  -0.28801     1 2py   0.37342     1 2px   0.77552     1 2py  -0.75185
                                    2 1s   -0.52308     2 1s    0.46520     2 2px  -0.50188     2 2py   0.48302     2 2px   1.04042
                                    2 2py  -0.84189     3 1s   -0.39604     3 1s    0.98495     4 1s   -0.36019     6 1s    0.80101
                                    6 1s   -1.64652
   23.1     0.00000     1.18858     1 1s   -0.47150     1 1s    0.85381     1 2px   0.27820     1 2py  -0.61197     1 2py   0.65051
                                    3 1s    0.88384     3 1s   -1.31692     4 1s   -0.25650     4 1s    0.61323     6 1s    0.62628
                                    6 1s   -0.51500
   24.1     0.00000     1.24868     1 1s   -1.44459     1 1s    2.61210     1 2pz   0.28363     1 2px  -0.97569     1 2pz  -0.99568
                                    2 1s   -1.25020     2 1s    2.29189     2 2px   0.25781     2 2py  -0.51058     2 2pz   0.89823
                                    3 1s   -1.13789     4 1s   -1.46829     5 1s   -0.48737     6 1s   -0.30835     6 1s   -0.84279
   25.1     0.00000     1.27706     1 1s   -1.26860     1 1s    4.55435     1 2py  -0.28436     1 2px   1.07505     1 2pz  -1.25671
                                    2 1s    0.88496     2 1s   -3.42425     2 2px   1.25918     2 2py  -0.76795     2 2pz  -0.63454
                                    3 1s   -0.42576     3 1s   -0.43637     4 1s   -0.76949     5 1s    0.31939
   26.1     0.00000     1.32059     1 1s    1.06779     1 1s   -3.07050     1 2py  -0.49299     1 2px  -0.56019     1 2py   1.01925
                                    1 2pz   0.51772     2 1s   -1.25168     2 1s    3.20140     2 2px  -0.49281     2 2py   0.25470
                                    2 2pz   1.01284     4 1s   -0.74499     4 1s    1.46049     5 1s   -0.41129     6 1s   -0.56968
   27.1     0.00000     1.69372     1 1s    0.65020     1 3d0   0.37708     1 3d2- -0.31458     1 3d2+ -0.29904     2 1s   -0.48672
                                    2 3d0  -0.32360     2 3d2-  0.27723     2 3d2+  0.35127
   28.1     0.00000     1.90592     1 2px   0.30802     1 3d0   0.29668     1 3d1+  0.46776     1 3d2+  0.40840     1 3d1-  0.41850
                                    2 1s    0.42104     2 1s   -1.09380     2 2pz  -0.42984     2 3d0   0.38796     6 1s    0.29820
   29.1     0.00000     1.94467     1 1s    0.41106     1 1s   -1.64099     1 2pz   0.52269     1 3d2-  0.28911     2 1s    0.85848
                                    2 2px  -0.37193     2 2py   0.29194     2 3d2- -0.27269     2 3d1+  0.51907     2 3d2+  0.26941
                                    2 3d1-  0.51965     3 1s    0.44682     4 1s    0.25323
   30.1     0.00000     2.15953     1 1s   -0.38991     1 1s    1.60579     1 2px   0.32356     1 2pz  -0.47414     1 3d0  -0.48508
                                    1 3d1+ -0.26639     1 3d2+ -0.26056     2 1s   -1.21576     2 2px   0.31398     2 2py  -0.32220
                                    2 2pz  -0.28120     2 3d0   0.60314     2 3d2+  0.44413     3 1s   -0.36992     4 1s   -0.26842
                                    5 1s    0.37700
   31.1     0.00000     2.25527     1 1s   -0.44059     1 3d1+ -0.34278     1 3d2+  0.44001     1 3d1-  0.26174     2 1s   -0.56183
                                    2 1s    0.64919     2 2px   0.25152     2 2px  -0.41290     2 2py   0.27741     2 3d0  -0.31393
                                    2 3d2- -0.33369     2 3d1+ -0.37107     2 3d2+  0.31635
   32.1     0.00000     2.34598     1 1s    0.74767     1 2px   0.30274     1 2py  -0.38490     1 3d0  -0.55002     2 1s   -0.69104
                                    2 2py   0.26401     2 2pz  -0.32715     2 3d0  -0.34940     2 3d2-  0.58618     2 3d1-  0.47845
                                    4 1s   -0.45492     5 1s   -0.27835     6 1s    0.52411
   33.1     0.00000     2.56448     1 3d0   0.30308     1 3d2- -0.64394     2 2py   0.33078     2 3d1+ -0.28787     2 3d2+ -0.35811
                                    2 3d1-  0.68413     3 1s   -0.36817     5 1s   -0.33136     6 1s    0.39110
   34.1     0.00000     2.67739     1 1s   -0.69636     1 2py   0.38281     1 3d0   0.32858     1 3d2-  0.37233     1 3d2+  0.34868
                                    1 3d1- -0.57485     2 1s    0.27036     2 2px  -0.32148     2 3d2-  0.65206     2 3d1+ -0.40775
                                    2 3d2+  0.34957     4 1s    0.54717     6 1s    0.39438
   35.1     0.00000     2.74725     1 1s    0.64881     1 2px   0.27746     1 2py  -0.44526     1 2pz  -0.28436     1 3d2-  0.48885
                                    1 3d1+ -0.53801     1 3d1-  0.71990     2 1s   -0.52037     2 3d0   0.39876     2 3d2+ -0.30131
                                    3 1s    0.58813     4 1s   -0.65591
   36.1     0.00000     2.97021     1 1s    1.57173     1 2px   0.44582     1 2px   0.85184     1 2pz  -0.36997     1 3d2- -0.39240
                                    1 3d1+ -0.65854     1 3d2+  0.73733     2 1s   -1.66769     2 2px   0.40972     2 2px   0.82885
                                    2 2py  -0.27122     2 2pz  -0.45149     2 3d2-  0.34225     2 3d1+  0.70144     2 3d2+ -0.56212
                                    4 1s    0.34057


 HOMO      8.1    -0.382197 =     -10.4001eV
 LUMO      9.1     0.061327 =       1.6688eV
 LUMO-HOMO         0.443525 =      12.0689eV


 **********************************************************************************************************************************
 DATASETS  * FILE   NREC   LENGTH (MB)   RECORD NAMES
              1      19       31.13       500      610      700      900      950      970     1000      129      960     1100   
                                          VAR    BASINP    GEOM    SYMINP    ZMAT    AOBASIS   BASIS     P2S    ABASIS      S 
                                         1400     1410     1200     1210     1080     1600     1650     1300     1700   
                                           T        V       H0       H01     AOSYM     SMH    MOLCAS    ERIS     OPER   

              2       4        2.86       700     1000      520     2100   
                                         GEOM     BASIS   MCVARS     RHF  

 PROGRAMS   *        TOTAL    HF-SCF       INT
 CPU TIMES  *         0.41      0.12      0.18
 REAL TIME  *         0.65 SEC
 DISK USED  *        36.24 MB
 **********************************************************************************************************************************


 PROGRAM * MULTI (Direct Multiconfiguration SCF)       Authors: P.J. Knowles, H.-J. Werner (1984)


 Number of closed-shell orbitals:   7 (   7 )
 Number of active  orbitals:        2 (   2 )
 Number of external orbitals:      27 (  27 )

 State symmetry 1

 Number of electrons:     2    Spin symmetry=Singlet   Space symmetry=1
 Number of states:        3
 Number of CSFs:          3   (4 determinants, 4 intermediate states)

 Molecular orbitals read from record     2100.2  Type=RHF/CANONICAL (state 1.1)

 Wavefunction dump at record             2140.2

 Convergence thresholds  0.10E-01 (gradient)  0.10E-05 (energy)  0.10E-02 (step length)

 Weight factors for state symmetry  1:    0.33333   0.33333   0.33333

 Number of orbital rotations:      257   (    14 Core/Active    189 Core/Virtual   0 Active/Active     54 Active/Virtual)
 Total number of variables:        269

 Micro-Iterations solved by the two-step solver

 ITER. MIC  NCI  NEG     ENERGY(VAR)     ENERGY(PROJ)   ENERGY CHANGE     GRAD(0)  GRAD(ORB)   GRAD(CI)     STEP       TIME

   1   10    6    0     -77.66091372     -77.69031507   -0.02940136    0.15734882 0.00048708 0.00000000  0.21D+00      0.17
   2    7    5    0     -77.68950852     -77.68982144   -0.00031292    0.02825849 0.00004173 0.00000000  0.14D-01      0.28
   3    7    5    0     -77.68982263     -77.68982264   -0.00000001    0.00017083 0.00000001 0.00000000  0.13D-03      0.39
   4    3    3    0     -77.68982264     -77.68982264    0.00000000    0.00000001 0.00000000 0.00000000  0.15D-07      0.45

 ** WVFN ****  CONVERGENCE REACHED, FINAL GRADIENT:  0.21D-11



 Results for state 1.1
 =====================

 !MCSCF STATE  1.1 Energy             -77.819494520886
 Nuclear energy                        32.46597783
 Kinetic energy                        77.87179745
 One electron energy                 -168.01543403
 Two electron energy                   57.72996167
 Virial ratio                           1.99932835

 !MCSCF STATE  1.1 Dipole moment       -0.15261494    -0.17957975     0.04082778
 Dipole moment /Debye                  -0.38788307    -0.45641630     0.10376706

 Results for state 2.1
 =====================

 !MCSCF STATE  2.1 Energy             -77.717973956670
 Nuclear energy                        32.46597783
 Kinetic energy                        77.95128584
 One electron energy                 -167.73238093
 Two electron energy                   57.54842914
 Virial ratio                           1.99700695

 !MCSCF STATE  2.1 Dipole moment        0.04413265     0.03172609    -0.00132122
 Dipole moment /Debye                   0.11216667     0.08063439    -0.00335799

 Results for state 3.1
 =====================

 !MCSCF STATE  3.1 Energy             -77.531999449224
 Nuclear energy                        32.46597783
 Kinetic energy                        78.01627693
 One electron energy                 -167.50841829
 Two electron energy                   57.51044101
 Virial ratio                           1.99379261

 !MCSCF STATE  3.1 Dipole moment        0.30808226     0.28931386    -0.04019440
 Dipole moment /Debye                   0.78301571     0.73531432    -0.10215727

 State-averaged charge density matrix saved on record  2140.2 (density set 1)

 !MCSCF expec         <1.1|DMX|1.1>    -0.152614935306 au =    -0.387883067274 Debye
 !MCSCF trans         <2.1|DMX|1.1>    -0.140515816651 au =    -0.357132189284 Debye
 !MCSCF expec         <2.1|DMX|2.1>     0.044132654976 au =     0.112166673233 Debye
 !MCSCF trans         <3.1|DMX|1.1>    -0.011035048892 au =    -0.028046459564 Debye
 !MCSCF trans         <3.1|DMX|2.1>    -0.135097816970 au =    -0.343361909655 Debye
 !MCSCF expec         <3.1|DMX|3.1>     0.308082261650 au =     0.783015714564 Debye

 !MCSCF expec         <1.1|DMY|1.1>    -0.179579751366 au =    -0.456416304476 Debye
 !MCSCF trans         <2.1|DMY|1.1>    -0.100009782677 au =    -0.254182863456 Debye
 !MCSCF expec         <2.1|DMY|2.1>     0.031726087643 au =     0.080634389831 Debye
 !MCSCF trans         <3.1|DMY|1.1>    -0.014934539816 au =    -0.037957327706 Debye
 !MCSCF trans         <3.1|DMY|2.1>    -0.090102993248 au =    -0.229003965578 Debye
 !MCSCF expec         <3.1|DMY|3.1>     0.289313859472 au =     0.735314318958 Debye

 !MCSCF expec         <1.1|DMZ|1.1>     0.040827775596 au =     0.103767057898 Debye
 !MCSCF trans         <2.1|DMZ|1.1>    -0.004640413696 au =    -0.011793982642 Debye
 !MCSCF expec         <2.1|DMZ|2.1>    -0.001321222663 au =    -0.003357993096 Debye
 !MCSCF trans         <3.1|DMZ|1.1>     0.004468225458 au =     0.011356352458 Debye
 !MCSCF trans         <3.1|DMZ|2.1>    -0.008591196771 au =    -0.021835213890 Debye
 !MCSCF expec         <3.1|DMZ|3.1>    -0.040194395847 au =    -0.102157272596 Debye


 NATURAL ORBITALS (state averaged)
 =================================

  Orbital  Occupation    Energy     Coefficients
    1.1     2.00000   -11.27078     2 1s    0.99625
    2.1     2.00000   -11.23693     1 1s    0.99612
    3.1     2.00000    -1.05757     1 1s    0.30038     2 1s    0.25414
    4.1     2.00000    -0.78708     1 1s   -0.27404     2 1s    0.25334     2 1s    0.35142
    5.1     2.00000    -0.62598     1 2py   0.35518
    6.1     2.00000    -0.55818     1 2px   0.26796     2 2px  -0.25018     2 2py   0.28053
    7.1     2.00000    -0.41965     1 2pz   0.31697     1 2pz   0.27767     2 2pz   0.33424     2 2pz   0.28290
    8.1     1.00000    -0.08808     1 2pz  -0.41133     1 2pz  -0.44262     2 1s   -0.28712     2 2pz   0.39690     2 2pz   0.41371
    9.1     1.00000    -0.23080     1 2px  -0.30778     2 2px   0.31019     4 1s    0.27343     5 1s    0.32433
   10.1    -0.00000     0.20708     1 1s   -0.90274     1 2px   0.36469     1 2pz   0.30674     2 1s   -1.01794     2 2px  -0.50901
                                    2 2py  -0.52944     2 2pz  -0.36135     3 1s    0.46684     4 1s    0.74446     5 1s    1.23610
                                    6 1s    0.44235
   11.1    -0.00000     0.28054     1 1s    1.61210     1 2pz  -0.42069     2 1s   -1.65054     2 2py   0.37177     2 2pz  -0.51883
                                    3 1s   -1.30488     6 1s    1.55049
   12.1    -0.00000     0.30737     1 1s   -1.76273     1 2px   0.48751     1 2py  -0.36833     1 2pz   0.66161     2 1s   -0.35905
                                    2 2py   0.26728     2 2px  -0.37025     2 2py   1.10816     3 1s    1.49663     4 1s    0.91726
                                    5 1s   -0.77041     6 1s    1.36144
   13.1    -0.00000     0.33873     1 1s   -1.14557     1 2py   0.29847     1 2py   1.46718     2 1s    0.87038     2 2pz   0.41118
                                    3 1s   -0.92983     4 1s    2.37136     5 1s   -0.77030     6 1s   -0.51743
   14.1    -0.00000     0.42985     1 1s    1.73117     1 2px   1.84658     1 2py  -0.42335     1 2pz  -0.66945     2 1s   -1.92324
                                    2 2px   1.73841     2 2py  -0.56226     2 2pz  -0.75162     3 1s    0.67436     6 1s   -0.58213
   15.1    -0.00000     0.69708     1 1s    0.49073     1 2px   0.46736     1 2px  -0.65446     1 2py  -0.39555     2 1s   -0.28699
                                    2 2px  -0.54679     2 2px   1.08196     2 2pz  -0.25688     4 1s   -0.32138     4 1s    0.30643
                                    5 1s    0.52581
   16.1    -0.00000     0.74222     1 1s   -0.61725     1 2px   0.33534     1 2py  -0.52367     1 2px  -0.84916     1 2py   1.39904
                                    1 2pz   0.48699     2 1s    0.56599     3 1s   -0.46613     4 1s    0.33384     4 1s    0.33426
                                    6 1s    0.25301
   17.1    -0.00000     0.78680     1 1s   -0.28293     1 2pz  -0.62350     1 2py   0.44857     1 2pz   0.70757     2 1s    0.36208
                                    2 2py   0.46465     2 2pz  -0.37715     2 2px   0.41248     2 2py  -0.88369     2 2pz   0.41814
                                    6 1s   -0.38484     6 1s   -0.26653
   18.1    -0.00000     0.81430     1 1s   -0.27101     1 2pz  -0.31369     1 2py  -0.50202     2 2py  -0.51846     2 2pz  -0.73083
                                    2 2py   0.95535     2 2pz   0.73070     5 1s   -0.31968
   19.1    -0.00000     0.86347     1 1s    0.33191     1 2pz   0.70453     1 2px  -0.43895     1 2py   0.63738     1 2pz  -1.04292
                                    2 1s    0.27688     2 2px  -0.26779     2 2pz  -0.59171     2 2px   0.54143     2 2py  -0.58050
                                    2 2pz   0.95703     3 1s   -0.30209     6 1s   -0.28530
   20.1    -0.00000     0.97408     1 2px   0.56567     1 2py   0.25187     1 2px  -0.94161     1 2py  -0.68803     2 2px   0.74058
                                    2 2py   0.60346     2 2px  -1.09819     2 2py  -1.00545     4 1s   -1.09426     5 1s    1.24778
   21.1    -0.00000     1.02347     1 2px   0.49233     1 2px  -0.58387     2 1s   -0.73243     2 1s    1.33559     2 2py  -0.35188
                                    2 2py   0.36551     4 1s   -0.40764     5 1s    1.01053     5 1s   -1.24361
   22.1    -0.00000     1.14523     1 1s    0.61098     1 2px  -0.33705     1 2py   0.36793     1 2px   0.87147     1 2py  -0.76797
                                    2 1s   -0.43225     2 2px  -0.51730     2 2py   0.49390     2 2px   1.08078     2 2py  -0.86105
                                    3 1s   -0.39962     3 1s    1.01426     4 1s   -0.32439     6 1s    0.79919     6 1s   -1.61977
   23.1    -0.00000     1.19245     1 1s   -0.32401     1 1s    0.59996     1 2py  -0.64091     1 2py   0.65097     2 1s   -0.35075
                                    3 1s    0.87097     3 1s   -1.18445     4 1s   -0.31731     4 1s    0.80118     6 1s    0.65184
                                    6 1s   -0.43976
   24.1    -0.00000     1.23699     1 1s   -1.29011     1 1s    1.96754     1 2pz   0.29097     1 2px  -1.17591     1 2pz  -0.74792
                                    2 1s   -1.38789     2 1s    2.80436     2 2py  -0.39021     2 2pz   0.92494     3 1s   -1.17312
                                    4 1s    0.35231     4 1s   -1.44662     5 1s   -0.45532     6 1s   -0.88957
   25.1    -0.00000     1.26909     1 1s   -1.35529     1 1s    4.46655     1 2py  -0.36025     1 2px   0.78610     1 2pz  -1.32562
                                    2 1s    0.44938     2 1s   -2.42685     2 2px   1.20175     2 2py  -0.79617     2 2pz  -0.28967
                                    3 1s   -0.48005     3 1s   -0.62820     4 1s   -0.81514     4 1s   -0.29193
   26.1    -0.00000     1.30275     1 1s    1.22406     1 1s   -3.67308     1 2py  -0.43223     1 2px  -0.74032     1 2py   1.03436
                                    1 2pz   0.65746     2 1s   -1.42317     2 1s    3.78646     2 2px  -0.67701     2 2py   0.32405
                                    2 2pz   1.12440     4 1s   -0.60902     4 1s    1.40864     5 1s   -0.28168     5 1s   -0.41913
                                    6 1s   -0.61838
   27.1    -0.00000     1.68926     1 1s    0.68680     1 3d0   0.36903     1 3d2- -0.31714     1 3d2+ -0.30109     2 1s   -0.50975
                                    2 3d0  -0.31814     2 3d2-  0.28284     2 3d2+  0.35393
   28.1    -0.00000     1.90437     1 2px   0.30387     1 3d0   0.29091     1 3d1+  0.46135     1 3d2+  0.41027     1 3d1-  0.41471
                                    2 1s    0.40787     2 1s   -1.06390     2 2pz  -0.41913     2 3d0   0.39359     2 3d2+  0.25941
                                    6 1s    0.29743
   29.1    -0.00000     1.94167     1 1s    0.39978     1 1s   -1.60449     1 2pz   0.51096     1 3d2-  0.28370     2 1s    0.83932
                                    2 2px  -0.36407     2 2py   0.29320     2 3d2- -0.27532     2 3d1+  0.51878     2 3d2+  0.27316
                                    2 3d1-  0.51798     3 1s    0.44653     4 1s    0.25540
   30.1    -0.00000     2.15820     1 1s   -0.39802     1 1s    1.57863     1 2px   0.30890     1 2pz  -0.46994     1 3d0  -0.48361
                                    1 3d1+ -0.27143     1 3d2+ -0.25853     2 1s   -1.16143     2 2px   0.30284     2 2py  -0.32924
                                    2 2pz  -0.25851     2 3d0   0.60117     2 3d2+  0.44760     3 1s   -0.36969     4 1s   -0.27403
                                    5 1s    0.37030
   31.1    -0.00000     2.25265     1 1s   -0.42808     1 2px  -0.25427     1 3d1+ -0.34515     1 3d2+  0.44439     2 1s   -0.56619
                                    2 1s    0.69890     2 2px   0.25609     2 2px  -0.41940     2 2py   0.26991     2 3d0  -0.32016
                                    2 3d2- -0.34997     2 3d1+ -0.37987     2 3d2+  0.30817
   32.1    -0.00000     2.34071     1 1s    0.78762     1 2px   0.32083     1 2py  -0.40445     1 3d0  -0.55966     2 1s   -0.70028
                                    2 2py   0.27211     2 2pz  -0.33056     2 3d0  -0.33737     2 3d2-  0.58076     2 3d1-  0.49140
                                    4 1s   -0.44623     5 1s   -0.26358     6 1s    0.54186
   33.1    -0.00000     2.56018     1 3d0   0.29003     1 3d2- -0.66423     2 2py   0.33003     2 3d1+ -0.27285     2 3d2+ -0.36269
                                    2 3d1-  0.68173     3 1s   -0.38151     5 1s   -0.31850     6 1s    0.37654
   34.1    -0.00000     2.67415     1 1s   -0.74428     1 2py   0.41995     1 3d0   0.33130     1 3d2-  0.32435     1 3d2+  0.35803
                                    1 3d1- -0.62580     2 1s    0.30728     2 2px  -0.32983     2 3d2-  0.63942     2 3d1+ -0.39719
                                    2 3d2+  0.35014     4 1s    0.58733     6 1s    0.38804
   35.1    -0.00000     2.75018     1 1s    0.60539     1 2px   0.27221     1 2py  -0.42531     1 2pz  -0.27338     1 3d2-  0.49877
                                    1 3d1+ -0.55151     1 3d1-  0.68579     2 1s   -0.49850     2 3d0   0.41172     2 3d2+ -0.27907
                                    3 1s    0.59157     4 1s   -0.60770
   36.1    -0.00000     2.96671     1 1s    1.60338     1 2px   0.43915     1 2px   0.86337     1 2pz  -0.37860     1 3d2- -0.39132
                                    1 3d1+ -0.66126     1 3d2+  0.73437     2 1s   -1.69450     2 2px   0.40461     2 2px   0.84119
                                    2 2py  -0.27787     2 2pz  -0.45825     2 3d2-  0.34005     2 3d1+  0.70503     2 3d2+ -0.56094
                                    4 1s    0.32888


 Natural orbital dump (state averaged) at molpro section  2140.2    (Orbital set 2)



 **********************************************************************************************************************************
 DATASETS  * FILE   NREC   LENGTH (MB)   RECORD NAMES
              1      20       31.86       500      610      700      900      950      970     1000      129      960     1100   
                                          VAR    BASINP    GEOM    SYMINP    ZMAT    AOBASIS   BASIS     P2S    ABASIS      S 
                                         1400     1410     1200     1210     1080     1600     1650     1300     1700     1380   
                                           T        V       H0       H01     AOSYM     SMH    MOLCAS    ERIS     OPER     JKOP   

              2       5        5.42       700     1000      520     2100     2140   
                                         GEOM     BASIS   MCVARS     RHF     MCSCF   

 PROGRAMS   *        TOTAL     MULTI    HF-SCF       INT
 CPU TIMES  *         0.91      0.50      0.12      0.18
 REAL TIME  *         1.37 SEC
 DISK USED  *        39.04 MB
 **********************************************************************************************************************************
 Molecular orbitals read from record     2140.2  Type=MCSCF/NATURAL (state averaged)
 Occupation numbers read from record     2140.2  Type=MCSCF/NATURAL (state averaged)
 Orbital energies read from record       2140.2  Type=MCSCF/NATURAL (state averaged)
 Redundancy group numbers read from rec  2140.2  Type=MCSCF/NATURAL (state averaged)

 MULTI/6-31G* energy=    -77.531999449224

           MULTI          HF-SCF
    -77.53199945    -77.82596073
 **********************************************************************************************************************************
 Molpro calculation terminated
