
 Primary working directories    : /scratch.local/johan406.molpro_temp/molpro.0s4RymchIH
 Secondary working directories  : /scratch.local/johan406.molpro_temp/molpro.0s4RymchIH
 Wavefunction directory         : /home/goodpast/johan406/wfu/
 Main file repository           : /scratch.local/johan406.molpro_temp/molpro.0s4RymchIH/

 id        : roweumn

 Nodes     nprocs
 acn09        1

 Using customized tuning parameters: mindgm=1; mindgv=20; mindgc=4; mindgr=1; noblas=0; minvec=7
 default implementation of scratch files=df  


 Variables initialized (934), CPU time= 0.00 sec
                                                                                 !leave this line blank
 
 gprint, orbitals=30
 memory, 125., m
 symmetry, nosym
 nelect=16
 basis=6-31g*
 
 geometry={
 C -0.6314 0.1255 0.2962
 C 0.6305 -0.1998 -0.3615
 H -1.2647 0.8793 -0.1428
 H -0.9061 -0.7051 -0.1155
 H 1.0272 0.9749 0.099
 H 1.2785 -0.9634 0.1067
 }
 
 hf
 {multi,
 closed 7
 occ 9
 wf,spin=0;STATE,3
 }
 
 Commands  initialized (763), CPU time= 0.01 sec, 617 directives.
 Default parameters read. Elapsed time= 0.07 sec

 Checking input...
 Passed
1


                                         ***  PROGRAM SYSTEM MOLPRO  ***
                                       Copyright, TTI GmbH Stuttgart, 2015
                                    Version 2019.2 linked Oct 25 2019 22:50:27


 **********************************************************************************************************************************
 LABEL *                                                                                 
  64 bit serial version                                                                  DATE: 07-Feb-23          TIME: 15:48:21  
 **********************************************************************************************************************************

 SHA1:             8dbd9ae1082e4ce945b0f27595c9eb2d4aa09004
 **********************************************************************************************************************************


 Variable memory set to  125000000 words,  buffer space 

 SETTING NELECT         =        16.00000000                                  
 SETTING BASIS          =    6-31G*
 ZSYMEL=NOSYM


Geometry recognized as XYZ



 Recomputing integrals since basis changed


 Using spherical harmonics

 Library entry C      S 6-31G                selected for orbital group  1
 Library entry C      P 6-31G                selected for orbital group  1
 Library entry C      D 6-31G*               selected for orbital group  1
 Library entry H      S 6-31G                selected for orbital group  2


 PROGRAM * SEWARD (Integral evaluation for generally contracted gaussian basis sets)     Author: Roland Lindh, 1990

 Geometry written to block  1 of record 700


 Point group  C1  



 ATOMIC COORDINATES

 NR  ATOM    CHARGE       X              Y              Z

   1  C       6.00   -1.193173075    0.237160629    0.559736878
   2  C       6.00    1.191472322   -0.377567280   -0.683135994
   3  H       1.00   -2.389936630    1.661636181   -0.269852891
   4  H       1.00   -1.712280841   -1.332445890   -0.218263367
   5  H       1.00    1.941126675    1.842293999    0.187082886
   6  H       1.00    2.416014850   -1.820562148    0.201633777

 Bond lengths in Bohr (Angstrom)

 1-2  2.758470055  1-3  2.037054931  1-4  1.827134883  2-5  2.499409259  2-6  2.089152016
     ( 1.459719490)     ( 1.077963047)     ( 0.966878141)     ( 1.322630421)     ( 1.105531637)

 Bond angles

  1-2-5   84.51912328   1-2-6  118.02243447   2-1-3  118.69996141   2-1-4   82.08606035

  3-1-4  105.09369844   5-2-6  106.86992780

 NUCLEAR CHARGE:                   16
 NUMBER OF PRIMITIVE AOS:          72
 NUMBER OF SYMMETRY AOS:           70
 NUMBER OF CONTRACTIONS:           36   (   36A   )
 NUMBER OF CORE ORBITALS:           2   (    2A   )
 NUMBER OF VALENCE ORBITALS:       12   (   12A   )


 NUCLEAR REPULSION ENERGY   32.51400607

 Eigenvalues of metric

         1 0.891E-02 0.252E-01 0.525E-01 0.609E-01 0.969E-01 0.206E+00 0.232E+00 0.273E+00


 Contracted 2-electron integrals neglected if value below      1.0D-11
 AO integral compression algorithm  1   Integral accuracy      1.0D-11

     1.573 MB (compressed) written to integral file ( 59.2%)


 NUMBER OF SORTED TWO-ELECTRON INTEGRALS:     222111.     BUFFER LENGTH:  32768
 NUMBER OF SEGMENTS:   1  SEGMENT LENGTH:     222111      RECORD LENGTH: 524288

 Memory used in sort:       0.78 MW

 SORT1 READ      284735. AND WROTE      212531. INTEGRALS IN      1 RECORDS. CPU TIME:     0.01 SEC, REAL TIME:     0.00 SEC
 SORT2 READ      212531. AND WROTE      222111. INTEGRALS IN      6 RECORDS. CPU TIME:     0.02 SEC, REAL TIME:     0.03 SEC

 FILE SIZES:   FILE 1:    31.7 MBYTE,  FILE 4:     4.2 MBYTE,   TOTAL:     35.9 MBYTE

 OPERATOR DM      FOR CENTER  0  COORDINATES:    0.000000    0.000000    0.000000


 **********************************************************************************************************************************
 DATASETS  * FILE   NREC   LENGTH (MB)   RECORD NAMES
              1      19       31.13       500      610      700      900      950      970     1000      129      960     1100   
                                          VAR    BASINP    GEOM    SYMINP    ZMAT    AOBASIS   BASIS     P2S    ABASIS      S 
                                         1400     1410     1200     1210     1080     1600     1650     1300     1700   
                                           T        V       H0       H01     AOSYM     SMH    MOLCAS    ERIS     OPER   

 PROGRAMS   *        TOTAL       INT
 CPU TIMES  *         0.30      0.19
 REAL TIME  *         0.53 SEC
 DISK USED  *        36.24 MB
 **********************************************************************************************************************************


 PROGRAM * RHF-SCF (CLOSED SHELL)       Authors: W. Meyer, H.-J. Werner


 NUMBER OF ELECTRONS:       8+    8-    SPACE SYMMETRY=1    SPIN SYMMETRY: Singlet 
 CONVERGENCE THRESHOLDS:    1.00E-05 (Density)    1.00E-07 (Energy)
 MAX. NUMBER OF ITERATIONS:       60
 INTERPOLATION TYPE:            DIIS
 INTERPOLATION STEPS:              2 (START)      1 (STEP)
 LEVEL SHIFTS:                  0.00 (CLOSED)  0.00 (OPEN) 



 Orbital guess generated from atomic densities. Full valence occupancy:    8

 Molecular orbital dump at record        2100.2

 Initial occupancy:   8

 ITERATION    DDIFF          GRAD             ENERGY        2-EL.EN.            DIPOLE MOMENTS         DIIS   ORB.
    1      0.000D+00      0.000D+00       -77.78817145    116.201224    0.21545   -0.04345   -0.17546    0    start
    2      0.000D+00      0.813D-02       -77.80863968    115.087157   -0.16303   -0.03120    0.18902    1    diag
    3      0.934D-02      0.403D-02       -77.81257632    115.378416   -0.01829   -0.14333   -0.05097    2    diag
    4      0.396D-02      0.170D-02       -77.81372968    115.433245   -0.11101   -0.11505    0.05329    3    diag
    5      0.221D-02      0.597D-03       -77.81393740    115.360674   -0.11346   -0.13299    0.03712    4    diag
    6      0.924D-03      0.249D-03       -77.81404337    115.370372   -0.12631   -0.13730    0.04106    5    diag
    7      0.849D-03      0.106D-03       -77.81407250    115.370587   -0.12968   -0.13805    0.04159    6    diag
    8      0.469D-03      0.401D-04       -77.81407669    115.371862   -0.12976   -0.13803    0.04143    7    diag
    9      0.186D-03      0.158D-04       -77.81407722    115.372283   -0.12929   -0.13781    0.04123    8    diag
   10      0.716D-04      0.493D-05       -77.81407725    115.372347   -0.12913   -0.13784    0.04109    9    orth
   11      0.179D-04      0.137D-05       -77.81407725    115.372348   -0.12909   -0.13784    0.04106    9    diag
   12      0.375D-05      0.376D-06       -77.81407725    115.372354   -0.12909   -0.13783    0.04106    0    orth

 Final occupancy:   8

 !RHF STATE  1.1 Energy               -77.814077249779
 Nuclear energy                        32.51400607
 One-electron energy                 -168.01426050
 Two-electron energy                   57.68617717
 Virial quotient                       -0.99946058
 !RHF STATE  1.1 Dipole moment         -0.12908706    -0.13783391     0.04106401
 Dipole moment /Debye                  -0.32808509    -0.35031590     0.10436747

 ELECTRON ORBITALS
 =================

  Orbital  Occupation    Energy     Coefficients
    1.1     2.00000   -11.27950     2 1s    0.99631
    2.1     2.00000   -11.24070     1 1s    0.99615
    3.1     2.00000    -1.04947     1 1s    0.30951     2 1s    0.25409
    4.1     2.00000    -0.78830     2 1s    0.26252     2 1s    0.33351
    5.1     2.00000    -0.62701     1 2py   0.38949
    6.1     2.00000    -0.56040     1 2px   0.31929     2 2px  -0.29333     2 2py   0.25708
    7.1     2.00000    -0.39536     1 2pz   0.25954     2 2pz   0.32167     2 2pz   0.27384
    8.1     2.00000    -0.38022     2 2px   0.28345     5 1s    0.32155
    9.1     0.00000     0.06036     1 1s   -0.32403     1 2pz  -0.33852     1 2pz  -0.49571     2 1s   -0.45184     2 2pz   0.32387
                                    2 2pz   0.43526
   10.1     0.00000     0.21648     1 1s   -1.01861     1 2px   0.32335     1 2pz   0.39971     2 1s   -0.83972     2 2px  -0.53177
                                    2 2py  -0.50619     2 2pz  -0.36276     3 1s    0.50330     4 1s    0.78986     5 1s    1.17352
                                    6 1s    0.40176
   11.1     0.00000     0.28070     1 1s    1.41315     1 2py   0.27627     1 2pz  -0.34701     2 1s   -1.66701     2 2py   0.42415
                                    2 2pz  -0.55867     3 1s   -1.20761     6 1s    1.63912
   12.1     0.00000     0.30614     1 1s   -1.62691     1 2px   0.51141     1 2py  -0.63348     1 2pz   0.66791     2 1s   -0.40260
                                    2 2px  -0.37027     2 2py   1.02614     2 2pz  -0.31778     3 1s    1.73240     4 1s    0.52892
                                    5 1s   -0.62385     6 1s    1.28785
   13.1     0.00000     0.35312     1 1s   -1.55297     1 2py   0.25970     1 2py   1.37951     1 2pz   0.33411     2 1s    0.71671
                                    2 2pz   0.35651     3 1s   -0.55858     4 1s    2.64806     5 1s   -0.81764     6 1s   -0.40125
   14.1     0.00000     0.42248     1 1s    1.85952     1 2px   1.85411     1 2py  -0.52333     1 2pz  -0.71213     2 1s   -2.01552
                                    2 2px   1.71254     2 2py  -0.64151     2 2pz  -0.80675     3 1s    0.70162     6 1s   -0.56380
   15.1     0.00000     0.69892     1 1s    0.60733     1 2px   0.46251     1 2py   0.27492     1 2px  -0.61572     1 2py  -0.50235
                                    2 1s   -0.29282     2 2px  -0.54773     2 2pz   0.25279     2 2px   1.11587     2 2pz  -0.26697
                                    4 1s   -0.31618     5 1s    0.45413
   16.1     0.00000     0.73619     1 1s   -0.53741     1 2px   0.35600     1 2py  -0.53520     1 2pz  -0.29578     1 2px  -0.82756
                                    1 2py   1.43986     1 2pz   0.48266     2 1s    0.54058     3 1s   -0.43783     4 1s    0.33317
                                    4 1s    0.37191
   17.1     0.00000     0.78700     1 2pz  -0.64708     1 2px   0.31019     1 2py   0.27080     1 2pz   0.67098     2 2py   0.41331
                                    2 2pz  -0.42650     2 2px   0.43302     2 2py  -0.78013     2 2pz   0.45521     3 1s    0.25231
                                    6 1s   -0.39033
   18.1     0.00000     0.81890     1 2pz  -0.25940     1 2py  -0.52406     2 1s   -0.39104     2 2py  -0.58725     2 2pz  -0.71184
                                    2 2py   0.99568     2 2pz   0.58876     5 1s   -0.28285
   19.1     0.00000     0.86468     1 1s    0.37743     1 1s   -0.25282     1 2pz   0.72410     1 2px  -0.38940     1 2py   0.64974
                                    1 2pz  -0.96803     2 1s    0.31441     2 2px  -0.26003     2 2pz  -0.61174     2 2px   0.50912
                                    2 2py  -0.61769     2 2pz   0.92276     3 1s   -0.25498     6 1s   -0.25274
   20.1     0.00000     0.96715     1 2px   0.60782     1 2px  -1.06535     1 2py  -0.66963     2 2px   0.74228     2 2py   0.56590
                                    2 2px  -1.15910     2 2py  -0.95216     4 1s   -1.21889     5 1s    1.12032
   21.1     0.00000     1.05165     1 2px   0.44425     1 2px  -0.64148     2 1s   -0.81385     2 1s    1.62538     2 2py  -0.35861
                                    2 2py   0.42522     2 2pz   0.27392     4 1s   -0.35317     5 1s    1.00588     5 1s   -1.35887
   22.1     0.00000     1.13997     1 1s    0.59715     1 2px  -0.28176     1 2py   0.32373     1 2px   0.77896     1 2py  -0.70070
                                    2 1s   -0.51927     2 1s    0.44881     2 2px  -0.50292     2 2py   0.50214     2 2px   1.04405
                                    2 2py  -0.85204     3 1s   -0.34324     3 1s    0.90872     4 1s   -0.30836     6 1s    0.83912
                                    6 1s   -1.67771
   23.1     0.00000     1.19046     1 1s   -0.53077     1 1s    0.94849     1 2px   0.29674     1 2py  -0.62180     1 2py   0.68021
                                    3 1s    0.91165     3 1s   -1.40067     4 1s    0.58845     6 1s    0.57308     6 1s   -0.40607
   24.1     0.00000     1.25276     1 1s    1.52076     1 1s   -3.10486     1 2px   0.86557     1 2pz   1.15206     2 1s    1.21799
                                    2 1s   -2.00263     2 2px  -0.39052     2 2py   0.60847     2 2pz  -0.87197     3 1s    1.15981
                                    4 1s    1.48533     5 1s    0.44097     6 1s    0.34049     6 1s    0.85647
   25.1     0.00000     1.28320     1 1s   -1.24808     1 1s    4.73551     1 2px   1.26713     1 2py  -0.44042     1 2pz  -1.19552
                                    2 1s    1.26783     2 1s   -4.21352     2 2px   1.27785     2 2py  -0.73328     2 2pz  -0.93181
                                    3 1s   -0.35001     3 1s   -0.29956     4 1s   -0.60552     4 1s   -0.40887     5 1s    0.44087
                                    6 1s    0.33242
   26.1     0.00000     1.35165     1 1s    0.98247     1 1s   -2.48091     1 2px  -0.27147     1 2py  -0.57970     1 2pz  -0.28914
                                    1 2py   0.96965     1 2pz   0.40018     2 1s   -0.88264     2 1s    2.14135     2 2px  -0.28841
                                    2 2pz   0.74297     3 1s   -0.25358     4 1s   -0.90636     4 1s    1.61286     5 1s   -0.33076
                                    6 1s   -0.42150
   27.1     0.00000     1.69296     1 1s    0.65339     1 3d0   0.38451     1 3d2- -0.31832     1 3d2+ -0.29155     2 1s   -0.45614
                                    2 3d0  -0.31766     2 3d2-  0.27181     2 3d2+  0.35716
   28.1     0.00000     1.90050     1 2px   0.30839     1 3d0   0.29259     1 3d1+  0.47124     1 3d2+  0.41315     1 3d1-  0.41516
                                    2 1s    0.41977     2 1s   -1.09164     2 2pz  -0.42122     2 3d0   0.39519     6 1s    0.29141
   29.1     0.00000     1.94580     1 1s    0.40905     1 1s   -1.65789     1 2pz   0.53613     1 3d2-  0.28938     2 1s    0.79373
                                    2 2px  -0.36961     2 2py   0.30085     2 3d2- -0.26458     2 3d1+  0.52582     2 3d2+  0.26632
                                    2 3d1-  0.53087     3 1s    0.45984     4 1s    0.25396     4 1s    0.27446
   30.1     0.00000     2.15065     1 1s   -0.38045     1 1s    1.55151     1 2px   0.29555     1 2pz  -0.46555     1 3d0  -0.47106
                                    1 3d1+ -0.27826     1 3d2+ -0.25485     2 1s   -1.10129     2 2px   0.29646     2 2py  -0.32501
                                    2 3d0   0.60609     2 3d2+  0.45180     3 1s   -0.36155     4 1s   -0.28594     5 1s    0.36804
   31.1     0.00000     2.25642     1 1s   -0.44834     1 2py  -0.25136     1 3d1+ -0.33423     1 3d2+  0.43973     1 3d1-  0.27874
                                    2 1s   -0.56165     2 1s    0.63274     2 2px   0.25047     2 2px  -0.42064     2 2py   0.28842
                                    2 3d0  -0.33077     2 3d2- -0.32052     2 3d1+ -0.36161     2 3d2+  0.31243     4 1s   -0.25028
   32.1     0.00000     2.34506     1 1s    0.87500     1 2px   0.31507     1 2py  -0.37710     1 3d0  -0.53970     2 1s   -0.81212
                                    2 2pz  -0.35691     2 3d0  -0.30678     2 3d2-  0.62152     2 3d1-  0.48909     4 1s   -0.46143
                                    6 1s    0.55842
   33.1     0.00000     2.55958     1 3d0   0.31875     1 3d2- -0.64353     1 3d2+ -0.25924     2 2py   0.31403     2 3d1+ -0.29448
                                    2 3d2+ -0.37775     2 3d1-  0.66436     3 1s   -0.34477     5 1s   -0.29947     6 1s    0.36597
   34.1     0.00000     2.68328     1 1s   -0.68735     1 2py   0.32870     1 3d0   0.37789     1 3d2-  0.42679     1 3d1+ -0.25363
                                    1 3d2+  0.29336     1 3d1- -0.47976     2 1s    0.26982     2 2px  -0.31090     2 3d2-  0.64955
                                    2 3d1+ -0.46276     2 3d2+  0.30232     4 1s    0.49102     6 1s    0.41809
   35.1     0.00000     2.76411     1 1s    0.88887     1 2py  -0.25924     1 2px   0.34852     1 2py  -0.51345     1 2pz  -0.34698
                                    1 3d2-  0.44772     1 3d1+ -0.52486     1 3d1-  0.81685     2 1s   -0.69140     2 2px   0.33577
                                    2 3d0   0.36983     2 3d2+ -0.35636     3 1s    0.57324     4 1s   -0.78704
   36.1     0.00000     2.97622     1 1s    1.49334     1 2px   0.44646     1 2px   0.83273     1 2pz  -0.34005     1 3d2- -0.41289
                                    1 3d1+ -0.64249     1 3d2+  0.76352     2 1s   -1.62100     2 2px   0.39776     2 2px   0.80350
                                    2 2py  -0.27031     2 2pz  -0.44530     2 3d2-  0.34178     2 3d1+  0.69479     2 3d2+ -0.53720
                                    4 1s    0.43214


 HOMO      8.1    -0.380220 =     -10.3463eV
 LUMO      9.1     0.060358 =       1.6424eV
 LUMO-HOMO         0.440578 =      11.9887eV


 **********************************************************************************************************************************
 DATASETS  * FILE   NREC   LENGTH (MB)   RECORD NAMES
              1      19       31.13       500      610      700      900      950      970     1000      129      960     1100   
                                          VAR    BASINP    GEOM    SYMINP    ZMAT    AOBASIS   BASIS     P2S    ABASIS      S 
                                         1400     1410     1200     1210     1080     1600     1650     1300     1700   
                                           T        V       H0       H01     AOSYM     SMH    MOLCAS    ERIS     OPER   

              2       4        2.86       700     1000      520     2100   
                                         GEOM     BASIS   MCVARS     RHF  

 PROGRAMS   *        TOTAL    HF-SCF       INT
 CPU TIMES  *         0.40      0.10      0.19
 REAL TIME  *         0.66 SEC
 DISK USED  *        36.24 MB
 **********************************************************************************************************************************


 PROGRAM * MULTI (Direct Multiconfiguration SCF)       Authors: P.J. Knowles, H.-J. Werner (1984)


 Number of closed-shell orbitals:   7 (   7 )
 Number of active  orbitals:        2 (   2 )
 Number of external orbitals:      27 (  27 )

 State symmetry 1

 Number of electrons:     2    Spin symmetry=Singlet   Space symmetry=1
 Number of states:        3
 Number of CSFs:          3   (4 determinants, 4 intermediate states)

 Molecular orbitals read from record     2100.2  Type=RHF/CANONICAL (state 1.1)

 Wavefunction dump at record             2140.2

 Convergence thresholds  0.10E-01 (gradient)  0.10E-05 (energy)  0.10E-02 (step length)

 Weight factors for state symmetry  1:    0.33333   0.33333   0.33333

 Number of orbital rotations:      257   (    14 Core/Active    189 Core/Virtual   0 Active/Active     54 Active/Virtual)
 Total number of variables:        269

 Micro-Iterations solved by the two-step solver

 ITER. MIC  NCI  NEG     ENERGY(VAR)     ENERGY(PROJ)   ENERGY CHANGE     GRAD(0)  GRAD(ORB)   GRAD(CI)     STEP       TIME

   1    8    6    0     -77.64940247     -77.67900719   -0.02960472    0.15760608 0.00050875 0.00000000  0.21D+00      0.15
   2    7    5    0     -77.67826859     -77.67857487   -0.00030628    0.02780906 0.00004108 0.00000000  0.14D-01      0.25
   3    7    5    0     -77.67857606     -77.67857607   -0.00000001    0.00016864 0.00000001 0.00000000  0.15D-03      0.35
   4    3    3    0     -77.67857607     -77.67857607    0.00000000    0.00000001 0.00000000 0.00000000  0.18D-07      0.40

 ** WVFN ****  CONVERGENCE REACHED, FINAL GRADIENT:  0.31D-11



 Results for state 1.1
 =====================

 !MCSCF STATE  1.1 Energy             -77.807571243587
 Nuclear energy                        32.51400607
 Kinetic energy                        77.90212540
 One electron energy                 -168.06854970
 Two electron energy                   57.74697238
 Virial ratio                           1.99878624

 !MCSCF STATE  1.1 Dipole moment       -0.18538386    -0.22020423     0.04871150
 Dipole moment /Debye                  -0.47116791    -0.55966667     0.12380418

 Results for state 2.1
 =====================

 !MCSCF STATE  2.1 Energy             -77.706953912353
 Nuclear energy                        32.51400607
 Kinetic energy                        77.98353990
 One electron energy                 -167.79627128
 Two electron energy                   57.57531130
 Virial ratio                           1.99645328

 !MCSCF STATE  2.1 Dipole moment        0.05223369     0.03742233    -0.00191161
 Dipole moment /Debye                   0.13275610     0.09511185    -0.00485850

 Results for state 3.1
 =====================

 !MCSCF STATE  3.1 Energy             -77.521203064000
 Nuclear energy                        32.51400607
 Kinetic energy                        78.05040236
 One electron energy                 -167.58974837
 Two electron energy                   57.55453923
 Virial ratio                           1.99321977

 !MCSCF STATE  3.1 Dipole moment        0.37586026     0.35413704    -0.04856397
 Dipole moment /Debye                   0.95527893     0.90006763    -0.12342921

 State-averaged charge density matrix saved on record  2140.2 (density set 1)

 !MCSCF expec         <1.1|DMX|1.1>    -0.185383860549 au =    -0.471167912295 Debye
 !MCSCF trans         <2.1|DMX|1.1>    -0.171549397072 au =    -0.436006516610 Debye
 !MCSCF expec         <2.1|DMX|2.1>     0.052233689734 au =     0.132756101154 Debye
 !MCSCF trans         <3.1|DMX|1.1>    -0.013049695422 au =    -0.033166844890 Debye
 !MCSCF trans         <3.1|DMX|2.1>    -0.163950202242 au =    -0.416692555013 Debye
 !MCSCF expec         <3.1|DMX|3.1>     0.375860263578 au =     0.955278928705 Debye

 !MCSCF expec         <1.1|DMY|1.1>    -0.220204231050 au =    -0.559666669553 Debye
 !MCSCF trans         <2.1|DMY|1.1>    -0.122093232358 au =    -0.310309717495 Debye
 !MCSCF expec         <2.1|DMY|2.1>     0.037422331933 au =     0.095111850394 Debye
 !MCSCF trans         <3.1|DMY|1.1>    -0.018198567555 au =    -0.046253115327 Debye
 !MCSCF trans         <3.1|DMY|2.1>    -0.108789248755 au =    -0.276496578852 Debye
 !MCSCF expec         <3.1|DMY|3.1>     0.354137044233 au =     0.900067628881 Debye

 !MCSCF expec         <1.1|DMZ|1.1>     0.048711503343 au =     0.123804182665 Debye
 !MCSCF trans         <2.1|DMZ|1.1>    -0.005153630935 au =    -0.013098365311 Debye
 !MCSCF expec         <2.1|DMZ|2.1>    -0.001911607828 au =    -0.004858504224 Debye
 !MCSCF trans         <3.1|DMZ|1.1>     0.005423130389 au =     0.013783319734 Debye
 !MCSCF trans         <3.1|DMZ|2.1>    -0.010077860431 au =    -0.025613688515 Debye
 !MCSCF expec         <3.1|DMZ|3.1>    -0.048563967655 au =    -0.123429208912 Debye


 NATURAL ORBITALS (state averaged)
 =================================

  Orbital  Occupation    Energy     Coefficients
    1.1     2.00000   -11.27426     2 1s    0.99628
    2.1     2.00000   -11.23323     1 1s    0.99612
    3.1     2.00000    -1.06125     1 1s    0.30501
    4.1     2.00000    -0.78791     1 1s   -0.26296     2 1s    0.25857     2 1s    0.35746
    5.1     2.00000    -0.62642     1 2py   0.36478
    6.1     2.00000    -0.55736     1 2px   0.26974     2 2py   0.28727
    7.1     2.00000    -0.41979     1 2pz   0.31546     1 2pz   0.27685     2 2pz   0.33630     2 2pz   0.28326
    8.1     1.00000    -0.08868     1 2pz  -0.41274     1 2pz  -0.44495     2 1s   -0.29111     2 2pz   0.39512     2 2pz   0.40984
    9.1     1.00000    -0.23078     1 2px  -0.30688     2 2px   0.30985     4 1s    0.27075     5 1s    0.33175
   10.1    -0.00000     0.20186     1 1s   -0.85346     1 2px   0.34036     1 2pz   0.29171     2 1s   -0.96665     2 2px  -0.50484
                                    2 2py  -0.54628     2 2pz  -0.34937     3 1s    0.44103     4 1s    0.68115     5 1s    1.22320
                                    6 1s    0.41059
   11.1    -0.00000     0.28018     1 1s    1.58489     1 2pz  -0.40221     2 1s   -1.65385     2 2py   0.38985     2 2pz  -0.52960
                                    3 1s   -1.26515     6 1s    1.57965
   12.1    -0.00000     0.30627     1 1s   -1.87005     1 2px   0.49185     1 2py  -0.38149     1 2pz   0.68589     2 1s   -0.38437
                                    2 2py   0.25781     2 2px  -0.39522     2 2py   1.06892     2 2pz  -0.25441     3 1s    1.55734
                                    4 1s    0.95762     5 1s   -0.68209     6 1s    1.34168
   13.1    -0.00000     0.34414     1 1s   -1.33759     1 2py   0.29347     1 2py   1.50801     1 2pz   0.27394     2 1s    0.81715
                                    2 2pz   0.40333     3 1s   -0.91695     4 1s    2.54632     5 1s   -0.71040     6 1s   -0.46878
   14.1    -0.00000     0.42995     1 1s    1.66742     1 2px   1.85809     1 2py  -0.38679     1 2pz  -0.64787     2 1s   -1.91906
                                    2 2px   1.72598     2 2py  -0.56403     2 2pz  -0.75134     3 1s    0.68219     6 1s   -0.57323
   15.1    -0.00000     0.69569     1 1s    0.62832     1 2px   0.44096     1 2py   0.28060     1 2px  -0.57558     1 2py  -0.53386
                                    2 1s   -0.37285     2 2px  -0.53747     2 2px   1.11063     2 2pz  -0.27988     4 1s   -0.34362
                                    5 1s    0.52099
   16.1    -0.00000     0.73798     1 1s   -0.66909     1 2px   0.36033     1 2py  -0.50380     1 2pz  -0.27952     1 2px  -0.88103
                                    1 2py   1.41810     1 2pz   0.54107     2 1s    0.57814     3 1s   -0.44383     4 1s    0.31908
                                    4 1s    0.42187
   17.1    -0.00000     0.78667     1 1s   -0.32629     1 2pz  -0.62206     1 2px   0.25791     1 2py   0.33590     1 2pz   0.70470
                                    2 1s    0.34354     2 2py   0.43226     2 2pz  -0.42392     2 2px   0.42104     2 2py  -0.81043
                                    2 2pz   0.47137     6 1s   -0.39283     6 1s   -0.26154
   18.1    -0.00000     0.81866     1 2pz  -0.26274     1 2py  -0.49020     2 2py  -0.54746     2 2pz  -0.72451     2 2py   0.96790
                                    2 2pz   0.71247     5 1s   -0.30371
   19.1    -0.00000     0.86388     1 1s    0.33625     1 2pz   0.71344     1 2px  -0.42179     1 2py   0.67459     1 2pz  -1.04331
                                    2 1s    0.26473     2 2px  -0.27294     2 2pz  -0.56622     2 2px   0.55280     2 2py  -0.60995
                                    2 2pz   0.93723     3 1s   -0.31224     6 1s   -0.29065
   20.1    -0.00000     0.96917     1 2px   0.48447     1 2px  -0.84596     1 2py  -0.66353     2 2px   0.72023     2 2py   0.65191
                                    2 2px  -1.06830     2 2py  -1.04456     4 1s   -1.08206     5 1s   -0.32673     5 1s    1.37615
   21.1    -0.00000     1.01325     1 2px   0.56104     1 2px  -0.71897     2 1s   -0.72414     2 1s    1.37455     2 2px  -0.25134
                                    4 1s   -0.54611     5 1s    0.98345     5 1s   -1.05695
   22.1    -0.00000     1.14330     1 1s    0.64365     1 2px  -0.33132     1 2py   0.31777     1 2px   0.87762     1 2py  -0.71620
                                    2 1s   -0.43174     2 2px  -0.51856     2 2py   0.50772     2 2px   1.08587     2 2py  -0.86403
                                    3 1s   -0.34895     3 1s    0.94107     4 1s   -0.26910     6 1s    0.83592     6 1s   -1.64745
   23.1    -0.00000     1.19541     1 1s   -0.42311     1 1s    0.73065     1 2px   0.27643     1 2py  -0.63265     1 2py   0.67277
                                    2 1s   -0.36333     3 1s    0.91541     3 1s   -1.30162     4 1s    0.71243     6 1s    0.59923
                                    6 1s   -0.35073
   24.1    -0.00000     1.24341     1 1s    1.33556     1 1s   -2.33094     1 2px   1.12055     1 2py  -0.27100     1 2pz   0.91019
                                    2 1s    1.46594     2 1s   -2.77475     2 2py   0.49316     2 2pz  -0.99617     3 1s    1.18657
                                    4 1s    1.41993     5 1s    0.44694     6 1s    0.26681     6 1s    0.95009
   25.1    -0.00000     1.27634     1 1s   -1.45810     1 1s    5.09168     1 2py  -0.25295     1 2px   1.09825     1 2py  -0.33295
                                    1 2pz  -1.34870     2 1s    1.02093     2 1s   -3.73907     2 2px   1.31730     2 2py  -0.79985
                                    2 2pz  -0.72721     3 1s   -0.39500     3 1s   -0.50679     4 1s   -0.63589     4 1s   -0.56089
                                    5 1s    0.31657
   26.1    -0.00000     1.33199     1 1s    1.03319     1 1s   -2.67373     1 2px  -0.28000     1 2py  -0.57491     1 2pz  -0.26450
                                    1 2px  -0.29986     1 2py   0.99402     1 2pz   0.42343     2 1s   -0.96370     2 1s    2.38167
                                    2 2px  -0.34687     2 2pz   0.80070     3 1s   -0.25655     4 1s   -0.87945     4 1s    1.59873
                                    5 1s   -0.33512     6 1s   -0.45660
   27.1    -0.00000     1.68894     1 1s    0.69328     1 3d0   0.37592     1 3d2- -0.32057     1 3d2+ -0.29379     2 1s   -0.47873
                                    2 3d0  -0.31230     2 3d2-  0.27780     2 3d2+  0.36003
   28.1    -0.00000     1.89945     1 2px   0.30338     1 3d0   0.28569     1 3d1+  0.46492     1 3d2+  0.41401     1 3d1-  0.41142
                                    2 1s    0.40645     2 1s   -1.06142     2 2pz  -0.41012     2 3d0   0.40247     2 3d2+  0.25428
                                    6 1s    0.29078
   29.1    -0.00000     1.94300     1 1s    0.39807     1 1s   -1.62153     1 2pz   0.52463     1 3d2-  0.28337     2 1s    0.77390
                                    2 2px  -0.36213     2 2py   0.30238     2 3d2- -0.26774     2 3d1+  0.52572     2 3d2+  0.27107
                                    2 3d1-  0.52970     3 1s    0.45928     4 1s    0.27669
   30.1    -0.00000     2.14910     1 1s   -0.38745     1 1s    1.52031     1 2px   0.27826     1 2pz  -0.46071     1 3d0  -0.46982
                                    1 3d1+ -0.28340     1 3d2+ -0.25462     2 1s   -1.04171     2 2px   0.28531     2 2py  -0.33227
                                    2 3d0   0.60292     2 3d2+  0.45342     3 1s   -0.36083     4 1s   -0.29041     5 1s    0.35920
   31.1    -0.00000     2.25452     1 1s   -0.43815     1 2px  -0.25086     1 3d1+ -0.33662     1 3d2+  0.44351     1 3d1-  0.26306
                                    2 1s   -0.56598     2 1s    0.67971     2 2px   0.25493     2 2px  -0.42770     2 2py   0.28195
                                    2 3d0  -0.33695     2 3d2- -0.33653     2 3d1+ -0.37057     2 3d2+  0.30585
   32.1    -0.00000     2.34012     1 1s    0.91741     1 2px   0.33268     1 2py  -0.39674     1 3d0  -0.55037     2 1s   -0.82264
                                    2 2pz  -0.36040     2 3d0  -0.29322     2 3d2-  0.61614     2 3d1-  0.50133     4 1s   -0.45325
                                    6 1s    0.57604
   33.1    -0.00000     2.55586     1 3d0   0.30493     1 3d2- -0.66429     1 3d2+ -0.26308     2 2py   0.31285     2 3d1+ -0.27892
                                    2 3d2+ -0.38123     2 3d1-  0.66122     3 1s   -0.35902     5 1s   -0.28693     6 1s    0.35051
   34.1    -0.00000     2.68234     1 1s   -0.75063     1 2py   0.36873     1 3d0   0.38788     1 3d2-  0.37971     1 3d2+  0.30235
                                    1 3d1- -0.53450     2 1s    0.31718     2 2px  -0.32501     2 3d2-  0.63733     2 3d1+ -0.46064
                                    2 3d2+  0.30506     4 1s    0.54070     6 1s    0.41470
   35.1    -0.00000     2.76603     1 1s    0.85117     1 2px   0.34529     1 2py  -0.49977     1 2pz  -0.33811     1 3d2-  0.46326
                                    1 3d1+ -0.54214     1 3d1-  0.79101     2 1s   -0.67205     2 2px   0.31451     2 3d0   0.38508
                                    2 3d2+ -0.33568     3 1s    0.58306     4 1s   -0.74335
   36.1    -0.00000     2.97320     1 1s    1.52425     1 2px   0.43986     1 2px   0.84387     1 2pz  -0.34851     1 3d2- -0.41237
                                    1 3d1+ -0.64501     1 3d2+  0.76082     2 1s   -1.64656     2 2px   0.39297     2 2px   0.81573
                                    2 2py  -0.27664     2 2pz  -0.45170     2 3d2-  0.33969     2 3d1+  0.69873     2 3d2+ -0.53643
                                    4 1s    0.41960


 Natural orbital dump (state averaged) at molpro section  2140.2    (Orbital set 2)



 **********************************************************************************************************************************
 DATASETS  * FILE   NREC   LENGTH (MB)   RECORD NAMES
              1      20       31.86       500      610      700      900      950      970     1000      129      960     1100   
                                          VAR    BASINP    GEOM    SYMINP    ZMAT    AOBASIS   BASIS     P2S    ABASIS      S 
                                         1400     1410     1200     1210     1080     1600     1650     1300     1700     1380   
                                           T        V       H0       H01     AOSYM     SMH    MOLCAS    ERIS     OPER     JKOP   

              2       5        5.42       700     1000      520     2100     2140   
                                         GEOM     BASIS   MCVARS     RHF     MCSCF   

 PROGRAMS   *        TOTAL     MULTI    HF-SCF       INT
 CPU TIMES  *         0.85      0.45      0.10      0.19
 REAL TIME  *         1.19 SEC
 DISK USED  *        39.04 MB
 **********************************************************************************************************************************
 Molecular orbitals read from record     2140.2  Type=MCSCF/NATURAL (state averaged)
 Occupation numbers read from record     2140.2  Type=MCSCF/NATURAL (state averaged)
 Orbital energies read from record       2140.2  Type=MCSCF/NATURAL (state averaged)
 Redundancy group numbers read from rec  2140.2  Type=MCSCF/NATURAL (state averaged)

 MULTI/6-31G* energy=    -77.521203064000

           MULTI          HF-SCF
    -77.52120306    -77.81407725
 **********************************************************************************************************************************
 Molpro calculation terminated
