
 Primary working directories    : /scratch.local/johan406.molpro_temp/molpro.mmPUuOrauC
 Secondary working directories  : /scratch.local/johan406.molpro_temp/molpro.mmPUuOrauC
 Wavefunction directory         : /home/goodpast/johan406/wfu/
 Main file repository           : /scratch.local/johan406.molpro_temp/molpro.mmPUuOrauC/

 id        : roweumn

 Nodes     nprocs
 acn09        1

 Using customized tuning parameters: mindgm=1; mindgv=20; mindgc=4; mindgr=1; noblas=0; minvec=7
 default implementation of scratch files=df  


 Variables initialized (934), CPU time= 0.00 sec
                                                                                 !leave this line blank
 
 gprint, orbitals=30
 memory, 125., m
 symmetry, nosym
 nelect=16
 basis=6-31g*
 
 geometry={
 C -0.6343 0.1181 0.2947
 C 0.6275 -0.2072 -0.3629
 H -1.2632 0.869 -0.1354
 H -0.872 -0.6075 -0.1022
 H 1.0613 1.0711 0.1123
 H 1.2799 -0.9738 0.1141
 }
 
 hf
 {multi,
 closed 7
 occ 9
 wf,spin=0;STATE,3
 }
 
 Commands  initialized (763), CPU time= 0.01 sec, 617 directives.
 Default parameters read. Elapsed time= 0.07 sec

 Checking input...
 Passed
1


                                         ***  PROGRAM SYSTEM MOLPRO  ***
                                       Copyright, TTI GmbH Stuttgart, 2015
                                    Version 2019.2 linked Oct 25 2019 22:50:27


 **********************************************************************************************************************************
 LABEL *                                                                                 
  64 bit serial version                                                                  DATE: 07-Feb-23          TIME: 15:51:30  
 **********************************************************************************************************************************

 SHA1:             8dbd9ae1082e4ce945b0f27595c9eb2d4aa09004
 **********************************************************************************************************************************


 Variable memory set to  125000000 words,  buffer space 

 SETTING NELECT         =        16.00000000                                  
 SETTING BASIS          =    6-31G*
 ZSYMEL=NOSYM


Geometry recognized as XYZ



 Recomputing integrals since basis changed


 Using spherical harmonics

 Library entry C      S 6-31G                selected for orbital group  1
 Library entry C      P 6-31G                selected for orbital group  1
 Library entry C      D 6-31G*               selected for orbital group  1
 Library entry H      S 6-31G                selected for orbital group  2


 PROGRAM * SEWARD (Integral evaluation for generally contracted gaussian basis sets)     Author: Roland Lindh, 1990

 Geometry written to block  1 of record 700


 Point group  C1  



 ATOMIC COORDINATES

 NR  ATOM    CHARGE       X              Y              Z

   1  C       6.00   -1.198653281    0.223176655    0.556902289
   2  C       6.00    1.185803143   -0.391551253   -0.685781611
   3  H       1.00   -2.387102041    1.642172002   -0.255868917
   4  H       1.00   -1.647841181   -1.148008621   -0.193130010
   5  H       1.00    2.005566336    2.024085652    0.212216244
   6  H       1.00    2.418660467   -1.840215300    0.215617751

 Bond lengths in Bohr (Angstrom)

 1-2  2.758221549  1-3  2.021523011  1-4  1.626181810  2-5  2.704387823  2-6  2.105014373
     ( 1.459587986)     ( 1.069743909)     ( 0.860538355)     ( 1.431100405)     ( 1.113925635)

 Bond angles

  1-2-5   85.03025216   1-2-6  117.82441948   2-1-3  118.91634802   2-1-4   80.97124155

  3-1-4  104.12539124   5-2-6  107.15724130

 NUCLEAR CHARGE:                   16
 NUMBER OF PRIMITIVE AOS:          72
 NUMBER OF SYMMETRY AOS:           70
 NUMBER OF CONTRACTIONS:           36   (   36A   )
 NUMBER OF CORE ORBITALS:           2   (    2A   )
 NUMBER OF VALENCE ORBITALS:       12   (   12A   )


 NUCLEAR REPULSION ENERGY   32.75313288

 Eigenvalues of metric

         1 0.823E-02 0.223E-01 0.469E-01 0.609E-01 0.112E+00 0.166E+00 0.229E+00 0.267E+00


 Contracted 2-electron integrals neglected if value below      1.0D-11
 AO integral compression algorithm  1   Integral accuracy      1.0D-11

     1.573 MB (compressed) written to integral file ( 59.2%)


 NUMBER OF SORTED TWO-ELECTRON INTEGRALS:     222111.     BUFFER LENGTH:  32768
 NUMBER OF SEGMENTS:   1  SEGMENT LENGTH:     222111      RECORD LENGTH: 524288

 Memory used in sort:       0.78 MW

 SORT1 READ      284735. AND WROTE      212531. INTEGRALS IN      1 RECORDS. CPU TIME:     0.00 SEC, REAL TIME:     0.01 SEC
 SORT2 READ      212531. AND WROTE      222111. INTEGRALS IN      6 RECORDS. CPU TIME:     0.02 SEC, REAL TIME:     0.03 SEC

 FILE SIZES:   FILE 1:    31.7 MBYTE,  FILE 4:     4.2 MBYTE,   TOTAL:     35.9 MBYTE

 OPERATOR DM      FOR CENTER  0  COORDINATES:    0.000000    0.000000    0.000000


 **********************************************************************************************************************************
 DATASETS  * FILE   NREC   LENGTH (MB)   RECORD NAMES
              1      19       31.13       500      610      700      900      950      970     1000      129      960     1100   
                                          VAR    BASINP    GEOM    SYMINP    ZMAT    AOBASIS   BASIS     P2S    ABASIS      S 
                                         1400     1410     1200     1210     1080     1600     1650     1300     1700   
                                           T        V       H0       H01     AOSYM     SMH    MOLCAS    ERIS     OPER   

 PROGRAMS   *        TOTAL       INT
 CPU TIMES  *         0.29      0.18
 REAL TIME  *         0.47 SEC
 DISK USED  *        36.24 MB
 **********************************************************************************************************************************


 PROGRAM * RHF-SCF (CLOSED SHELL)       Authors: W. Meyer, H.-J. Werner


 NUMBER OF ELECTRONS:       8+    8-    SPACE SYMMETRY=1    SPIN SYMMETRY: Singlet 
 CONVERGENCE THRESHOLDS:    1.00E-05 (Density)    1.00E-07 (Energy)
 MAX. NUMBER OF ITERATIONS:       60
 INTERPOLATION TYPE:            DIIS
 INTERPOLATION STEPS:              2 (START)      1 (STEP)
 LEVEL SHIFTS:                  0.00 (CLOSED)  0.00 (OPEN) 



 Orbital guess generated from atomic densities. Full valence occupancy:    8

 Molecular orbital dump at record        2100.2

 Initial occupancy:   8

 ITERATION    DDIFF          GRAD             ENERGY        2-EL.EN.            DIPOLE MOMENTS         DIIS   ORB.
    1      0.000D+00      0.000D+00       -77.71405446    116.610114    0.36682   -0.07315   -0.30204    0    start
    2      0.000D+00      0.981D-02       -77.73868559    115.343258   -0.27010   -0.04885    0.31288    1    diag
    3      0.120D-01      0.609D-02       -77.74718499    115.555023   -0.05430   -0.21416   -0.04150    2    diag
    4      0.518D-02      0.179D-02       -77.74869066    115.692722   -0.16344   -0.19218    0.06655    3    diag
    5      0.252D-02      0.699D-03       -77.74899042    115.596806   -0.17910   -0.21891    0.05304    4    diag
    6      0.114D-02      0.283D-03       -77.74911768    115.604302   -0.19916   -0.22668    0.05821    5    diag
    7      0.947D-03      0.114D-03       -77.74914724    115.603650   -0.20395   -0.22779    0.05905    6    diag
    8      0.434D-03      0.502D-04       -77.74915421    115.604944   -0.20468   -0.22786    0.05890    7    diag
    9      0.235D-03      0.217D-04       -77.74915533    115.605533   -0.20422   -0.22760    0.05859    8    diag
   10      0.107D-03      0.676D-05       -77.74915540    115.605705   -0.20404   -0.22764    0.05838    9    orth
   11      0.278D-04      0.192D-05       -77.74915540    115.605711   -0.20400   -0.22765    0.05834    9    diag
   12      0.545D-05      0.507D-06       -77.74915540    115.605724   -0.20400   -0.22764    0.05835    0    orth

 Final occupancy:   8

 !RHF STATE  1.1 Energy               -77.749155401829
 Nuclear energy                        32.75313288
 One-electron energy                 -168.30515004
 Two-electron energy                   57.80286176
 Virial quotient                       -0.99651152
 !RHF STATE  1.1 Dipole moment         -0.20399890    -0.22764447     0.05834624
 Dipole moment /Debye                  -0.51847952    -0.57857663     0.14829162

 ELECTRON ORBITALS
 =================

  Orbital  Occupation    Energy     Coefficients
    1.1     2.00000   -11.29194     2 1s    0.99638
    2.1     2.00000   -11.23210     1 1s    0.99612
    3.1     2.00000    -1.06851     1 1s    0.32362
    4.1     2.00000    -0.79399     2 1s    0.28160     2 1s    0.35123
    5.1     2.00000    -0.63303     1 2py   0.42202
    6.1     2.00000    -0.55969     1 2px   0.33390     2 2px  -0.29812     2 2py   0.26637
    7.1     2.00000    -0.39860     1 2pz   0.26692     2 2pz   0.32797     2 2pz   0.27204
    8.1     2.00000    -0.37186     2 2px   0.27722     5 1s    0.35724
    9.1     0.00000     0.05577     1 1s   -0.26820     1 2pz  -0.34389     1 2pz  -0.50703     2 1s   -0.47379     2 2pz   0.32044
                                    2 2pz   0.41374
   10.1     0.00000     0.19803     1 1s   -0.93545     1 2pz   0.37329     2 1s   -0.63844     2 2py  -0.25370     2 2px  -0.51378
                                    2 2py  -0.52949     2 2pz  -0.30955     3 1s    0.42026     4 1s    0.68083     5 1s    1.09197
                                    6 1s    0.29368
   11.1     0.00000     0.27832     1 1s   -1.31812     1 2pz   0.28050     2 1s    1.68155     2 2py  -0.45160     2 2pz   0.59952
                                    3 1s    1.07296     6 1s   -1.71252
   12.1     0.00000     0.30191     1 1s   -2.00283     1 2px   0.50300     1 2py  -0.57899     1 2pz   0.74401     2 1s   -0.36931
                                    2 2px  -0.42033     2 2py   0.93639     2 2pz  -0.28796     3 1s    1.82891     4 1s    0.79259
                                    5 1s   -0.46980     6 1s    1.18652
   13.1     0.00000     0.36816     1 1s   -2.20851     1 2py   0.25260     1 2py   1.57730     1 2pz   0.48655     2 1s    0.65856
                                    2 2pz   0.38943     3 1s   -0.68990     4 1s    3.27418     5 1s   -0.61186     6 1s   -0.32416
   14.1     0.00000     0.42143     1 1s    1.53974     1 2px   1.89844     1 2py  -0.35014     1 2pz  -0.61019     2 1s   -1.95455
                                    2 2px   1.67131     2 2py  -0.61984     2 2pz  -0.78898     3 1s    0.72242     6 1s   -0.54101
   15.1     0.00000     0.68760     1 1s   -1.19723     1 2px  -0.30723     1 2py  -0.43594     1 2py   1.13140     1 2pz   0.53678
                                    2 1s    0.61957     2 2px   0.43645     2 2px  -1.09469     2 2pz   0.31714     4 1s    0.41738
                                    5 1s   -0.39553
   16.1     0.00000     0.72261     1 1s    0.49703     1 2px  -0.48269     1 2py   0.36442     1 2pz   0.33900     1 2px   0.95134
                                    1 2py  -1.21864     1 2pz  -0.50219     2 1s   -0.45904     2 2px   0.33736     2 2px  -0.40599
                                    2 2py   0.27381     3 1s    0.33992     3 1s    0.25107     4 1s   -0.60285
   17.1     0.00000     0.78577     1 1s   -0.27408     1 2pz  -0.63444     1 2px   0.37038     1 2pz   0.66788     2 2py   0.33461
                                    2 2pz  -0.48778     2 2px   0.44341     2 2py  -0.62123     2 2pz   0.50906     3 1s    0.29770
                                    4 1s    0.27030     6 1s   -0.39706
   18.1     0.00000     0.82868     1 2px   0.36428     1 2px  -0.27708     1 2py  -0.40398     2 1s    0.28831     2 1s   -0.50385
                                    2 2py  -0.60044     2 2pz  -0.74250     2 2py   0.91487     2 2pz   0.61319     6 1s    0.27733
   19.1     0.00000     0.86518     1 1s    0.38724     1 1s   -0.35528     1 2py  -0.25147     1 2pz   0.74016     1 2px  -0.31676
                                    1 2py   0.77961     1 2pz  -0.94085     2 1s    0.27413     2 2px  -0.27255     2 2py   0.35092
                                    2 2pz  -0.51578     2 2px   0.52522     2 2py  -0.76869     2 2pz   0.87004     3 1s   -0.29130
                                    4 1s    0.35145     6 1s   -0.28584
   20.1     0.00000     0.95465     1 1s   -0.27618     1 2px  -0.51420     1 2px   0.93531     1 2py   0.67538     2 2px  -0.72318
                                    2 2py  -0.62265     2 2px   1.10535     2 2py   0.98039     4 1s    1.36673     5 1s    0.28679
                                    5 1s   -1.22158
   21.1     0.00000     1.03296     1 2px   0.50346     1 2px  -0.86099     2 1s   -0.87655     2 1s    1.94063     2 2px  -0.37722
                                    2 2pz   0.33025     4 1s   -0.49002     5 1s    0.99677     5 1s   -1.15752
   22.1     0.00000     1.13004     1 1s    0.71744     1 2px  -0.26989     1 2px   0.78097     1 2py  -0.59232     2 1s   -0.50328
                                    2 1s    0.40772     2 2px  -0.50549     2 2py   0.53126     2 2px   1.04971     2 2py  -0.85512
                                    3 1s    0.73503     6 1s    0.90233     6 1s   -1.71746
   23.1     0.00000     1.19667     1 1s   -0.68850     1 1s    1.26215     1 2px   0.32347     1 2py  -0.63868     1 2py   0.72757
                                    2 1s   -0.55540     3 1s    0.93649     3 1s   -1.55882     4 1s    0.54830     6 1s    0.45410
   24.1     0.00000     1.26066     1 1s   -1.50279     1 1s    3.70103     1 2px  -0.85161     1 2pz  -1.30777     2 1s   -1.20733
                                    2 1s    1.78722     2 2px   0.41322     2 2py  -0.69733     2 2pz   0.83340     3 1s   -0.33002
                                    3 1s   -1.14337     4 1s   -1.86560     5 1s   -0.39041     6 1s   -0.36187     6 1s   -0.83337
   25.1     0.00000     1.29540     1 1s    1.25606     1 1s   -4.97662     1 2px  -1.29309     1 2py   0.62316     1 2pz   1.17136
                                    2 1s   -1.42898     2 1s    4.38271     2 2px  -1.24844     2 2py   0.71177     2 2pz   1.06081
                                    3 1s    0.31988     4 1s    0.36738     4 1s    0.86833     5 1s   -0.56728     6 1s   -0.45161
   26.1     0.00000     1.49181     1 1s   -1.00554     1 1s    2.28300     1 2px   0.29946     1 2py   0.67107     1 2pz   0.35546
                                    1 2py  -0.94874     1 2pz  -0.42523     2 1s    0.43302     2 1s   -1.01782     2 2pz  -0.41675
                                    4 1s    0.97291     4 1s   -1.90788
   27.1     0.00000     1.69172     1 1s    0.54809     1 3d0   0.42049     1 3d2- -0.33062     1 3d2+ -0.25204     2 1s   -0.29776
                                    2 3d0  -0.29548     2 3d2+  0.38131
   28.1     0.00000     1.87926     1 2px   0.28048     1 3d0   0.29089     1 3d1+  0.47129     1 3d2+  0.42376     1 3d1-  0.38832
                                    2 1s    0.39293     2 1s   -1.00462     2 2pz  -0.37328     2 3d0   0.42455     6 1s    0.25471
   29.1     0.00000     1.94885     1 1s    0.37408     1 1s   -1.68102     1 2pz   0.56384     1 3d2-  0.30032     2 1s    0.62399
                                    2 2px  -0.35281     2 2py   0.32352     2 3d1+  0.53690     2 3d1-  0.56142     3 1s    0.50020
                                    4 1s    0.28286     4 1s    0.32707
   30.1     0.00000     2.11886     1 1s   -0.32888     1 1s    1.34568     1 2pz  -0.42161     1 3d0  -0.44426     1 3d1+ -0.29823
                                    1 3d2+ -0.25804     2 1s   -0.74416     2 2py  -0.31500     2 3d0   0.60816     2 3d2+  0.46586
                                    3 1s   -0.32476     4 1s   -0.32975     5 1s    0.31143
   31.1     0.00000     2.25802     1 1s   -0.49845     1 2px   0.25450     1 2py  -0.36309     1 3d1+ -0.30623     1 3d2+  0.42625
                                    1 3d1-  0.32659     2 1s   -0.53263     2 1s    0.44926     2 2px   0.25072     2 2px  -0.41387
                                    2 2py   0.30425     2 3d0  -0.35286     2 3d1+ -0.32695     2 3d2+  0.31699     2 3d1-  0.28737
                                    3 1s    0.25090     4 1s   -0.37645
   32.1     0.00000     2.34548     1 1s    1.16361     1 2px   0.32261     1 2py  -0.31247     1 3d0  -0.46808     2 1s   -1.09017
                                    2 2pz  -0.42054     2 3d2-  0.71408     2 3d1-  0.49120     3 1s   -0.27623     4 1s   -0.47290
                                    6 1s    0.62422
   33.1     0.00000     2.54526     1 3d0   0.34490     1 3d2- -0.62534     1 3d2+ -0.30369     2 2py   0.26072     2 3d0   0.29354
                                    2 3d1+ -0.30080     2 3d2+ -0.41534     2 3d1-  0.60083     3 1s   -0.28385     6 1s    0.29747
   34.1     0.00000     2.69169     1 1s   -0.61373     1 3d0   0.42995     1 3d2-  0.53998     1 3d1+ -0.38727     1 3d1- -0.25188
                                    2 2px  -0.25751     2 3d0   0.30256     2 3d2-  0.59818     2 3d1+ -0.51779     3 1s    0.37533
                                    4 1s    0.34025     6 1s    0.41191
   35.1     0.00000     2.84187     1 1s    1.65063     1 2py  -0.41920     1 2pz  -0.28808     1 2px   0.65669     1 2py  -0.59069
                                    1 2pz  -0.51969     1 3d1+ -0.56601     1 3d1-  0.89071     2 1s   -1.36253     2 2px   0.31716
                                    2 2px   0.68172     2 2pz  -0.29934     2 3d0   0.29967     2 3d1+  0.31298     2 3d2+ -0.52296
                                    3 1s    0.44650     4 1s   -0.97385
   36.1     0.00000     3.02408     1 1s    0.91337     1 2px   0.42941     1 2py   0.25084     1 2px   0.65198     1 3d2- -0.51546
                                    1 3d1+ -0.52600     1 3d2+  0.85164     1 3d1- -0.46157     2 1s   -1.20904     2 2px   0.30347
                                    2 2px   0.59571     2 2pz  -0.36117     2 3d2-  0.31169     2 3d1+  0.59452     2 3d2+ -0.37980
                                    4 1s    0.99853


 HOMO      8.1    -0.371859 =     -10.1188eV
 LUMO      9.1     0.055767 =       1.5175eV
 LUMO-HOMO         0.427626 =      11.6363eV


 **********************************************************************************************************************************
 DATASETS  * FILE   NREC   LENGTH (MB)   RECORD NAMES
              1      19       31.13       500      610      700      900      950      970     1000      129      960     1100   
                                          VAR    BASINP    GEOM    SYMINP    ZMAT    AOBASIS   BASIS     P2S    ABASIS      S 
                                         1400     1410     1200     1210     1080     1600     1650     1300     1700   
                                           T        V       H0       H01     AOSYM     SMH    MOLCAS    ERIS     OPER   

              2       4        2.86       700     1000      520     2100   
                                         GEOM     BASIS   MCVARS     RHF  

 PROGRAMS   *        TOTAL    HF-SCF       INT
 CPU TIMES  *         0.40      0.11      0.18
 REAL TIME  *         0.68 SEC
 DISK USED  *        36.24 MB
 **********************************************************************************************************************************


 PROGRAM * MULTI (Direct Multiconfiguration SCF)       Authors: P.J. Knowles, H.-J. Werner (1984)


 Number of closed-shell orbitals:   7 (   7 )
 Number of active  orbitals:        2 (   2 )
 Number of external orbitals:      27 (  27 )

 State symmetry 1

 Number of electrons:     2    Spin symmetry=Singlet   Space symmetry=1
 Number of states:        3
 Number of CSFs:          3   (4 determinants, 4 intermediate states)

 Molecular orbitals read from record     2100.2  Type=RHF/CANONICAL (state 1.1)

 Wavefunction dump at record             2140.2

 Convergence thresholds  0.10E-01 (gradient)  0.10E-05 (energy)  0.10E-02 (step length)

 Weight factors for state symmetry  1:    0.33333   0.33333   0.33333

 Number of orbital rotations:      257   (    14 Core/Active    189 Core/Virtual   0 Active/Active     54 Active/Virtual)
 Total number of variables:        269

 Micro-Iterations solved by the two-step solver

 ITER. MIC  NCI  NEG     ENERGY(VAR)     ENERGY(PROJ)   ENERGY CHANGE     GRAD(0)  GRAD(ORB)   GRAD(CI)     STEP       TIME

   1   10    6    0     -77.58728283     -77.61714723   -0.02986440    0.16175062 0.00068666 0.00000000  0.21D+00      0.17
   2    7    5    0     -77.61660620     -77.61684827   -0.00024207    0.02441155 0.00003068 0.00000000  0.13D-01      0.27
   3    7    5    0     -77.61684917     -77.61684918   -0.00000001    0.00013543 0.00000000 0.00000000  0.16D-03      0.37
   4    4    3    0     -77.61684918     -77.61684918   -0.00000000    0.00000001 0.00000000 0.00000000  0.21D-07      0.43

 ** WVFN ****  CONVERGENCE REACHED, FINAL GRADIENT:  0.81D-13



 Results for state 1.1
 =====================

 !MCSCF STATE  1.1 Energy             -77.742453762599
 Nuclear energy                        32.75313288
 Kinetic energy                        78.05158071
 One electron energy                 -168.32468594
 Two electron energy                   57.82909930
 Virial ratio                           1.99603945

 !MCSCF STATE  1.1 Dipole moment       -0.28960182    -0.36163956     0.06863576
 Dipole moment /Debye                  -0.73604619    -0.91913587     0.17444328

 Results for state 2.1
 =====================

 !MCSCF STATE  2.1 Energy             -77.646365617146
 Nuclear energy                        32.75313288
 Kinetic energy                        78.14213167
 One electron energy                 -168.10261287
 Two electron energy                   57.70311438
 Virial ratio                           1.99365559

 !MCSCF STATE  2.1 Dipole moment        0.07129924     0.05026112    -0.00537061
 Dipole moment /Debye                   0.18121273     0.12774265    -0.01364984

 Results for state 3.1
 =====================

 !MCSCF STATE  3.1 Energy             -77.461728150033
 Nuclear energy                        32.75313288
 Kinetic energy                        78.21863700
 One electron energy                 -167.98299792
 Two electron energy                   57.76813690
 Virial ratio                           1.99032316

 !MCSCF STATE  3.1 Dipole moment        0.60250203     0.57706804    -0.07459175
 Dipole moment /Debye                   1.53130712     1.46666460    -0.18958091

 State-averaged charge density matrix saved on record  2140.2 (density set 1)

 !MCSCF expec         <1.1|DMX|1.1>    -0.289601816947 au =    -0.736046185917 Debye
 !MCSCF trans         <2.1|DMX|1.1>    -0.277194172103 au =    -0.704511163933 Debye
 !MCSCF expec         <2.1|DMX|2.1>     0.071299242772 au =     0.181212729444 Debye
 !MCSCF trans         <3.1|DMX|1.1>    -0.017517112311 au =    -0.044521142308 Debye
 !MCSCF trans         <3.1|DMX|2.1>    -0.257472864549 au =    -0.654387883081 Debye
 !MCSCF expec         <3.1|DMX|3.1>     0.602502032604 au =     1.531307116025 Debye

 !MCSCF expec         <1.1|DMY|1.1>    -0.361639558294 au =    -0.919135868570 Debye
 !MCSCF trans         <2.1|DMY|1.1>    -0.196443365023 au =    -0.499276527675 Debye
 !MCSCF expec         <2.1|DMY|2.1>     0.050261115622 au =     0.127742646241 Debye
 !MCSCF trans         <3.1|DMY|1.1>    -0.029204515149 au =    -0.074225611613 Debye
 !MCSCF trans         <3.1|DMY|2.1>    -0.165229960065 au =    -0.419945161902 Debye
 !MCSCF expec         <3.1|DMY|3.1>     0.577068043038 au =     1.466664596823 Debye

 !MCSCF expec         <1.1|DMZ|1.1>     0.068635760051 au =     0.174443275030 Debye
 !MCSCF trans         <2.1|DMZ|1.1>    -0.003084267666 au =    -0.007838913016 Debye
 !MCSCF expec         <2.1|DMZ|2.1>    -0.005370611228 au =    -0.013649838086 Debye
 !MCSCF trans         <3.1|DMZ|1.1>     0.008195374723 au =     0.020829200488 Debye
 !MCSCF trans         <3.1|DMZ|2.1>    -0.011478390842 au =    -0.029173248595 Debye
 !MCSCF expec         <3.1|DMZ|3.1>    -0.074591754953 au =    -0.189580912555 Debye


 NATURAL ORBITALS (state averaged)
 =================================

  Orbital  Occupation    Energy     Coefficients
    1.1     2.00000   -11.28539     2 1s    0.99634
    2.1     2.00000   -11.22219     1 1s    0.99608
    3.1     2.00000    -1.07854     1 1s    0.31915
    4.1     2.00000    -0.79156     2 1s    0.27583     2 1s    0.37385
    5.1     2.00000    -0.62793     1 2py   0.39126
    6.1     2.00000    -0.55389     1 2px   0.27568     2 2py   0.30323
    7.1     2.00000    -0.42051     1 2pz   0.31147     1 2pz   0.27357     2 2pz   0.34305     2 2pz   0.28414
    8.1     1.00000    -0.09156     1 2pz  -0.41723     1 2pz  -0.45113     2 1s   -0.30384     2 2pz   0.38907     2 2pz   0.39626
    9.1     1.00000    -0.23052     1 2px  -0.30281     2 2px   0.30782     4 1s    0.26885     5 1s    0.35793
   10.1    -0.00000     0.18180     1 1s   -0.72928     1 2px   0.27593     1 2pz   0.25632     2 1s   -0.78371     2 2py  -0.27057
                                    2 2px  -0.48369     2 2py  -0.56816     2 2pz  -0.30720     3 1s    0.36792     4 1s    0.53606
                                    5 1s    1.12774     6 1s    0.31703
   11.1    -0.00000     0.27855     1 1s   -1.48226     1 2pz   0.33738     2 1s    1.66578     2 2py  -0.43701     2 2pz   0.56499
                                    3 1s    1.12706     6 1s   -1.66574
   12.1    -0.00000     0.30385     1 1s   -2.20333     1 2px   0.48433     1 2py  -0.41992     1 2pz   0.75308     2 1s   -0.39686
                                    2 2px  -0.45482     2 2py   0.96395     3 1s    1.71567     4 1s    1.09167     5 1s   -0.46804
                                    6 1s    1.25471
   13.1    -0.00000     0.36210     1 1s   -2.05905     1 2py   0.27687     1 2py   1.64699     1 2pz   0.45739     2 1s    0.73833
                                    2 2pz   0.41465     3 1s   -0.92334     4 1s    3.17898     5 1s   -0.55858     6 1s   -0.32961
   14.1    -0.00000     0.43073     1 1s    1.32897     1 2px   1.89335     1 2pz  -0.54328     2 1s   -1.88017     2 2px   0.25618
                                    2 2px   1.68183     2 2py  -0.55769     2 2pz  -0.73612     3 1s    0.69111     4 1s    0.50475
                                    6 1s   -0.54881
   15.1    -0.00000     0.68642     1 1s   -1.21980     1 2px  -0.31725     1 2py  -0.40692     1 2px   0.25355     1 2py   1.06645
                                    1 2pz   0.53782     2 1s    0.67284     2 2px   0.45101     2 2px  -1.13180     2 2pz   0.33409
                                    4 1s    0.41684     5 1s   -0.45699
   16.1    -0.00000     0.72690     1 1s    0.69004     1 2px  -0.45062     1 2py   0.36594     1 2pz   0.33136     1 2px   0.96336
                                    1 2py  -1.27091     1 2pz  -0.59452     2 1s   -0.50300     2 2px   0.30769     2 2px  -0.27846
                                    2 2py   0.25028     3 1s    0.35183     4 1s   -0.66928
   17.1    -0.00000     0.78653     1 1s   -0.42127     1 2pz  -0.59786     1 2px   0.32538     1 2pz   0.67454     2 1s    0.26946
                                    2 2py   0.35506     2 2pz  -0.51024     2 2px   0.42898     2 2py  -0.64739     2 2pz   0.56794
                                    3 1s    0.28797     4 1s    0.31306     6 1s   -0.40116
   18.1    -0.00000     0.83032     1 2px   0.36740     1 2px  -0.34614     1 2py  -0.34940     2 1s   -0.31504     2 2py  -0.57523
                                    2 2pz  -0.74732     2 2py   0.89241     2 2pz   0.73404     6 1s    0.27872
   19.1    -0.00000     0.86661     1 1s    0.34759     1 2py  -0.27452     1 2pz   0.73879     1 2px  -0.33225     1 2py   0.82351
                                    1 2pz  -1.01616     2 2px  -0.28649     2 2py   0.34236     2 2pz  -0.44544     2 2px   0.56898
                                    2 2py  -0.77004     2 2pz   0.84389     3 1s   -0.35231     4 1s    0.30867     6 1s   -0.31170
   20.1    -0.00000     0.94413     1 1s   -0.28850     1 2px  -0.26959     1 2px   0.53335     1 2py   0.61620     2 1s   -0.42082
                                    2 1s    0.66196     2 2px  -0.61072     2 2py  -0.63767     2 2px   0.88107     2 2py   0.96642
                                    4 1s    1.03837     5 1s    0.65858     5 1s   -1.55412
   21.1    -0.00000     0.99912     1 2px   0.65414     1 2px  -0.98030     1 2py  -0.26113     2 1s   -0.65075     2 1s    1.45090
                                    2 2px   0.41972     2 2px  -0.63963     2 2py  -0.27106     4 1s   -0.92189     5 1s    0.84436
                                    5 1s   -0.58230
   22.1    -0.00000     1.13522     1 1s    0.76002     1 2px  -0.31892     1 2px   0.87848     1 2py  -0.61215     2 1s   -0.42864
                                    2 2px  -0.52276     2 2py   0.52687     2 2px   1.09234     2 2py  -0.85316     3 1s    0.77386
                                    6 1s    0.89568     6 1s   -1.68363
   23.1    -0.00000     1.20379     1 1s   -0.61664     1 1s    1.05713     1 2px   0.32293     1 2py  -0.63044     1 2py   0.71682
                                    2 1s   -0.58089     3 1s    0.95188     3 1s   -1.48650     4 1s    0.62933     6 1s    0.48137
   24.1    -0.00000     1.25257     1 1s   -1.18230     1 1s    2.43112     1 2px  -1.19958     1 2py   0.26072     1 2pz  -0.97111
                                    2 1s   -1.57832     2 1s    2.91535     2 2py  -0.53111     2 2pz   1.06213     3 1s   -1.14063
                                    4 1s   -1.62093     5 1s   -0.44978     6 1s   -0.30414     6 1s   -0.96000
   25.1    -0.00000     1.28757     1 1s    1.60314     1 1s   -5.75582     1 2px  -1.07494     1 2py   0.57817     1 2pz   1.43902
                                    2 1s   -1.15032     2 1s    3.93268     2 2px  -1.32565     2 2py   0.83283     2 2pz   0.84763
                                    3 1s    0.37723     3 1s    0.47370     4 1s    0.38772     4 1s    1.26091     5 1s   -0.40861
                                    6 1s   -0.27020
   26.1    -0.00000     1.47933     1 1s   -1.00092     1 1s    2.23230     1 2px   0.31273     1 2py   0.69282     1 2pz   0.34188
                                    1 2py  -0.95479     1 2pz  -0.39898     2 1s    0.41856     2 1s   -0.97301     2 2pz  -0.40805
                                    4 1s    0.99288     4 1s   -1.90656
   27.1    -0.00000     1.68964     1 1s    0.61198     1 3d0   0.40931     1 3d2- -0.33224     1 3d2+ -0.25609     2 1s   -0.32445
                                    2 3d0  -0.29019     2 3d2-  0.25147     2 3d2+  0.38497
   28.1    -0.00000     1.88044     1 2px   0.27198     1 3d0   0.27967     1 3d1+  0.46489     1 3d2+  0.42087     1 3d1-  0.38495
                                    2 1s    0.37842     2 1s   -0.97250     2 2pz  -0.36058     2 3d0   0.43659     2 3d2+  0.25281
                                    6 1s    0.25407
   29.1    -0.00000     1.94730     1 1s    0.36510     1 1s   -1.64660     1 2pz   0.55360     1 3d2-  0.29220     2 1s    0.60102
                                    2 2px  -0.34601     2 2py   0.32576     2 3d1+  0.53756     2 3d1-  0.56175     3 1s    0.49828
                                    4 1s    0.27258     4 1s    0.33149
   30.1    -0.00000     2.11782     1 1s   -0.33373     1 1s    1.30925     1 2pz  -0.41576     1 3d0  -0.44690     1 3d1+ -0.30348
                                    1 3d2+ -0.26428     2 1s   -0.67763     2 2py  -0.32115     2 3d0   0.60129     2 3d2+  0.46174
                                    3 1s   -0.32327     4 1s   -0.33146     5 1s    0.29652
   31.1    -0.00000     2.25907     1 1s   -0.49799     1 2py  -0.35385     1 3d1+ -0.30931     1 3d2+  0.42766     1 3d1-  0.31586
                                    2 1s   -0.53630     2 1s    0.48431     2 2px   0.25474     2 2px  -0.42142     2 2py   0.29955
                                    2 3d0  -0.35680     2 3d2- -0.26160     2 3d1+ -0.33724     2 3d2+  0.31647     2 3d1-  0.26788
                                    4 1s   -0.37631
   32.1    -0.00000     2.34187     1 1s    1.20824     1 2px   0.33712     1 2py  -0.33138     1 3d0  -0.48030     2 1s   -1.10108
                                    2 2pz  -0.42376     2 3d2-  0.71076     2 3d1-  0.50075     3 1s   -0.26972     4 1s   -0.46861
                                    6 1s    0.64068
   33.1    -0.00000     2.54404     1 3d0   0.32982     1 3d2- -0.64681     1 3d2+ -0.30795     2 2py   0.25909     2 3d0   0.28735
                                    2 3d1+ -0.28497     2 3d2+ -0.41570     2 3d1-  0.59740     3 1s   -0.30071     6 1s    0.28267
   34.1    -0.00000     2.69675     1 1s   -0.67007     1 3d0   0.45180     1 3d2-  0.51191     1 3d1+ -0.38496     1 3d1- -0.27885
                                    2 1s    0.26466     2 2px  -0.26915     2 3d0   0.30745     2 3d2-  0.58384     2 3d1+ -0.53054
                                    3 1s    0.35991     4 1s    0.37585     6 1s    0.41310
   35.1    -0.00000     2.84317     1 1s    1.65761     1 2py  -0.40449     1 2pz  -0.27575     1 2px   0.66199     1 2py  -0.59804
                                    1 2pz  -0.52274     1 3d2-  0.26046     1 3d1+ -0.57865     1 3d1-  0.89191     2 1s   -1.36430
                                    2 2px   0.31266     2 2px   0.67655     2 2pz  -0.29867     2 3d0   0.30942     2 3d1+  0.29537
                                    2 3d2+ -0.51290     3 1s    0.45724     4 1s   -0.95600
   36.1    -0.00000     3.02343     1 1s    0.93444     1 2px   0.42402     1 2px   0.66002     1 3d2- -0.51767     1 3d1+ -0.52683
                                    1 3d2+  0.85056     1 3d1- -0.45825     2 1s   -1.22734     2 2px   0.30014     2 2px   0.60624
                                    2 2pz  -0.36557     2 3d2-  0.31060     2 3d1+  0.59990     2 3d2+ -0.38058     4 1s    0.98318


 Natural orbital dump (state averaged) at molpro section  2140.2    (Orbital set 2)



 **********************************************************************************************************************************
 DATASETS  * FILE   NREC   LENGTH (MB)   RECORD NAMES
              1      20       31.86       500      610      700      900      950      970     1000      129      960     1100   
                                          VAR    BASINP    GEOM    SYMINP    ZMAT    AOBASIS   BASIS     P2S    ABASIS      S 
                                         1400     1410     1200     1210     1080     1600     1650     1300     1700     1380   
                                           T        V       H0       H01     AOSYM     SMH    MOLCAS    ERIS     OPER     JKOP   

              2       5        5.42       700     1000      520     2100     2140   
                                         GEOM     BASIS   MCVARS     RHF     MCSCF   

 PROGRAMS   *        TOTAL     MULTI    HF-SCF       INT
 CPU TIMES  *         0.89      0.49      0.11      0.18
 REAL TIME  *         1.23 SEC
 DISK USED  *        39.04 MB
 **********************************************************************************************************************************
 Molecular orbitals read from record     2140.2  Type=MCSCF/NATURAL (state averaged)
 Occupation numbers read from record     2140.2  Type=MCSCF/NATURAL (state averaged)
 Orbital energies read from record       2140.2  Type=MCSCF/NATURAL (state averaged)
 Redundancy group numbers read from rec  2140.2  Type=MCSCF/NATURAL (state averaged)

 MULTI/6-31G* energy=    -77.461728150033

           MULTI          HF-SCF
    -77.46172815    -77.74915540
 **********************************************************************************************************************************
 Molpro calculation terminated
