
 Primary working directories    : /scratch.local/johan406.molpro_temp/molpro.zgzkif6VTG
 Secondary working directories  : /scratch.local/johan406.molpro_temp/molpro.zgzkif6VTG
 Wavefunction directory         : /home/goodpast/johan406/wfu/
 Main file repository           : /scratch.local/johan406.molpro_temp/molpro.zgzkif6VTG/

 id        : roweumn

 Nodes     nprocs
 acn09        1

 Using customized tuning parameters: mindgm=1; mindgv=20; mindgc=4; mindgr=1; noblas=0; minvec=7
 default implementation of scratch files=df  


 Variables initialized (934), CPU time= 0.01 sec
                                                                                 !leave this line blank
 
 gprint, orbitals=30
 memory, 125., m
 symmetry, nosym
 nelect=16
 basis=6-31g*
 
 geometry={
 C -0.6254 0.1408 0.3002
 C 0.6343 -0.1907 -0.3606
 H -1.2687 0.8995 -0.156
 H -0.9658 -0.8989 -0.153
 H 0.9747 0.849 0.0926
 H 1.2776 -0.9495 0.0955
 }
 
 hf
 {multi,
 closed 7
 occ 9
 wf,spin=0;STATE,3
 }
 
 Commands  initialized (763), CPU time= 0.01 sec, 617 directives.
 Default parameters read. Elapsed time= 0.07 sec

 Checking input...
 Passed
1


                                         ***  PROGRAM SYSTEM MOLPRO  ***
                                       Copyright, TTI GmbH Stuttgart, 2015
                                    Version 2019.2 linked Oct 25 2019 22:50:27


 **********************************************************************************************************************************
 LABEL *                                                                                 
  64 bit serial version                                                                  DATE: 07-Feb-23          TIME: 15:52:50  
 **********************************************************************************************************************************

 SHA1:             8dbd9ae1082e4ce945b0f27595c9eb2d4aa09004
 **********************************************************************************************************************************


 Variable memory set to  125000000 words,  buffer space 

 SETTING NELECT         =        16.00000000                                  
 SETTING BASIS          =    6-31G*
 ZSYMEL=NOSYM


Geometry recognized as XYZ



 Recomputing integrals since basis changed


 Using spherical harmonics

 Library entry C      S 6-31G                selected for orbital group  1
 Library entry C      P 6-31G                selected for orbital group  1
 Library entry C      D 6-31G*               selected for orbital group  1
 Library entry H      S 6-31G                selected for orbital group  2


 PROGRAM * SEWARD (Integral evaluation for generally contracted gaussian basis sets)     Author: Roland Lindh, 1990

 Geometry written to block  1 of record 700


 Point group  C1  



 ATOMIC COORDINATES

 NR  ATOM    CHARGE       X              Y              Z

   1  C       6.00   -1.181834718    0.266073438    0.567295783
   2  C       6.00    1.198653281   -0.360370772   -0.681435241
   3  H       1.00   -2.397495534    1.699808649   -0.294797275
   4  H       1.00   -1.825097491   -1.698674813   -0.289128097
   5  H       1.00    1.841916054    1.604377480    0.174988639
   6  H       1.00    2.414314097   -1.794294955    0.180468845

 Bond lengths in Bohr (Angstrom)

 1-2  2.760160255  1-3  2.068002010  1-4  2.237740948  2-5  2.237740948  2-6  2.068054263
     ( 1.460613905)     ( 1.094339536)     ( 1.184161513)     ( 1.184161513)     ( 1.094367187)

 Bond angles

  1-2-5   82.84819496   1-2-6  118.41042394   2-1-3  118.40716311   2-1-4   82.84819496

  3-1-4  106.27154854   5-2-6  106.27800206

 NUCLEAR CHARGE:                   16
 NUMBER OF PRIMITIVE AOS:          72
 NUMBER OF SYMMETRY AOS:           70
 NUMBER OF CONTRACTIONS:           36   (   36A   )
 NUMBER OF CORE ORBITALS:           2   (    2A   )
 NUMBER OF VALENCE ORBITALS:       12   (   12A   )


 NUCLEAR REPULSION ENERGY   32.11295940

 Eigenvalues of metric

         1 0.958E-02 0.281E-01 0.607E-01 0.686E-01 0.851E-01 0.220E+00 0.239E+00 0.273E+00


 Contracted 2-electron integrals neglected if value below      1.0D-11
 AO integral compression algorithm  1   Integral accuracy      1.0D-11

     1.573 MB (compressed) written to integral file ( 59.0%)


 NUMBER OF SORTED TWO-ELECTRON INTEGRALS:     222111.     BUFFER LENGTH:  32768
 NUMBER OF SEGMENTS:   1  SEGMENT LENGTH:     222111      RECORD LENGTH: 524288

 Memory used in sort:       0.78 MW

 SORT1 READ      284735. AND WROTE      212531. INTEGRALS IN      1 RECORDS. CPU TIME:     0.00 SEC, REAL TIME:     0.00 SEC
 SORT2 READ      212531. AND WROTE      222111. INTEGRALS IN      6 RECORDS. CPU TIME:     0.02 SEC, REAL TIME:     0.03 SEC

 FILE SIZES:   FILE 1:    31.7 MBYTE,  FILE 4:     4.2 MBYTE,   TOTAL:     35.9 MBYTE

 OPERATOR DM      FOR CENTER  0  COORDINATES:    0.000000    0.000000    0.000000


 **********************************************************************************************************************************
 DATASETS  * FILE   NREC   LENGTH (MB)   RECORD NAMES
              1      19       31.13       500      610      700      900      950      970     1000      129      960     1100   
                                          VAR    BASINP    GEOM    SYMINP    ZMAT    AOBASIS   BASIS     P2S    ABASIS      S 
                                         1400     1410     1200     1210     1080     1600     1650     1300     1700   
                                           T        V       H0       H01     AOSYM     SMH    MOLCAS    ERIS     OPER   

 PROGRAMS   *        TOTAL       INT
 CPU TIMES  *         0.30      0.19
 REAL TIME  *         0.86 SEC
 DISK USED  *        36.24 MB
 **********************************************************************************************************************************


 PROGRAM * RHF-SCF (CLOSED SHELL)       Authors: W. Meyer, H.-J. Werner


 NUMBER OF ELECTRONS:       8+    8-    SPACE SYMMETRY=1    SPIN SYMMETRY: Singlet 
 CONVERGENCE THRESHOLDS:    1.00E-05 (Density)    1.00E-07 (Energy)
 MAX. NUMBER OF ITERATIONS:       60
 INTERPOLATION TYPE:            DIIS
 INTERPOLATION STEPS:              2 (START)      1 (STEP)
 LEVEL SHIFTS:                  0.00 (CLOSED)  0.00 (OPEN) 



 Orbital guess generated from atomic densities. Full valence occupancy:    8

 Molecular orbital dump at record        2100.2

 Initial occupancy:   8

 ITERATION    DDIFF          GRAD             ENERGY        2-EL.EN.            DIPOLE MOMENTS         DIIS   ORB.
    1      0.000D+00      0.000D+00       -77.82029940    115.427220    0.00006   -0.00005   -0.00008    0    start
    2      0.000D+00      0.693D-02       -77.83813925    114.438030    0.00002   -0.00000   -0.00002    1    diag
    3      0.753D-02      0.226D-02       -77.84022400    114.847026    0.00007   -0.00003   -0.00009    2    diag
    4      0.298D-02      0.819D-03       -77.84065327    114.713032    0.00004   -0.00001   -0.00004    3    diag
    5      0.160D-02      0.282D-03       -77.84077456    114.719967    0.00008   -0.00004   -0.00010    4    diag
    6      0.938D-03      0.123D-03       -77.84081467    114.721110   -0.00002    0.00004    0.00006    5    diag
    7      0.555D-03      0.465D-04       -77.84082081    114.722539    0.00021   -0.00013   -0.00030    6    diag
    8      0.240D-03      0.151D-04       -77.84082131    114.722969   -0.00015    0.00013    0.00025    7    diag
    9      0.705D-04      0.729D-05       -77.84082135    114.723006    0.00011   -0.00006   -0.00015    8    diag
   10      0.153D-04      0.272D-05       -77.84082136    114.722983    0.00005   -0.00001   -0.00006    9    orth
   11      0.646D-05      0.557D-06       -77.84082136    114.722990    0.00006   -0.00002   -0.00007    0    orth

 Final occupancy:   8

 !RHF STATE  1.1 Energy               -77.840821362644
 Nuclear energy                        32.11295940
 One-electron energy                 -167.31527574
 Two-electron energy                   57.36149497
 Virial quotient                       -1.00240272
 !RHF STATE  1.1 Dipole moment          0.00005599    -0.00001866    -0.00006532
 Dipole moment /Debye                   0.00014230    -0.00004743    -0.00016601

 ELECTRON ORBITALS
 =================

  Orbital  Occupation    Energy     Coefficients
    1.1     2.00000   -11.26621     1 1s    0.69896     2 1s    0.70991
    2.1     2.00000   -11.26536     1 1s   -0.71002     2 1s    0.69906
    3.1     2.00000    -1.03373     1 1s    0.28310     1 1s    0.25118     2 1s    0.28310     2 1s    0.25118
    4.1     2.00000    -0.77986     1 1s   -0.29742     2 1s    0.29743
    5.1     2.00000    -0.61446     1 2py   0.30281     2 2py   0.30287
    6.1     2.00000    -0.56284     1 2px   0.30253     2 2px  -0.30254
    7.1     2.00000    -0.39406     1 2pz   0.30904     1 2pz   0.28342     2 2pz   0.30901     2 2pz   0.28340
    8.1     2.00000    -0.37963     1 2px   0.26705     2 2px  -0.26703     4 1s   -0.29758     5 1s   -0.29757
    9.1     0.00000     0.06108     1 1s    0.41055     1 2pz   0.32928     1 2pz   0.45975     2 1s    0.41055     2 2pz  -0.32930
                                    2 2pz  -0.45977
   10.1     0.00000     0.22247     1 1s   -0.99000     1 2px   0.45902     1 2py   0.39650     1 2pz   0.41005     2 1s   -0.99008
                                    2 2px  -0.45908     2 2py  -0.39643     2 2pz  -0.41005     3 1s    0.49857     4 1s    1.03012
                                    5 1s    1.03014     6 1s    0.49871
   11.1     0.00000     0.28049     1 1s   -1.52439     1 2py  -0.37544     1 2pz   0.45024     2 1s    1.52436     2 2py  -0.37572
                                    2 2pz   0.45019     3 1s    1.44045     6 1s   -1.44061
   12.1     0.00000     0.31014     1 1s   -0.82121     1 2px   0.42297     1 2py  -0.97820     1 2pz   0.47793     2 1s   -0.82038
                                    2 2px  -0.42289     2 2py   0.97846     2 2pz  -0.47761     3 1s    1.57838     4 1s   -0.34490
                                    5 1s   -0.34554     6 1s    1.57804
   13.1     0.00000     0.32356     1 1s   -0.95652     1 2px   0.31435     1 2py   0.69743     1 2pz   0.29960     2 1s    0.95680
                                    2 2px   0.31450     2 2py   0.69703     2 2pz   0.29978     4 1s    1.58858     5 1s   -1.58842
   14.1     0.00000     0.42440     1 1s    2.06988     1 2px   1.77052     1 2py  -0.66339     1 2pz  -0.80742     2 1s   -2.06990
                                    2 2px   1.77050     2 2py  -0.66342     2 2pz  -0.80748     3 1s    0.61384     4 1s   -0.25676
                                    5 1s    0.25680     6 1s   -0.61383
   15.1     0.00000     0.70349     1 2px  -0.55149     1 2px   0.92995     2 2px   0.55150     2 2px  -0.92994     4 1s   -0.42879
                                    5 1s   -0.42878
   16.1     0.00000     0.76192     1 2py  -0.36940     1 2px  -0.62523     1 2py   0.74539     2 2py  -0.36910     2 2px  -0.62519
                                    2 2py   0.74485     3 1s   -0.49509     6 1s    0.49504
   17.1     0.00000     0.79644     1 1s   -0.26739     1 2py   0.60706     1 2pz   0.26331     1 2py  -1.22579     2 1s   -0.26699
                                    2 2py  -0.60735     2 2pz  -0.26446     2 2py   1.22645     4 1s   -0.27767     5 1s   -0.27804
   18.1     0.00000     0.79970     1 2pz  -0.73283     1 2pz   0.69680     2 2pz  -0.73248     2 2pz   0.69650
   19.1     0.00000     0.86291     1 1s   -0.35465     1 2pz  -0.68026     1 2px   0.46460     1 2py  -0.55845     1 2pz   0.95709
                                    2 1s   -0.35464     2 2pz   0.68021     2 2px  -0.46481     2 2py   0.55865     2 2pz  -0.95697
   20.1     0.00000     0.97165     1 1s   -0.30704     1 2px   0.70647     1 2py   0.39528     1 2px  -1.14076     1 2py  -0.77469
                                    2 1s    0.30690     2 2px   0.70643     2 2py   0.39531     2 2px  -1.14074     2 2py  -0.77472
                                    4 1s   -1.01220     5 1s    1.01229
   21.1     0.00000     1.09375     1 1s   -0.66369     1 1s    1.20408     1 2px   0.26416     1 2py   0.36632     1 2px  -0.35898
                                    1 2py  -0.35164     2 1s   -0.66374     2 1s    1.20405     2 2px  -0.26423     2 2py  -0.36618
                                    2 2px   0.35915     2 2py   0.35139     4 1s    0.66780     4 1s   -1.16163     5 1s    0.66779
                                    5 1s   -1.16152
   22.1     0.00000     1.12318     1 1s   -0.27895     1 2px   0.33077     1 2py  -0.60064     1 2px  -0.47463     1 2py   0.88922
                                    2 1s    0.27882     2 2px   0.33070     2 2py  -0.60072     2 2px  -0.47462     2 2py   0.88937
                                    3 1s    0.34812     3 1s   -0.91692     4 1s   -0.54181     4 1s    0.92729     5 1s    0.54198
                                    5 1s   -0.92742     6 1s   -0.34810     6 1s    0.91703
   23.1     0.00000     1.15886     1 1s    0.38520     1 2px  -0.28202     1 2px   0.90329     1 2py  -0.34534     2 1s   -0.38551
                                    2 2px  -0.28245     2 2px   0.90346     2 2py  -0.34572     3 1s   -0.53062     3 1s    1.03022
                                    4 1s   -0.58025     4 1s    0.63745     5 1s    0.58033     5 1s   -0.63712     6 1s    0.53203
                                    6 1s   -1.03156
   24.1     0.00000     1.18574     1 1s   -0.52567     1 1s    0.81169     1 2px   0.28027     1 2py  -0.32294     1 2px  -0.25186
                                    1 2py   0.29564     2 1s   -0.52474     2 1s    0.81064     2 2px  -0.27986     2 2py   0.32280
                                    2 2px   0.25070     2 2py  -0.29513     3 1s    0.79138     3 1s   -1.03859     6 1s    0.79052
                                    6 1s   -1.03683
   25.1     0.00000     1.25904     1 1s   -1.22270     1 1s    2.14333     1 2px  -0.54657     1 2py   0.55438     1 2pz  -0.99434
                                    2 1s   -1.22698     2 1s    2.15620     2 2px   0.54338     2 2py  -0.55255     2 2pz   0.99734
                                    3 1s   -0.37504     3 1s   -0.96413     4 1s   -0.42311     4 1s   -0.32361     5 1s   -0.42350
                                    5 1s   -0.32528     6 1s   -0.37506     6 1s   -0.96537
   26.1     0.00000     1.28320     1 1s   -1.58309     1 1s    5.01383     1 2px   1.26891     1 2py  -0.73532     1 2pz  -1.21000
                                    2 1s    1.57994     2 1s   -5.00823     2 2px   1.27034     2 2py  -0.73670     2 2pz  -1.20733
                                    3 1s   -0.44866     4 1s   -0.27838     4 1s   -0.55324     5 1s    0.27726     5 1s    0.55235
                                    6 1s    0.44623
   27.1     0.00000     1.69912     1 1s    0.59083     1 3d0   0.35444     1 3d2- -0.29220     1 3d2+ -0.32867     2 1s   -0.59088
                                    2 3d0  -0.35446     2 3d2-  0.29219     2 3d2+  0.32865
   28.1     0.00000     1.91540     1 1s    0.30839     1 1s   -0.63316     1 2pz   0.33659     1 3d0   0.35667     1 3d1+  0.33797
                                    1 3d2+  0.35156     1 3d1-  0.31330     2 1s    0.30820     2 1s   -0.63227     2 2pz  -0.33633
                                    2 3d0   0.35655     2 3d1+  0.33811     2 3d2+  0.35160     2 3d1-  0.31339     3 1s    0.27135
                                    6 1s    0.27133
   29.1     0.00000     1.93919     1 1s   -0.32126     1 1s    1.38810     1 2px   0.32676     1 2pz  -0.36408     1 3d2- -0.30793
                                    1 3d1+  0.38971     1 3d1-  0.38839     2 1s    0.32125     2 1s   -1.38812     2 2px   0.32673
                                    2 2pz  -0.36408     2 3d2-  0.30793     2 3d1+ -0.38959     2 3d1- -0.38824     3 1s   -0.33127
                                    6 1s    0.33131
   30.1     0.00000     2.16740     1 1s    0.33161     1 1s   -1.51661     1 2px  -0.35616     1 2py   0.26040     1 2pz   0.41126
                                    1 3d0   0.56234     1 3d2+  0.36877     2 1s   -0.33159     2 1s    1.51664     2 2px  -0.35612
                                    2 2py   0.26035     2 2pz   0.41127     2 3d0  -0.56241     2 3d2+ -0.36885     3 1s    0.31874
                                    4 1s    0.31822     5 1s   -0.31828     6 1s   -0.31878
   31.1     0.00000     2.24209     1 1s    0.47786     1 1s   -0.32392     1 2px   0.25870     1 2px  -0.26577     1 3d2-  0.34114
                                    1 3d1+  0.40558     1 3d2+ -0.38301     2 1s    0.47791     2 1s   -0.32421     2 2px  -0.25869
                                    2 2px   0.26587     2 3d2-  0.34114     2 3d1+  0.40561     2 3d2+ -0.38297
   32.1     0.00000     2.32527     1 2py   0.40244     1 3d0   0.51684     1 3d2- -0.30990     1 3d1- -0.41157     2 2py  -0.40255
                                    2 3d0   0.51680     2 3d2- -0.30997     2 3d1- -0.41168     3 1s   -0.29886     4 1s    0.36852
                                    5 1s    0.36858     6 1s   -0.29890
   33.1     0.00000     2.55683     1 2py   0.26563     1 3d2- -0.49338     1 3d1- -0.58689     2 2py   0.26574     2 3d2-  0.49329
                                    2 3d1-  0.58702     3 1s   -0.50495     4 1s    0.36652     5 1s   -0.36662     6 1s    0.50492
   34.1     0.00000     2.63404     1 2py   0.31008     1 3d2-  0.44087     1 3d2+  0.51709     1 3d1- -0.50225     2 2py  -0.31003
                                    2 3d2-  0.44102     2 3d2+  0.51708     2 3d1- -0.50207     4 1s    0.32845     5 1s    0.32835
   35.1     0.00000     2.71500     1 3d0  -0.41675     1 3d2- -0.49742     1 3d1+  0.50244     2 3d0  -0.41679     2 3d2- -0.49733
                                    2 3d1+  0.50242     3 1s   -0.47144     6 1s   -0.47136
   36.1     0.00000     2.95390     1 1s   -1.76729     1 2px  -0.43490     1 2px  -0.89045     1 2py   0.25971     1 2pz   0.45563
                                    1 3d2-  0.34225     1 3d1+  0.70106     1 3d2+ -0.63360     2 1s    1.76729     2 2px  -0.43490
                                    2 2px  -0.89043     2 2py   0.25970     2 2pz   0.45564     2 3d2- -0.34227     2 3d1+ -0.70103
                                    2 3d2+  0.63360


 HOMO      8.1    -0.379629 =     -10.3302eV
 LUMO      9.1     0.061077 =       1.6620eV
 LUMO-HOMO         0.440706 =      11.9922eV


 **********************************************************************************************************************************
 DATASETS  * FILE   NREC   LENGTH (MB)   RECORD NAMES
              1      19       31.13       500      610      700      900      950      970     1000      129      960     1100   
                                          VAR    BASINP    GEOM    SYMINP    ZMAT    AOBASIS   BASIS     P2S    ABASIS      S 
                                         1400     1410     1200     1210     1080     1600     1650     1300     1700   
                                           T        V       H0       H01     AOSYM     SMH    MOLCAS    ERIS     OPER   

              2       4        2.86       700     1000      520     2100   
                                         GEOM     BASIS   MCVARS     RHF  

 PROGRAMS   *        TOTAL    HF-SCF       INT
 CPU TIMES  *         0.41      0.12      0.19
 REAL TIME  *         1.04 SEC
 DISK USED  *        36.24 MB
 **********************************************************************************************************************************


 PROGRAM * MULTI (Direct Multiconfiguration SCF)       Authors: P.J. Knowles, H.-J. Werner (1984)


 Number of closed-shell orbitals:   7 (   7 )
 Number of active  orbitals:        2 (   2 )
 Number of external orbitals:      27 (  27 )

 State symmetry 1

 Number of electrons:     2    Spin symmetry=Singlet   Space symmetry=1
 Number of states:        3
 Number of CSFs:          3   (4 determinants, 4 intermediate states)

 Molecular orbitals read from record     2100.2  Type=RHF/CANONICAL (state 1.1)

 Wavefunction dump at record             2140.2

 Convergence thresholds  0.10E-01 (gradient)  0.10E-05 (energy)  0.10E-02 (step length)

 Weight factors for state symmetry  1:    0.33333   0.33333   0.33333

 Number of orbital rotations:      257   (    14 Core/Active    189 Core/Virtual   0 Active/Active     54 Active/Virtual)
 Total number of variables:        269

 Micro-Iterations solved by the two-step solver

 ITER. MIC  NCI  NEG     ENERGY(VAR)     ENERGY(PROJ)   ENERGY CHANGE     GRAD(0)  GRAD(ORB)   GRAD(CI)     STEP       TIME

   1    6    5    0     -77.68993423     -77.70878427   -0.01885004    0.16318719 0.00142974 0.00000000  0.14D+00      0.10
   2    5    5    0     -77.70850955     -77.70852782   -0.00001828    0.00629226 0.00000369 0.00000000  0.46D-02      0.19
   3    4    4    0     -77.70852785     -77.70852785   -0.00000000    0.00001230 0.00000000 0.00000000  0.19D-04      0.26

 ** WVFN ****  CONVERGENCE REACHED, FINAL GRADIENT:  0.17D-09



 Results for state 1.1
 =====================

 !MCSCF STATE  1.1 Energy             -77.834662860563
 Nuclear energy                        32.11295940
 Kinetic energy                        77.69387636
 One electron energy                 -167.36323962
 Two electron energy                   57.41561735
 Virial ratio                           2.00181207

 !MCSCF STATE  1.1 Dipole moment        0.00006129    -0.00001364    -0.00006286
 Dipole moment /Debye                   0.00015578    -0.00003468    -0.00015976

 Results for state 2.1
 =====================

 !MCSCF STATE  2.1 Energy             -77.736175638404
 Nuclear energy                        32.11295940
 Kinetic energy                        77.79150198
 One electron energy                 -167.11369908
 Two electron energy                   57.26456404
 Virial ratio                           1.99928879

 !MCSCF STATE  2.1 Dipole moment        0.00003713    -0.00003744    -0.00005609
 Dipole moment /Debye                   0.00009437    -0.00009516    -0.00014257

 Results for state 3.1
 =====================

 !MCSCF STATE  3.1 Energy             -77.554745052832
 Nuclear energy                        32.11295940
 Kinetic energy                        77.87666472
 One electron energy                 -166.93815960
 Two electron energy                   57.27045514
 Virial ratio                           1.99586629

 !MCSCF STATE  3.1 Dipole moment        0.00000884    -0.00004883    -0.00003578
 Dipole moment /Debye                   0.00002247    -0.00012411    -0.00009094

 State-averaged charge density matrix saved on record  2140.2 (density set 1)

 !MCSCF expec         <1.1|DMX|1.1>     0.000061291033 au =     0.000155776064 Debye
 !MCSCF trans         <2.1|DMX|1.1>     0.000008207845 au =     0.000020860894 Debye
 !MCSCF expec         <2.1|DMX|2.1>     0.000037129124 au =     0.000094366639 Debye
 !MCSCF trans         <3.1|DMX|1.1>     0.000001930392 au =     0.000004906245 Debye
 !MCSCF trans         <3.1|DMX|2.1>     0.000006464465 au =     0.000016429954 Debye
 !MCSCF expec         <3.1|DMX|3.1>     0.000008839607 au =     0.000022466567 Debye

 !MCSCF expec         <1.1|DMY|1.1>    -0.000013643408 au =    -0.000034675813 Debye
 !MCSCF trans         <2.1|DMY|1.1>    -0.000019899859 au =    -0.000050577083 Debye
 !MCSCF expec         <2.1|DMY|2.1>    -0.000037441929 au =    -0.000095161658 Debye
 !MCSCF trans         <3.1|DMY|1.1>     0.000003837484 au =     0.000009753273 Debye
 !MCSCF trans         <3.1|DMY|2.1>    -0.000023760905 au =    -0.000060390241 Debye
 !MCSCF expec         <3.1|DMY|3.1>    -0.000048830139 au =    -0.000124105705 Debye

 !MCSCF expec         <1.1|DMZ|1.1>    -0.000062858081 au =    -0.000159758842 Debye
 !MCSCF trans         <2.1|DMZ|1.1>    -0.000023349123 au =    -0.000059343664 Debye
 !MCSCF expec         <2.1|DMZ|2.1>    -0.000056094121 au =    -0.000142567695 Debye
 !MCSCF trans         <3.1|DMZ|1.1>     0.000000916066 au =     0.000002328256 Debye
 !MCSCF trans         <3.1|DMZ|2.1>    -0.000024473832 au =    -0.000062202203 Debye
 !MCSCF expec         <3.1|DMZ|3.1>    -0.000035780575 au =    -0.000090939194 Debye


 NATURAL ORBITALS (state averaged)
 =================================

  Orbital  Occupation    Energy     Coefficients
    1.1     2.00000   -11.25799     1 1s    0.70179     2 1s    0.70708
    2.1     2.00000   -11.25725     1 1s   -0.70714     2 1s    0.70186
    3.1     2.00000    -1.04392     1 1s    0.27748     2 1s    0.27748
    4.1     2.00000    -0.77876     1 1s   -0.32262     2 1s    0.32263
    5.1     2.00000    -0.61636     1 2py   0.29608     2 2py   0.29612
    6.1     2.00000    -0.55923     1 2px   0.26352     2 2px  -0.26352
    7.1     2.00000    -0.41950     1 2pz   0.32405     1 2pz   0.27871     2 2pz   0.32404     2 2pz   0.27870
    8.1     1.00000    -0.22582     1 2px   0.30343     2 2px  -0.30343     4 1s   -0.30569     5 1s   -0.30568
    9.1     1.00000    -0.08700     1 1s    0.27672     1 2pz   0.40102     1 2pz   0.42681     2 1s    0.27671     2 2pz  -0.40104
                                    2 2pz  -0.42683
   10.1    -0.00000     0.21141     1 1s   -1.00972     1 2px   0.46046     1 2py   0.40082     1 2pz   0.35497     2 1s   -1.00977
                                    2 2px  -0.46051     2 2py  -0.40075     2 2pz  -0.35496     3 1s    0.48589     4 1s    1.03506
                                    5 1s    1.03506     6 1s    0.48600
   11.1    -0.00000     0.28064     1 1s   -1.62287     1 2py  -0.30221     1 2pz   0.47166     2 1s    1.62280     2 2py  -0.30241
                                    2 2pz   0.47158     3 1s    1.43560     6 1s   -1.43565
   12.1    -0.00000     0.30912     1 1s   -0.92852     1 2py   0.78947     1 2pz   0.30169     2 1s    0.92749     2 2py   0.79065
                                    2 2pz   0.30116     4 1s    1.60699     5 1s   -1.60738
   13.1    -0.00000     0.31377     1 1s   -0.86228     1 2px   0.41860     1 2py  -0.97784     1 2pz   0.44887     2 1s   -0.86307
                                    2 2px  -0.41886     2 2py   0.97692     2 2pz  -0.44907     3 1s    1.59056     4 1s   -0.31611
                                    5 1s   -0.31422     6 1s    1.59023
   14.1    -0.00000     0.43106     1 1s    1.95258     1 2px   1.78498     1 2py  -0.56841     1 2pz  -0.75501     2 1s   -1.95260
                                    2 2px   1.78496     2 2py  -0.56844     2 2pz  -0.75506     3 1s    0.61886     6 1s   -0.61886
   15.1    -0.00000     0.70167     1 2px  -0.53811     1 2px   0.90747     2 2px   0.53811     2 2px  -0.90744     4 1s   -0.49125
                                    5 1s   -0.49125
   16.1    -0.00000     0.76020     1 1s   -0.31157     1 2py  -0.36031     1 2px  -0.66840     1 2py   0.76013     2 1s    0.31169
                                    2 2py  -0.35999     2 2px  -0.66831     2 2py   0.75952     3 1s   -0.49214     6 1s    0.49208
   17.1    -0.00000     0.79673     1 2py   0.58306     1 2pz   0.26099     1 2py  -1.20753     1 2pz  -0.29469     2 2py  -0.58330
                                    2 2pz  -0.26176     2 2py   1.20817     2 2pz   0.29559     4 1s   -0.28503     5 1s   -0.28534
   18.1    -0.00000     0.80159     1 1s   -0.32713     1 2pz  -0.72938     1 2pz   0.76333     2 1s    0.32739     2 2pz  -0.72914
                                    2 2pz   0.76305
   19.1    -0.00000     0.86275     1 1s   -0.31147     1 2px  -0.25710     1 2pz  -0.65708     1 2px   0.50009     1 2py  -0.55919
                                    1 2pz   1.00906     2 1s   -0.31146     2 2px   0.25717     2 2pz   0.65705     2 2px  -0.50031
                                    2 2py   0.55940     2 2pz  -1.00896     3 1s    0.28204     6 1s    0.28211
   20.1    -0.00000     0.97985     1 2px   0.70363     1 2py   0.40582     1 2px  -1.05853     1 2py  -0.79880     2 2px   0.70359
                                    2 2py   0.40585     2 2px  -1.05852     2 2py  -0.79883     4 1s   -0.98504     5 1s    0.98511
   21.1    -0.00000     1.06807     1 1s   -0.62841     1 1s    1.13017     1 2px   0.28582     1 2py   0.39165     1 2px  -0.35812
                                    1 2py  -0.40199     2 1s   -0.62841     2 1s    1.13006     2 2px  -0.28587     2 2py  -0.39155
                                    2 2px   0.35827     2 2py   0.40178     4 1s    0.67159     4 1s   -1.13090     5 1s    0.67158
                                    5 1s   -1.13080
   22.1    -0.00000     1.09637     1 1s    0.26048     1 1s   -0.31497     1 2py  -0.51858     1 2py   0.66408     2 1s   -0.26035
                                    2 1s    0.31477     2 2py  -0.51857     2 2py   0.66415     3 1s   -0.36348     4 1s   -0.74014
                                    4 1s    1.12674     5 1s    0.74027     5 1s   -1.12673     6 1s    0.36342
   23.1    -0.00000     1.15178     1 1s    0.27508     1 2px  -0.42201     1 2py   0.31600     1 2px   1.07600     1 2py  -0.68900
                                    2 1s   -0.27516     2 2px  -0.42221     2 2py   0.31633     2 2px   1.07602     2 2py  -0.68924
                                    3 1s   -0.62933     3 1s    1.31834     4 1s   -0.28533     5 1s    0.28535     6 1s    0.63015
                                    6 1s   -1.31903
   24.1    -0.00000     1.19180     1 1s   -0.47025     1 1s    0.70212     1 2px   0.27104     1 2py  -0.32545     1 2py   0.27417
                                    2 1s   -0.46952     2 1s    0.70097     2 2px  -0.27074     2 2py   0.32525     2 2py  -0.27375
                                    3 1s    0.80838     3 1s   -0.98803     6 1s    0.80782     6 1s   -0.98676
   25.1    -0.00000     1.25115     1 1s   -1.27371     1 1s    2.23061     1 2px  -0.56551     1 2py   0.57570     1 2pz  -0.99257
                                    2 1s   -1.27731     2 1s    2.24132     2 2px   0.56282     2 2py  -0.57430     2 2pz   0.99499
                                    3 1s   -0.34591     3 1s   -1.01328     4 1s   -0.39162     4 1s   -0.36862     5 1s   -0.39196
                                    5 1s   -0.36990     6 1s   -0.34589     6 1s   -1.01435
   26.1    -0.00000     1.27796     1 1s   -1.59555     1 1s    5.02513     1 2px   1.27498     1 2py  -0.70222     1 2pz  -1.19574
                                    2 1s    1.59285     2 1s   -5.02030     2 2px   1.27621     2 2py  -0.70340     2 2pz  -1.19348
                                    3 1s   -0.47049     4 1s   -0.27214     4 1s   -0.53242     5 1s    0.27125     5 1s    0.53158
                                    6 1s    0.46843
   27.1    -0.00000     1.69602     1 1s    0.61836     1 3d0   0.34765     1 3d2- -0.29668     1 3d2+ -0.33084     2 1s   -0.61840
                                    2 3d0  -0.34767     2 3d2-  0.29666     2 3d2+  0.33082
   28.1    -0.00000     1.91437     1 1s    0.29757     1 1s   -0.62010     1 2pz   0.32956     1 3d0   0.35485     1 3d1+  0.33330
                                    1 3d2+  0.35902     1 3d1-  0.31182     2 1s    0.29742     2 1s   -0.61935     2 2pz  -0.32933
                                    2 3d0   0.35473     2 3d1+  0.33339     2 3d2+  0.35904     2 3d1-  0.31187     3 1s    0.26715
                                    6 1s    0.26714
   29.1    -0.00000     1.93809     1 1s   -0.31267     1 1s    1.35137     1 2px   0.31498     1 2pz  -0.35397     1 3d2- -0.30518
                                    1 3d1+  0.39322     1 3d1-  0.38691     2 1s    0.31263     2 1s   -1.35133     2 2px   0.31496
                                    2 2pz  -0.35394     2 3d2-  0.30518     2 3d1+ -0.39313     2 3d1- -0.38679     3 1s   -0.33280
                                    6 1s    0.33282
   30.1    -0.00000     2.16904     1 1s    0.33409     1 1s   -1.50033     1 2px  -0.34962     1 2py   0.26163     1 2pz   0.40434
                                    1 3d0   0.56579     1 3d2+  0.37120     2 1s   -0.33406     2 1s    1.50035     2 2px  -0.34957
                                    2 2py   0.26157     2 2pz   0.40434     2 3d0  -0.56586     2 3d2+ -0.37129     3 1s    0.31704
                                    4 1s    0.31249     5 1s   -0.31255     6 1s   -0.31708
   31.1    -0.00000     2.23849     1 1s    0.46792     1 1s   -0.32762     1 2px   0.26335     1 2px  -0.25326     1 3d2-  0.35476
                                    1 3d1+  0.41174     1 3d2+ -0.37852     2 1s    0.46798     2 1s   -0.32792     2 2px  -0.26334
                                    2 2px   0.25336     2 3d2-  0.35476     2 3d1+  0.41177     2 3d2+ -0.37847
   32.1    -0.00000     2.32233     1 2py   0.41523     1 3d0   0.51658     1 3d2- -0.29914     1 3d1- -0.42052     2 2py  -0.41534
                                    2 3d0   0.51655     2 3d2- -0.29920     2 3d1- -0.42062     3 1s   -0.30794     4 1s    0.35333
                                    5 1s    0.35339     6 1s   -0.30797
   33.1    -0.00000     2.55363     1 2py   0.26524     1 3d2- -0.49543     1 3d1- -0.58798     2 2py   0.26534     2 3d2-  0.49533
                                    2 3d1-  0.58811     3 1s   -0.50838     4 1s    0.35714     5 1s   -0.35724     6 1s    0.50833
   34.1    -0.00000     2.62818     1 2py   0.31333     1 3d2-  0.45310     1 3d2+  0.51108     1 3d1- -0.50073     2 2py  -0.31327
                                    2 3d2-  0.45325     2 3d2+  0.51107     2 3d1- -0.50055     4 1s    0.31823     5 1s    0.31813
   35.1    -0.00000     2.72220     1 3d0  -0.42469     1 3d2- -0.48215     1 3d1+  0.50675     2 3d0  -0.42473     2 3d2- -0.48207
                                    2 3d1+  0.50673     3 1s   -0.46886     6 1s   -0.46878
   36.1    -0.00000     2.95211     1 1s   -1.79460     1 2px  -0.42862     1 2px  -0.90153     1 2py   0.26683     1 2pz   0.46285
                                    1 3d2-  0.34038     1 3d1+  0.70361     1 3d2+ -0.63088     2 1s    1.79460     2 2px  -0.42862
                                    2 2px  -0.90151     2 2py   0.26682     2 2pz   0.46286     2 3d2- -0.34041     2 3d1+ -0.70358
                                    2 3d2+  0.63088


 Natural orbital dump (state averaged) at molpro section  2140.2    (Orbital set 2)



 **********************************************************************************************************************************
 DATASETS  * FILE   NREC   LENGTH (MB)   RECORD NAMES
              1      20       31.86       500      610      700      900      950      970     1000      129      960     1100   
                                          VAR    BASINP    GEOM    SYMINP    ZMAT    AOBASIS   BASIS     P2S    ABASIS      S 
                                         1400     1410     1200     1210     1080     1600     1650     1300     1700     1380   
                                           T        V       H0       H01     AOSYM     SMH    MOLCAS    ERIS     OPER     JKOP   

              2       5        5.42       700     1000      520     2100     2140   
                                         GEOM     BASIS   MCVARS     RHF     MCSCF   

 PROGRAMS   *        TOTAL     MULTI    HF-SCF       INT
 CPU TIMES  *         0.73      0.31      0.12      0.19
 REAL TIME  *         1.44 SEC
 DISK USED  *        39.04 MB
 **********************************************************************************************************************************
 Molecular orbitals read from record     2140.2  Type=MCSCF/NATURAL (state averaged)
 Occupation numbers read from record     2140.2  Type=MCSCF/NATURAL (state averaged)
 Orbital energies read from record       2140.2  Type=MCSCF/NATURAL (state averaged)
 Redundancy group numbers read from rec  2140.2  Type=MCSCF/NATURAL (state averaged)

 MULTI/6-31G* energy=    -77.554745052832

           MULTI          HF-SCF
    -77.55474505    -77.84082136
 **********************************************************************************************************************************
 Molpro calculation terminated
