
 Primary working directories    : /scratch.local/johan406.molpro_temp/molpro.J94d7O2HdF
 Secondary working directories  : /scratch.local/johan406.molpro_temp/molpro.J94d7O2HdF
 Wavefunction directory         : /home/goodpast/johan406/wfu/
 Main file repository           : /scratch.local/johan406.molpro_temp/molpro.J94d7O2HdF/

 id        : roweumn

 Nodes     nprocs
 acn09        1

 Using customized tuning parameters: mindgm=1; mindgv=20; mindgc=4; mindgr=1; noblas=0; minvec=7
 default implementation of scratch files=df  


 Variables initialized (934), CPU time= 0.00 sec
                                                                                 !leave this line blank
 
 gprint, orbitals=30
 memory, 125., m
 symmetry, nosym
 nelect=16
 basis=6-31g*
 
 geometry={
 C -0.625 0.1423 0.3009
 C 0.6338 -0.1921 -0.3613
 H -1.2694 0.901 -0.1565
 H -0.9675 -0.9141 -0.1602
 H 0.9764 0.8642 0.0998
 H 1.2783 -0.9509 0.096
 }
 
 hf
 {multi,
 closed 7
 occ 9
 wf,spin=0;STATE,3
 }
 
 Commands  initialized (763), CPU time= 0.01 sec, 617 directives.
 Default parameters read. Elapsed time= 0.07 sec

 Checking input...
 Passed
1


                                         ***  PROGRAM SYSTEM MOLPRO  ***
                                       Copyright, TTI GmbH Stuttgart, 2015
                                    Version 2019.2 linked Oct 25 2019 22:50:27


 **********************************************************************************************************************************
 LABEL *                                                                                 
  64 bit serial version                                                                  DATE: 07-Feb-23          TIME: 15:53:21  
 **********************************************************************************************************************************

 SHA1:             8dbd9ae1082e4ce945b0f27595c9eb2d4aa09004
 **********************************************************************************************************************************


 Variable memory set to  125000000 words,  buffer space 

 SETTING NELECT         =        16.00000000                                  
 SETTING BASIS          =    6-31G*
 ZSYMEL=NOSYM


Geometry recognized as XYZ



 Recomputing integrals since basis changed


 Using spherical harmonics

 Library entry C      S 6-31G                selected for orbital group  1
 Library entry C      P 6-31G                selected for orbital group  1
 Library entry C      D 6-31G*               selected for orbital group  1
 Library entry H      S 6-31G                selected for orbital group  2


 PROGRAM * SEWARD (Integral evaluation for generally contracted gaussian basis sets)     Author: Roland Lindh, 1990

 Geometry written to block  1 of record 700


 Point group  C1  



 ATOMIC COORDINATES

 NR  ATOM    CHARGE       X              Y              Z

   1  C       6.00   -1.181078828    0.268908028    0.568618591
   2  C       6.00    1.197708418   -0.363016389   -0.682758049
   3  H       1.00   -2.398818343    1.702643238   -0.295742138
   4  H       1.00   -1.828310026   -1.727398650   -0.302734125
   5  H       1.00    1.845128588    1.633101317    0.188594667
   6  H       1.00    2.415636905   -1.796940572    0.181413708

 Bond lengths in Bohr (Angstrom)

 1-2  2.761141199  1-3  2.070170440  1-4  2.272312507  2-5  2.272200327  2-6  2.070333594
     ( 1.461132999)     ( 1.095487020)     ( 1.202455995)     ( 1.202396632)     ( 1.095573357)

 Bond angles

  1-2-5   82.56624901   1-2-6  118.43444140   2-1-3  118.42770588   2-1-4   82.56137843

  3-1-4  106.30731068   5-2-6  106.30578263

 NUCLEAR CHARGE:                   16
 NUMBER OF PRIMITIVE AOS:          72
 NUMBER OF SYMMETRY AOS:           70
 NUMBER OF CONTRACTIONS:           36   (   36A   )
 NUMBER OF CORE ORBITALS:           2   (    2A   )
 NUMBER OF VALENCE ORBITALS:       12   (   12A   )


 NUCLEAR REPULSION ENERGY   31.99857371

 Eigenvalues of metric

         1 0.973E-02 0.284E-01 0.610E-01 0.708E-01 0.874E-01 0.221E+00 0.240E+00 0.273E+00


 Contracted 2-electron integrals neglected if value below      1.0D-11
 AO integral compression algorithm  1   Integral accuracy      1.0D-11

     1.573 MB (compressed) written to integral file ( 59.0%)


 NUMBER OF SORTED TWO-ELECTRON INTEGRALS:     222111.     BUFFER LENGTH:  32768
 NUMBER OF SEGMENTS:   1  SEGMENT LENGTH:     222111      RECORD LENGTH: 524288

 Memory used in sort:       0.78 MW

 SORT1 READ      284735. AND WROTE      212531. INTEGRALS IN      1 RECORDS. CPU TIME:     0.00 SEC, REAL TIME:     0.00 SEC
 SORT2 READ      212531. AND WROTE      222111. INTEGRALS IN      6 RECORDS. CPU TIME:     0.02 SEC, REAL TIME:     0.03 SEC

 FILE SIZES:   FILE 1:    31.7 MBYTE,  FILE 4:     4.2 MBYTE,   TOTAL:     35.9 MBYTE

 OPERATOR DM      FOR CENTER  0  COORDINATES:    0.000000    0.000000    0.000000


 **********************************************************************************************************************************
 DATASETS  * FILE   NREC   LENGTH (MB)   RECORD NAMES
              1      19       31.13       500      610      700      900      950      970     1000      129      960     1100   
                                          VAR    BASINP    GEOM    SYMINP    ZMAT    AOBASIS   BASIS     P2S    ABASIS      S 
                                         1400     1410     1200     1210     1080     1600     1650     1300     1700   
                                           T        V       H0       H01     AOSYM     SMH    MOLCAS    ERIS     OPER   

 PROGRAMS   *        TOTAL       INT
 CPU TIMES  *         0.31      0.21
 REAL TIME  *         0.54 SEC
 DISK USED  *        36.24 MB
 **********************************************************************************************************************************


 PROGRAM * RHF-SCF (CLOSED SHELL)       Authors: W. Meyer, H.-J. Werner


 NUMBER OF ELECTRONS:       8+    8-    SPACE SYMMETRY=1    SPIN SYMMETRY: Singlet 
 CONVERGENCE THRESHOLDS:    1.00E-05 (Density)    1.00E-07 (Energy)
 MAX. NUMBER OF ITERATIONS:       60
 INTERPOLATION TYPE:            DIIS
 INTERPOLATION STEPS:              2 (START)      1 (STEP)
 LEVEL SHIFTS:                  0.00 (CLOSED)  0.00 (OPEN) 



 Orbital guess generated from atomic densities. Full valence occupancy:    8

 Molecular orbital dump at record        2100.2

 Initial occupancy:   8

 ITERATION    DDIFF          GRAD             ENERGY        2-EL.EN.            DIPOLE MOMENTS         DIIS   ORB.
    1      0.000D+00      0.000D+00       -77.81608687    115.193885    0.00012   -0.00009   -0.00010    0    start
    2      0.000D+00      0.688D-02       -77.83389209    114.217709    0.00004    0.00003   -0.00001    1    diag
    3      0.754D-02      0.226D-02       -77.83598592    114.623131    0.00011   -0.00001   -0.00010    2    diag
    4      0.300D-02      0.816D-03       -77.83640990    114.486536    0.00006    0.00003   -0.00002    3    diag
    5      0.161D-02      0.277D-03       -77.83652369    114.493160    0.00013   -0.00001   -0.00012    4    diag
    6      0.917D-03      0.118D-03       -77.83656058    114.494047   -0.00002    0.00010    0.00011    5    diag
    7      0.523D-03      0.474D-04       -77.83656707    114.495458    0.00032   -0.00015   -0.00042    6    diag
    8      0.245D-03      0.166D-04       -77.83656764    114.495888   -0.00016    0.00020    0.00033    7    diag
    9      0.723D-04      0.903D-05       -77.83656771    114.495967    0.00013   -0.00001   -0.00013    8    diag
   10      0.221D-04      0.267D-05       -77.83656772    114.495943    0.00008    0.00002   -0.00006    9    orth
   11      0.728D-05      0.587D-06       -77.83656772    114.495950    0.00009    0.00002   -0.00006    0    orth

 Final occupancy:   8

 !RHF STATE  1.1 Energy               -77.836567722390
 Nuclear energy                        31.99857371
 One-electron energy                 -167.08311663
 Two-electron energy                   57.24797520
 Virial quotient                       -1.00290495
 !RHF STATE  1.1 Dipole moment          0.00008848     0.00001631    -0.00006305
 Dipole moment /Debye                   0.00022489     0.00004145    -0.00016025

 ELECTRON ORBITALS
 =================

  Orbital  Occupation    Energy     Coefficients
    1.1     2.00000   -11.26915     1 1s    0.69958     2 1s    0.70931
    2.1     2.00000   -11.26830     1 1s   -0.70941     2 1s    0.69968
    3.1     2.00000    -1.03226     1 1s    0.28319     1 1s    0.25223     2 1s    0.28319     2 1s    0.25222
    4.1     2.00000    -0.77818     1 1s   -0.29902     2 1s    0.29903
    5.1     2.00000    -0.61087     1 2py   0.30017     2 2py   0.30015
    6.1     2.00000    -0.56346     1 2px   0.30407     2 2px  -0.30406
    7.1     2.00000    -0.39509     1 2pz   0.30906     1 2pz   0.28220     2 2pz   0.30900     2 2pz   0.28217
    8.1     2.00000    -0.37627     1 2px   0.26390     2 2px  -0.26384     4 1s   -0.30294     5 1s   -0.30290
    9.1     0.00000     0.05996     1 1s    0.41605     1 2pz   0.32861     1 2pz   0.45537     2 1s    0.41607     2 2pz  -0.32862
                                    2 2pz  -0.45539
   10.1     0.00000     0.21817     1 1s   -0.94249     1 2px   0.44874     1 2py   0.40780     1 2pz   0.40036     2 1s   -0.94253
                                    2 2px  -0.44875     2 2py  -0.40766     2 2pz  -0.40034     3 1s    0.46700     4 1s    1.00286
                                    5 1s    1.00275     6 1s    0.46708
   11.1     0.00000     0.27966     1 1s    1.50217     1 2py   0.38469     1 2pz  -0.44411     2 1s   -1.50245     2 2py   0.38536
                                    2 2pz  -0.44428     3 1s   -1.43626     6 1s    1.43703
   12.1     0.00000     0.30885     1 1s   -0.84772     1 2px   0.43260     1 2py  -0.96240     1 2pz   0.48757     2 1s   -0.84642
                                    2 2px  -0.43272     2 2py   0.96209     2 2pz  -0.48712     3 1s    1.58468     4 1s   -0.31291
                                    5 1s   -0.31277     6 1s    1.58356
   13.1     0.00000     0.31792     1 1s   -0.92488     1 2px   0.32319     1 2py   0.66882     1 2pz   0.29441     2 1s    0.92503
                                    2 2px   0.32330     2 2py   0.66903     2 2pz   0.29447     4 1s    1.54038     5 1s   -1.54068
   14.1     0.00000     0.42479     1 1s    2.08186     1 2px   1.76612     1 2py  -0.67400     1 2pz  -0.81398     2 1s   -2.08189
                                    2 2px   1.76611     2 2py  -0.67397     2 2pz  -0.81403     3 1s    0.60764     4 1s   -0.26874
                                    5 1s    0.26874     6 1s   -0.60764
   15.1     0.00000     0.70376     1 2px  -0.55147     1 2px   0.92931     2 2px   0.55139     2 2px  -0.92924     4 1s   -0.42835
                                    5 1s   -0.42828
   16.1     0.00000     0.76330     1 2py  -0.36502     1 2px  -0.62609     1 2py   0.72428     2 2py  -0.36469     2 2px  -0.62618
                                    2 2py   0.72361     3 1s   -0.49800     6 1s    0.49799
   17.1     0.00000     0.79975     1 2pz   0.61323     1 2pz  -0.58337     2 2py   0.26669     2 2pz   0.77713     2 2py  -0.51973
                                    2 2pz  -0.72671     5 1s    0.25854
   18.1     0.00000     0.79977     1 2py   0.61088     1 2pz   0.47836     1 2py  -1.20793     1 2pz  -0.43342     2 1s   -0.29581
                                    2 2py  -0.56072     2 2py   1.11440     4 1s   -0.31596
   19.1     0.00000     0.86207     1 1s   -0.35427     1 2pz  -0.67611     1 2px   0.46875     1 2py  -0.57162     1 2pz   0.95501
                                    2 1s   -0.35429     2 2pz   0.67613     2 2px  -0.46908     2 2py   0.57197     2 2pz  -0.95489
   20.1     0.00000     0.97052     1 1s   -0.33998     1 2px   0.70096     1 2py   0.40721     1 2px  -1.13605     1 2py  -0.77624
                                    2 1s    0.33999     2 2px   0.70093     2 2py   0.40720     2 2px  -1.13613     2 2py  -0.77627
                                    4 1s   -0.99956     5 1s    0.99957
   21.1     0.00000     1.08294     1 1s   -0.66113     1 1s    1.19618     1 2px   0.26726     1 2py   0.34953     1 2px  -0.36043
                                    1 2py  -0.33135     2 1s   -0.66089     2 1s    1.19589     2 2px  -0.26750     2 2py  -0.34907
                                    2 2px   0.36056     2 2py   0.33078     4 1s    0.67395     4 1s   -1.15131     5 1s    0.67317
                                    5 1s   -1.15028
   22.1     0.00000     1.11391     1 1s   -0.33795     1 2px   0.29116     1 2py  -0.56814     1 2px  -0.35023     1 2py   0.81470
                                    2 1s    0.33866     2 2px   0.29096     2 2py  -0.56862     2 2px  -0.34997     2 2py   0.81520
                                    3 1s    0.25784     3 1s   -0.72919     4 1s   -0.62666     4 1s    1.00682     5 1s    0.62735
                                    5 1s   -1.00791     6 1s   -0.25818     6 1s    0.72954
   23.1     0.00000     1.15227     1 1s    0.37632     1 2px  -0.32658     1 2px   0.94757     1 2py  -0.48233     2 1s   -0.37762
                                    2 2px  -0.32731     2 2px   0.94820     2 2py  -0.48287     3 1s   -0.57845     3 1s    1.17079
                                    4 1s   -0.48253     4 1s    0.48323     5 1s    0.48277     5 1s   -0.48343     6 1s    0.58032
                                    6 1s   -1.17312
   24.1     0.00000     1.18367     1 1s   -0.49319     1 1s    0.75399     1 2px   0.27595     1 2py  -0.32407     1 2py   0.28767
                                    2 1s   -0.49243     2 1s    0.75425     2 2px  -0.27515     2 2py   0.32339     2 2py  -0.28610
                                    3 1s    0.79979     3 1s   -1.02059     6 1s    0.79830     6 1s   -1.01756
   25.1     0.00000     1.25911     1 1s   -1.23581     1 1s    2.14514     1 2px  -0.54938     1 2py   0.55645     1 2pz  -0.99632
                                    2 1s   -1.23722     2 1s    2.14911     2 2px   0.54840     2 2py  -0.55575     2 2pz   0.99717
                                    3 1s   -0.36102     3 1s   -0.97936     4 1s   -0.42376     4 1s   -0.30784     5 1s   -0.42389
                                    5 1s   -0.30848     6 1s   -0.36108     6 1s   -0.97948
   26.1     0.00000     1.28203     1 1s   -1.57346     1 1s    4.96429     1 2px   1.27622     1 2py  -0.72496     1 2pz  -1.20122
                                    2 1s    1.57230     2 1s   -4.96230     2 2px   1.27664     2 2py  -0.72551     2 2pz  -1.20033
                                    3 1s   -0.44152     4 1s   -0.29068     4 1s   -0.50664     5 1s    0.29033     5 1s    0.50642
                                    6 1s    0.44048
   27.1     0.00000     1.70052     1 1s    0.59037     1 3d0   0.35625     1 3d2- -0.29007     1 3d2+ -0.32987     2 1s   -0.59033
                                    2 3d0  -0.35619     2 3d2-  0.29006     2 3d2+  0.32993
   28.1     0.00000     1.91344     1 1s    0.30351     1 1s   -0.61693     1 2pz   0.32953     1 3d0   0.35737     1 3d1+  0.33619
                                    1 3d2+  0.35477     1 3d1-  0.31102     2 1s    0.30352     2 1s   -0.61682     2 2pz  -0.32947
                                    2 3d0   0.35747     2 3d1+  0.33607     2 3d2+  0.35473     2 3d1-  0.31093     3 1s    0.26706
                                    6 1s    0.26701
   29.1     0.00000     1.93821     1 1s    0.32583     1 1s   -1.38860     1 2px  -0.32845     1 2pz   0.36570     1 3d2-  0.30808
                                    1 3d1+ -0.38704     1 3d1- -0.38992     2 1s   -0.32570     2 1s    1.38841     2 2px  -0.32841
                                    2 2pz   0.36561     2 3d2- -0.30813     2 3d1+  0.38712     2 3d1-  0.38994     3 1s    0.33206
                                    6 1s   -0.33203
   30.1     0.00000     2.16065     1 1s    0.32282     1 1s   -1.44973     1 2px  -0.34254     1 2py   0.25165     1 2pz   0.39491
                                    1 3d0   0.55994     1 3d2+  0.37461     2 1s   -0.32279     2 1s    1.44973     2 2px  -0.34245
                                    2 2py   0.25157     2 2pz   0.39493     2 3d0  -0.55984     2 3d2+ -0.37458     3 1s    0.30212
                                    4 1s    0.31072     5 1s   -0.31062     6 1s   -0.30218
   31.1     0.00000     2.23703     1 1s    0.46507     1 1s   -0.32577     1 2px   0.25517     1 3d2-  0.36029     1 3d1+  0.41270
                                    1 3d2+ -0.37643     2 1s    0.46500     2 1s   -0.32548     2 2px  -0.25516     2 3d2-  0.36018
                                    2 3d1+  0.41272     2 3d2+ -0.37643
   32.1     0.00000     2.31526     1 2px  -0.25565     1 2py   0.41681     1 3d0   0.51677     1 3d2- -0.27707     1 3d1- -0.42934
                                    2 2px   0.25600     2 2py  -0.41702     2 3d0   0.51691     2 3d2- -0.27714     2 3d1- -0.42951
                                    3 1s   -0.30666     4 1s    0.34985     5 1s    0.35009     6 1s   -0.30655
   33.1     0.00000     2.54552     1 2py  -0.25222     1 3d2-  0.49816     1 3d1-  0.58204     2 2py  -0.25211     2 3d2- -0.49833
                                    2 3d1- -0.58192     3 1s    0.51175     4 1s   -0.34653     5 1s    0.34661     6 1s   -0.51163
   34.1     0.00000     2.62931     1 2py   0.30456     1 3d2-  0.43941     1 3d2+  0.51562     1 3d1- -0.49959     2 2py  -0.30463
                                    2 3d2-  0.43937     2 3d2+  0.51559     2 3d1- -0.49964     4 1s    0.31434     5 1s    0.31439
   35.1     0.00000     2.71221     1 3d0  -0.41969     1 3d2- -0.50253     1 3d1+  0.50361     2 3d0  -0.41970     2 3d2- -0.50236
                                    2 3d1+  0.50364     3 1s   -0.46956     6 1s   -0.46938
   36.1     0.00000     2.95139     1 1s   -1.78558     1 2px  -0.43420     1 2px  -0.89691     1 2py   0.26719     1 2pz   0.46192
                                    1 3d2-  0.34096     1 3d1+  0.70277     1 3d2+ -0.62882     2 1s    1.78557     2 2px  -0.43420
                                    2 2px  -0.89690     2 2py   0.26716     2 2pz   0.46191     2 3d2- -0.34103     2 3d1+ -0.70269
                                    2 3d2+  0.62884


 HOMO      8.1    -0.376272 =     -10.2389eV
 LUMO      9.1     0.059957 =       1.6315eV
 LUMO-HOMO         0.436230 =      11.8704eV


 **********************************************************************************************************************************
 DATASETS  * FILE   NREC   LENGTH (MB)   RECORD NAMES
              1      19       31.13       500      610      700      900      950      970     1000      129      960     1100   
                                          VAR    BASINP    GEOM    SYMINP    ZMAT    AOBASIS   BASIS     P2S    ABASIS      S 
                                         1400     1410     1200     1210     1080     1600     1650     1300     1700   
                                           T        V       H0       H01     AOSYM     SMH    MOLCAS    ERIS     OPER   

              2       4        2.86       700     1000      520     2100   
                                         GEOM     BASIS   MCVARS     RHF  

 PROGRAMS   *        TOTAL    HF-SCF       INT
 CPU TIMES  *         0.42      0.10      0.21
 REAL TIME  *         0.79 SEC
 DISK USED  *        36.24 MB
 **********************************************************************************************************************************


 PROGRAM * MULTI (Direct Multiconfiguration SCF)       Authors: P.J. Knowles, H.-J. Werner (1984)


 Number of closed-shell orbitals:   7 (   7 )
 Number of active  orbitals:        2 (   2 )
 Number of external orbitals:      27 (  27 )

 State symmetry 1

 Number of electrons:     2    Spin symmetry=Singlet   Space symmetry=1
 Number of states:        3
 Number of CSFs:          3   (4 determinants, 4 intermediate states)

 Molecular orbitals read from record     2100.2  Type=RHF/CANONICAL (state 1.1)

 Wavefunction dump at record             2140.2

 Convergence thresholds  0.10E-01 (gradient)  0.10E-05 (energy)  0.10E-02 (step length)

 Weight factors for state symmetry  1:    0.33333   0.33333   0.33333

 Number of orbital rotations:      257   (    14 Core/Active    189 Core/Virtual   0 Active/Active     54 Active/Virtual)
 Total number of variables:        269

 Micro-Iterations solved by the two-step solver

 ITER. MIC  NCI  NEG     ENERGY(VAR)     ENERGY(PROJ)   ENERGY CHANGE     GRAD(0)  GRAD(ORB)   GRAD(CI)     STEP       TIME

   1    6    5    0     -77.68820734     -77.70675720   -0.01854986    0.16131881 0.00131745 0.00000000  0.14D+00      0.10
   2    5    5    0     -77.70649343     -77.70651143   -0.00001800    0.00623363 0.00000370 0.00000000  0.47D-02      0.19
   3    4    4    0     -77.70651146     -77.70651146   -0.00000000    0.00001233 0.00000000 0.00000000  0.20D-04      0.27

 ** WVFN ****  CONVERGENCE REACHED, FINAL GRADIENT:  0.18D-09



 Results for state 1.1
 =====================

 !MCSCF STATE  1.1 Energy             -77.830522113084
 Nuclear energy                        31.99857371
 Kinetic energy                        77.64358083
 One electron energy                 -167.11863508
 Two electron energy                   57.28953926
 Virial ratio                           2.00240768

 !MCSCF STATE  1.1 Dipole moment        0.00008704     0.00004701    -0.00006865
 Dipole moment /Debye                   0.00022122     0.00011949    -0.00017447

 Results for state 2.1
 =====================

 !MCSCF STATE  2.1 Energy             -77.734107187951
 Nuclear energy                        31.99857371
 Kinetic energy                        77.75071223
 One electron energy                 -166.89225994
 Two electron energy                   57.15957905
 Virial ratio                           1.99978643

 !MCSCF STATE  2.1 Dipole moment        0.00005993    -0.00004164    -0.00005488
 Dipole moment /Debye                   0.00015233    -0.00010584    -0.00013949

 Results for state 3.1
 =====================

 !MCSCF STATE  3.1 Energy             -77.554905067724
 Nuclear energy                        31.99857371
 Kinetic energy                        77.84724233
 One electron energy                 -166.75639387
 Two electron energy                   57.20291509
 Virial ratio                           1.99624473

 !MCSCF STATE  3.1 Dipole moment       -0.00001774    -0.00011785    -0.00000874
 Dipole moment /Debye                  -0.00004508    -0.00029953    -0.00002221

 State-averaged charge density matrix saved on record  2140.2 (density set 1)

 !MCSCF expec         <1.1|DMX|1.1>     0.000087041502 au =     0.000221222941 Debye
 !MCSCF trans         <2.1|DMX|1.1>     0.000078567563 au =     0.000199685748 Debye
 !MCSCF expec         <2.1|DMX|2.1>     0.000059933794 au =     0.000152326532 Debye
 !MCSCF trans         <3.1|DMX|1.1>    -0.000003082821 au =    -0.000007835236 Debye
 !MCSCF trans         <3.1|DMX|2.1>     0.000081330180 au =     0.000206707160 Debye
 !MCSCF expec         <3.1|DMX|3.1>    -0.000017738024 au =    -0.000045082608 Debye

 !MCSCF expec         <1.1|DMY|1.1>     0.000047012509 au =     0.000119486052 Debye
 !MCSCF trans         <2.1|DMY|1.1>    -0.000014059109 au =    -0.000035732350 Debye
 !MCSCF expec         <2.1|DMY|2.1>    -0.000041642122 au =    -0.000105836785 Debye
 !MCSCF trans         <3.1|DMY|1.1>     0.000010564197 au =     0.000026849752 Debye
 !MCSCF trans         <3.1|DMY|2.1>    -0.000024775750 au =    -0.000062969551 Debye
 !MCSCF expec         <3.1|DMY|3.1>    -0.000117853281 au =    -0.000299533542 Debye

 !MCSCF expec         <1.1|DMZ|1.1>    -0.000068645277 au =    -0.000174467463 Debye
 !MCSCF trans         <2.1|DMZ|1.1>    -0.000050121714 au =    -0.000127388345 Debye
 !MCSCF expec         <2.1|DMZ|2.1>    -0.000054884110 au =    -0.000139492357 Debye
 !MCSCF trans         <3.1|DMZ|1.1>     0.000002344877 au =     0.000005959694 Debye
 !MCSCF trans         <3.1|DMZ|2.1>    -0.000052270242 au =    -0.000132849002 Debye
 !MCSCF expec         <3.1|DMZ|3.1>    -0.000008737612 au =    -0.000022207339 Debye


 NATURAL ORBITALS (state averaged)
 =================================

  Orbital  Occupation    Energy     Coefficients
    1.1     2.00000   -11.25961     1 1s    0.70275     2 1s    0.70614
    2.1     2.00000   -11.25887     1 1s   -0.70621     2 1s    0.70281
    3.1     2.00000    -1.04129     1 1s    0.27732     2 1s    0.27732
    4.1     2.00000    -0.77619     1 1s   -0.32418     2 1s    0.32420
    5.1     2.00000    -0.61228     1 2py   0.29328     2 2py   0.29325
    6.1     2.00000    -0.55895     1 2px   0.26545     2 2px  -0.26544
    7.1     2.00000    -0.41959     1 2pz   0.32364     1 2pz   0.27779     2 2pz   0.32362     2 2pz   0.27778
    8.1     1.00000    -0.22370     1 2px   0.30032     2 2px  -0.30030     4 1s   -0.31089     5 1s   -0.31087
    9.1     1.00000    -0.08716     1 1s    0.28088     1 2pz   0.39936     1 2pz   0.42530     2 1s    0.28089     2 2pz  -0.39937
                                    2 2pz  -0.42532
   10.1    -0.00000     0.20762     1 1s   -0.96774     1 2px   0.45260     1 2py   0.40801     1 2pz   0.34645     2 1s   -0.96771
                                    2 2px  -0.45262     2 2py  -0.40785     2 2pz  -0.34641     3 1s    0.46243     4 1s    1.00653
                                    5 1s    1.00637     6 1s    0.46249
   11.1    -0.00000     0.28033     1 1s    1.60645     1 2py   0.30685     1 2pz  -0.46816     2 1s   -1.60674     2 2py   0.30742
                                    2 2pz  -0.46829     3 1s   -1.43492     6 1s    1.43557
   12.1    -0.00000     0.30401     1 1s   -0.87841     1 2py   0.76645     1 2pz   0.29055     2 1s    0.87861     2 2py   0.76670
                                    2 2pz   0.29063     4 1s    1.56180     5 1s   -1.56214
   13.1    -0.00000     0.31298     1 1s   -0.88516     1 2px   0.42648     1 2py  -0.96412     1 2pz   0.45703     2 1s   -0.88396
                                    2 2px  -0.42655     2 2py   0.96386     2 2pz  -0.45662     3 1s    1.59474     4 1s   -0.28732
                                    5 1s   -0.28727     6 1s    1.59371
   14.1    -0.00000     0.43172     1 1s    1.97409     1 2px   1.78138     1 2py  -0.58431     1 2pz  -0.76408     2 1s   -1.97410
                                    2 2px   1.78137     2 2py  -0.58429     2 2pz  -0.76413     3 1s    0.61422     6 1s   -0.61424
   15.1    -0.00000     0.70268     1 2px  -0.53884     1 2px   0.90731     2 2px   0.53876     2 2px  -0.90723     4 1s   -0.49279
                                    5 1s   -0.49271
   16.1    -0.00000     0.76219     1 1s   -0.26430     1 2py  -0.35678     1 2px  -0.66635     1 2py   0.73810     2 1s    0.26458
                                    2 2py  -0.35642     2 2px  -0.66638     2 2py   0.73734     3 1s   -0.49542     6 1s    0.49539
   17.1    -0.00000     0.80065     1 2py   0.59178     1 2pz   0.26212     1 2py  -1.20105     1 2pz  -0.29158     2 2py  -0.59235
                                    2 2pz  -0.26695     2 2py   1.20259     2 2pz   0.29677     4 1s   -0.28133     5 1s   -0.28269
   18.1    -0.00000     0.80247     1 1s    0.30534     1 2pz   0.72841     1 2pz  -0.75643     2 1s   -0.30699     2 2pz   0.72660
                                    2 2pz  -0.75439
   19.1    -0.00000     0.86270     1 1s   -0.31096     1 2px  -0.25857     1 2pz  -0.65373     1 2px   0.50387     1 2py  -0.56985
                                    1 2pz   1.00535     2 1s   -0.31099     2 2px   0.25864     2 2pz   0.65380     2 2px  -0.50421
                                    2 2py   0.57020     2 2pz  -1.00528     3 1s    0.28519     6 1s    0.28533
   20.1    -0.00000     0.97936     1 2px   0.69777     1 2py   0.42051     1 2px  -1.05337     1 2py  -0.80385     2 2px   0.69773
                                    2 2py   0.42048     2 2px  -1.05344     2 2py  -0.80386     4 1s   -0.97921     5 1s    0.97917
   21.1    -0.00000     1.05739     1 1s   -0.62391     1 1s    1.11917     1 2px   0.28738     1 2py   0.37780     1 2px  -0.35867
                                    1 2py  -0.38553     2 1s   -0.62347     2 1s    1.11869     2 2px  -0.28769     2 2py  -0.37713
                                    2 2px   0.35868     2 2py   0.38476     4 1s    0.67629     4 1s   -1.12065     5 1s    0.67507
                                    5 1s   -1.11902
   22.1    -0.00000     1.08350     1 1s    0.28324     1 1s   -0.34551     1 2py  -0.48351     1 2py   0.61042     2 1s   -0.28413
                                    2 1s    0.34712     2 2py  -0.48413     2 2py   0.61107     3 1s   -0.27816     4 1s   -0.75340
                                    4 1s    1.11767     5 1s    0.75450     5 1s   -1.11938     6 1s    0.27810
   23.1    -0.00000     1.14974     1 1s    0.26533     1 2px  -0.42921     1 2py   0.34875     1 2px   1.06645     1 2py  -0.72269
                                    2 1s   -0.26625     2 2px  -0.42971     2 2py   0.34929     2 2px   1.06684     2 2py  -0.72316
                                    3 1s   -0.63127     3 1s    1.33855     6 1s    0.63277     6 1s   -1.34031
   24.1    -0.00000     1.19036     1 1s   -0.44034     1 1s    0.64997     1 2px   0.26754     1 2py  -0.32498     1 2py   0.26418
                                    2 1s   -0.43990     2 1s    0.65057     2 2px  -0.26683     2 2py   0.32430     2 2py  -0.26272
                                    3 1s    0.81565     3 1s   -0.96926     6 1s    0.81445     6 1s   -0.96680
   25.1    -0.00000     1.25166     1 1s   -1.28500     1 1s    2.22854     1 2px  -0.56730     1 2py   0.57895     1 2pz  -0.99321
                                    2 1s   -1.28607     2 1s    2.23150     2 2px   0.56655     2 2py  -0.57841     2 2pz   0.99380
                                    3 1s   -0.33091     3 1s   -1.02847     4 1s   -0.39296     4 1s   -0.35037     5 1s   -0.39306
                                    5 1s   -0.35086     6 1s   -0.33098     6 1s   -1.02847
   26.1    -0.00000     1.27713     1 1s   -1.58838     1 1s    4.98006     1 2px   1.28206     1 2py  -0.69316     1 2pz  -1.18823
                                    2 1s    1.58744     2 1s   -4.97846     2 2px   1.28238     2 2py  -0.69362     2 2pz  -1.18754
                                    3 1s   -0.46407     4 1s   -0.28099     4 1s   -0.49062     5 1s    0.28075     5 1s    0.49044
                                    6 1s    0.46320
   27.1    -0.00000     1.69842     1 1s    0.61765     1 3d0   0.34924     1 3d2- -0.29472     1 3d2+ -0.33214     2 1s   -0.61760
                                    2 3d0  -0.34918     2 3d2-  0.29470     2 3d2+  0.33219
   28.1    -0.00000     1.91320     1 1s    0.29235     1 1s   -0.60326     1 2pz   0.32200     1 3d0   0.35574     1 3d1+  0.33137
                                    1 3d2+  0.36236     1 3d1-  0.30922     2 1s    0.29238     2 1s   -0.60322     2 2pz  -0.32196
                                    2 3d0   0.35584     2 3d1+  0.33121     2 3d2+  0.36230     2 3d1-  0.30910     3 1s    0.26244
                                    6 1s    0.26239
   29.1    -0.00000     1.93805     1 1s    0.31669     1 1s   -1.35019     1 2px  -0.31619     1 2pz   0.35514     1 3d2-  0.30525
                                    1 3d1+ -0.39076     1 3d1- -0.38836     2 1s   -0.31655     2 1s    1.34997     2 2px  -0.31616
                                    2 2pz   0.35503     2 3d2- -0.30530     2 3d1+  0.39086     2 3d1-  0.38840     3 1s    0.33360
                                    6 1s   -0.33355
   30.1    -0.00000     2.16298     1 1s    0.32481     1 1s   -1.43178     1 2px  -0.33556     1 2py   0.25247     1 2pz   0.38758
                                    1 3d0   0.56345     1 3d2+  0.37697     2 1s   -0.32480     2 1s    1.43181     2 2px  -0.33547
                                    2 2py   0.25238     2 2pz   0.38761     2 3d0  -0.56335     2 3d2+ -0.37693     3 1s    0.30015
                                    4 1s    0.30476     5 1s   -0.30465     6 1s   -0.30022
   31.1    -0.00000     2.23386     1 1s    0.45304     1 1s   -0.32909     1 2px   0.25888     1 3d2-  0.37266     1 3d1+  0.41701
                                    1 3d2+ -0.37028     2 1s    0.45295     2 1s   -0.32869     2 2px  -0.25888     2 3d2-  0.37255
                                    2 3d1+  0.41703     2 3d2+ -0.37029
   32.1    -0.00000     2.31384     1 2px  -0.27083     1 2py   0.42706     1 3d0   0.51570     1 3d2- -0.26473     1 3d1- -0.43524
                                    2 2px   0.27118     2 2py  -0.42728     2 3d0   0.51585     2 3d2- -0.26480     2 3d1- -0.43541
                                    3 1s   -0.31311     4 1s    0.33348     5 1s    0.33371     6 1s   -0.31300
   33.1    -0.00000     2.54334     1 2py  -0.25170     1 3d2-  0.49989     1 3d1-  0.58319     2 2py  -0.25159     2 3d2- -0.50005
                                    2 3d1- -0.58307     3 1s    0.51510     4 1s   -0.33722     5 1s    0.33729     6 1s   -0.51496
   34.1    -0.00000     2.62460     1 2py   0.30699     1 3d2-  0.45418     1 3d2+  0.50941     1 3d1- -0.49698     2 2py  -0.30706
                                    2 3d2-  0.45414     2 3d2+  0.50939     2 3d1- -0.49704     4 1s    0.30390     5 1s    0.30394
   35.1    -0.00000     2.72039     1 3d0  -0.42795     1 3d2- -0.48558     1 3d1+  0.50798     2 3d0  -0.42795     2 3d2- -0.48542
                                    2 3d1+  0.50803     3 1s   -0.46693     6 1s   -0.46676
   36.1    -0.00000     2.95077     1 1s   -1.81150     1 2px  -0.42791     1 2px  -0.90750     1 2py   0.27396     1 2pz   0.46878
                                    1 3d2-  0.33926     1 3d1+  0.70517     1 3d2+ -0.62612     2 1s    1.81150     2 2px  -0.42791
                                    2 2px  -0.90749     2 2py   0.27392     2 2pz   0.46878     2 3d2- -0.33934     2 3d1+ -0.70510
                                    2 3d2+  0.62614


 Natural orbital dump (state averaged) at molpro section  2140.2    (Orbital set 2)



 **********************************************************************************************************************************
 DATASETS  * FILE   NREC   LENGTH (MB)   RECORD NAMES
              1      20       31.86       500      610      700      900      950      970     1000      129      960     1100   
                                          VAR    BASINP    GEOM    SYMINP    ZMAT    AOBASIS   BASIS     P2S    ABASIS      S 
                                         1400     1410     1200     1210     1080     1600     1650     1300     1700     1380   
                                           T        V       H0       H01     AOSYM     SMH    MOLCAS    ERIS     OPER     JKOP   

              2       5        5.42       700     1000      520     2100     2140   
                                         GEOM     BASIS   MCVARS     RHF     MCSCF   

 PROGRAMS   *        TOTAL     MULTI    HF-SCF       INT
 CPU TIMES  *         0.74      0.33      0.10      0.21
 REAL TIME  *         1.27 SEC
 DISK USED  *        39.04 MB
 **********************************************************************************************************************************
 Molecular orbitals read from record     2140.2  Type=MCSCF/NATURAL (state averaged)
 Occupation numbers read from record     2140.2  Type=MCSCF/NATURAL (state averaged)
 Orbital energies read from record       2140.2  Type=MCSCF/NATURAL (state averaged)
 Redundancy group numbers read from rec  2140.2  Type=MCSCF/NATURAL (state averaged)

 MULTI/6-31G* energy=    -77.554905067724

           MULTI          HF-SCF
    -77.55490507    -77.83656772
 **********************************************************************************************************************************
 Molpro calculation terminated
