
 Primary working directories    : /scratch.local/johan406.molpro_temp/molpro.Vm1ATuuHrg
 Secondary working directories  : /scratch.local/johan406.molpro_temp/molpro.Vm1ATuuHrg
 Wavefunction directory         : /home/goodpast/johan406/wfu/
 Main file repository           : /scratch.local/johan406.molpro_temp/molpro.Vm1ATuuHrg/

 id        : roweumn

 Nodes     nprocs
 acn09        1

 Using customized tuning parameters: mindgm=1; mindgv=20; mindgc=4; mindgr=1; noblas=0; minvec=7
 default implementation of scratch files=df  


 Variables initialized (934), CPU time= 0.00 sec
                                                                                 !leave this line blank
 
 gprint, orbitals=30
 memory, 125., m
 symmetry, nosym
 nelect=16
 basis=6-31g*
 
 geometry={
 C -0.6212 0.1535 0.3066
 C 0.6301 -0.2034 -0.3669
 H -1.275 0.9123 -0.1602
 H -0.9807 -1.0325 -0.2166
 H 0.9896 0.9826 0.1562
 H 1.2839 -0.9622 0.0998
 }
 
 hf
 {multi,
 closed 7
 occ 9
 wf,spin=0;STATE,3
 }
 
 Commands  initialized (763), CPU time= 0.00 sec, 617 directives.
 Default parameters read. Elapsed time= 0.07 sec

 Checking input...
 Passed
1


                                         ***  PROGRAM SYSTEM MOLPRO  ***
                                       Copyright, TTI GmbH Stuttgart, 2015
                                    Version 2019.2 linked Oct 25 2019 22:50:27


 **********************************************************************************************************************************
 LABEL *                                                                                 
  64 bit serial version                                                                  DATE: 07-Feb-23          TIME: 15:57:07  
 **********************************************************************************************************************************

 SHA1:             8dbd9ae1082e4ce945b0f27595c9eb2d4aa09004
 **********************************************************************************************************************************


 Variable memory set to  125000000 words,  buffer space 

 SETTING NELECT         =        16.00000000                                  
 SETTING BASIS          =    6-31G*
 ZSYMEL=NOSYM


Geometry recognized as XYZ



 Recomputing integrals since basis changed


 Using spherical harmonics

 Library entry C      S 6-31G                selected for orbital group  1
 Library entry C      P 6-31G                selected for orbital group  1
 Library entry C      D 6-31G*               selected for orbital group  1
 Library entry H      S 6-31G                selected for orbital group  2


 PROGRAM * SEWARD (Integral evaluation for generally contracted gaussian basis sets)     Author: Roland Lindh, 1990

 Geometry written to block  1 of record 700


 Point group  C1  



 ATOMIC COORDINATES

 NR  ATOM    CHARGE       X              Y              Z

   1  C       6.00   -1.173897869    0.290072960    0.579390030
   2  C       6.00    1.190716431   -0.384370294   -0.693340515
   3  H       1.00   -2.409400809    1.723997143   -0.302734125
   4  H       1.00   -1.853254410   -1.951142224   -0.409314679
   5  H       1.00    1.870072973    1.856844890    0.295175221
   6  H       1.00    2.426219371   -1.818294477    0.188594667

 Bond lengths in Bohr (Angstrom)

 1-2  2.768775457  1-3  2.088240672  1-4  2.542067625  2-5  2.541994133  2-6  2.088160852
     ( 1.465172874)     ( 1.105049374)     ( 1.345204256)     ( 1.345165365)     ( 1.105007136)

 Bond angles

  1-2-5   80.48654123   1-2-6  118.58300850   2-1-3  118.57910122   2-1-4   80.48483365

  3-1-4  106.43859634   5-2-6  106.44370967

 NUCLEAR CHARGE:                   16
 NUMBER OF PRIMITIVE AOS:          72
 NUMBER OF SYMMETRY AOS:           70
 NUMBER OF CONTRACTIONS:           36   (   36A   )
 NUMBER OF CORE ORBITALS:           2   (    2A   )
 NUMBER OF VALENCE ORBITALS:       12   (   12A   )


 NUCLEAR REPULSION ENERGY   31.17914132

 Eigenvalues of metric

         1 0.108E-01 0.305E-01 0.627E-01 0.902E-01 0.106E+00 0.227E+00 0.245E+00 0.275E+00


 Contracted 2-electron integrals neglected if value below      1.0D-11
 AO integral compression algorithm  1   Integral accuracy      1.0D-11

     1.573 MB (compressed) written to integral file ( 58.4%)


 NUMBER OF SORTED TWO-ELECTRON INTEGRALS:     222111.     BUFFER LENGTH:  32768
 NUMBER OF SEGMENTS:   1  SEGMENT LENGTH:     222111      RECORD LENGTH: 524288

 Memory used in sort:       0.78 MW

 SORT1 READ      284735. AND WROTE      212531. INTEGRALS IN      1 RECORDS. CPU TIME:     0.00 SEC, REAL TIME:     0.00 SEC
 SORT2 READ      212531. AND WROTE      222111. INTEGRALS IN      6 RECORDS. CPU TIME:     0.02 SEC, REAL TIME:     0.02 SEC

 FILE SIZES:   FILE 1:    31.7 MBYTE,  FILE 4:     4.2 MBYTE,   TOTAL:     35.9 MBYTE

 OPERATOR DM      FOR CENTER  0  COORDINATES:    0.000000    0.000000    0.000000


 **********************************************************************************************************************************
 DATASETS  * FILE   NREC   LENGTH (MB)   RECORD NAMES
              1      19       31.12       500      610      700      900      950      970     1000      129      960     1100   
                                          VAR    BASINP    GEOM    SYMINP    ZMAT    AOBASIS   BASIS     P2S    ABASIS      S 
                                         1400     1410     1200     1210     1080     1600     1650     1300     1700   
                                           T        V       H0       H01     AOSYM     SMH    MOLCAS    ERIS     OPER   

 PROGRAMS   *        TOTAL       INT
 CPU TIMES  *         0.27      0.18
 REAL TIME  *         0.41 SEC
 DISK USED  *        36.24 MB
 **********************************************************************************************************************************


 PROGRAM * RHF-SCF (CLOSED SHELL)       Authors: W. Meyer, H.-J. Werner


 NUMBER OF ELECTRONS:       8+    8-    SPACE SYMMETRY=1    SPIN SYMMETRY: Singlet 
 CONVERGENCE THRESHOLDS:    1.00E-05 (Density)    1.00E-07 (Energy)
 MAX. NUMBER OF ITERATIONS:       60
 INTERPOLATION TYPE:            DIIS
 INTERPOLATION STEPS:              2 (START)      1 (STEP)
 LEVEL SHIFTS:                  0.00 (CLOSED)  0.00 (OPEN) 



 Orbital guess generated from atomic densities. Full valence occupancy:    8

 Molecular orbital dump at record        2100.2

 Initial occupancy:   8

 ITERATION    DDIFF          GRAD             ENERGY        2-EL.EN.            DIPOLE MOMENTS         DIIS   ORB.
    1      0.000D+00      0.000D+00       -77.77335851    113.494498    0.00006    0.00001   -0.00011    0    start
    2      0.000D+00      0.664D-02       -77.79155589    112.573662    0.00008    0.00002   -0.00006    1    diag
    3      0.773D-02      0.231D-02       -77.79384565    112.962431    0.00010    0.00001   -0.00009    2    diag
    4      0.317D-02      0.815D-03       -77.79426966    112.802286    0.00010    0.00002   -0.00007    3    diag
    5      0.166D-02      0.255D-03       -77.79434279    112.806685    0.00012    0.00001   -0.00010    4    diag
    6      0.803D-03      0.806D-04       -77.79435599    112.805690    0.00009    0.00004   -0.00004    5    diag
    7      0.279D-03      0.396D-04       -77.79436053    112.806311    0.00017   -0.00003   -0.00017    6    diag
    8      0.182D-03      0.181D-04       -77.79436163    112.806787   -0.00001    0.00013    0.00012    7    diag
    9      0.119D-03      0.606D-05       -77.79436169    112.806826    0.00020   -0.00006   -0.00023    8    diag
   10      0.222D-04      0.336D-05       -77.79436170    112.806825    0.00010    0.00003   -0.00007    9    orth
   11      0.863D-05      0.825D-06       -77.79436170    112.806838    0.00012    0.00001   -0.00009    0    orth

 Final occupancy:   8

 !RHF STATE  1.1 Energy               -77.794361698069
 Nuclear energy                        31.17914132
 One-electron energy                 -165.37692203
 Two-electron energy                   56.40341901
 Virial quotient                       -1.00602520
 !RHF STATE  1.1 Dipole moment          0.00011657     0.00001268    -0.00009100
 Dipole moment /Debye                   0.00029627     0.00003223    -0.00023129

 ELECTRON ORBITALS
 =================

  Orbital  Occupation    Energy     Coefficients
    1.1     2.00000   -11.29183     1 1s    0.70040     2 1s    0.70857
    2.1     2.00000   -11.29097     1 1s    0.70868     2 1s   -0.70050
    3.1     2.00000    -1.02376     1 1s    0.28499     1 1s    0.25801     2 1s    0.28500     2 1s    0.25803
    4.1     2.00000    -0.77099     1 1s   -0.30317     2 1s    0.30315
    5.1     2.00000    -0.58119     1 2py   0.27828     2 2py   0.27851
    6.1     2.00000    -0.56898     1 2px   0.31434     2 2px  -0.31440
    7.1     2.00000    -0.40399     1 2pz   0.30964     1 2pz   0.27276     2 2pz   0.30964     2 2pz   0.27277
    8.1     2.00000    -0.35332     4 1s    0.34397     5 1s    0.34395
    9.1     0.00000     0.04928     1 1s    0.45263     1 2pz   0.32076     1 2pz   0.41634     2 1s    0.45262     2 2pz  -0.32078
                                    2 2pz  -0.41638
   10.1     0.00000     0.18477     1 1s   -0.62577     1 2px   0.38950     1 2py   0.45880     1 2pz   0.34822     2 1s   -0.62579
                                    2 2px  -0.38951     2 2py  -0.45878     2 2pz  -0.34817     3 1s    0.28177     4 1s    0.78851
                                    5 1s    0.78850     6 1s    0.28179
   11.1     0.00000     0.26744     1 1s    0.51944     1 2py   0.26137     1 2py   0.64478     2 1s   -0.51927     2 2py   0.26135
                                    2 2py   0.64472     3 1s   -0.83849     4 1s    0.95009     5 1s   -0.95016     6 1s    0.83828
   12.1     0.00000     0.27671     1 1s   -1.48424     1 2pz   0.47557     2 1s    1.48426     2 2pz   0.47547     3 1s    1.15443
                                    4 1s    0.78928     5 1s   -0.78934     6 1s   -1.15434
   13.1     0.00000     0.30029     1 1s   -0.96255     1 2px   0.48124     1 2py  -0.85981     1 2pz   0.53615     2 1s   -0.96281
                                    2 2px  -0.48126     2 2py   0.85996     2 2pz  -0.53617     3 1s    1.59766     6 1s    1.59801
   14.1     0.00000     0.42715     1 1s    2.11335     1 2px   1.74361     1 2py  -0.71433     1 2pz  -0.84620     2 1s   -2.11325
                                    2 2px   1.74367     2 2py  -0.71440     2 2pz  -0.84619     3 1s    0.56374     4 1s   -0.27405
                                    5 1s    0.27409     6 1s   -0.56390
   15.1     0.00000     0.70354     1 2px  -0.54070     1 2pz   0.28051     1 2px   0.91447     1 2py  -0.27057     2 2px   0.54072
                                    2 2pz  -0.28053     2 2px  -0.91452     2 2py   0.27057     4 1s   -0.41310     5 1s   -0.41308
   16.1     0.00000     0.76821     1 2py   0.31224     1 2pz  -0.32353     1 2px   0.58696     1 2py  -0.57365     1 2pz   0.30415
                                    2 2py   0.31229     2 2pz  -0.32355     2 2px   0.58706     2 2py  -0.57387     2 2pz   0.30422
                                    3 1s    0.48363     6 1s   -0.48367
   17.1     0.00000     0.80288     1 1s    0.25053     1 2pz   0.67218     1 2pz  -0.57128     2 1s   -0.25058     2 2pz   0.67237
                                    2 2pz  -0.57146
   18.1     0.00000     0.82101     1 1s    0.32315     1 2py  -0.63721     1 2pz  -0.35262     1 2py   1.09727     1 2pz   0.32545
                                    2 1s    0.32306     2 2py   0.63711     2 2pz   0.35235     2 2py  -1.09720     2 2pz  -0.32526
   19.1     0.00000     0.85671     1 1s    0.34449     1 2py  -0.33197     1 2pz   0.61267     1 2px  -0.47558     1 2py   0.78659
                                    1 2pz  -0.91539     2 1s    0.34450     2 2py   0.33194     2 2pz  -0.61261     2 2px   0.47569
                                    2 2py  -0.78660     2 2pz   0.91529     3 1s   -0.30893     6 1s   -0.30896
   20.1     0.00000     0.95976     1 1s    0.48232     1 2px  -0.62615     1 2py  -0.51541     1 2px   1.07527     1 2py   0.81998
                                    2 1s   -0.48224     2 2px  -0.62610     2 2py  -0.51542     2 2px   1.07524     2 2py   0.82006
                                    4 1s    1.02066     5 1s   -1.02069
   21.1     0.00000     1.02417     1 1s   -0.67874     1 1s    1.22602     1 2px   0.26648     1 2px  -0.38476     2 1s   -0.67854
                                    2 1s    1.22563     2 2px  -0.26659     2 2px   0.38491     4 1s    0.71027     4 1s   -1.09681
                                    5 1s    0.70991     5 1s   -1.09640
   22.1     0.00000     1.04207     1 1s   -0.39662     1 1s    0.79307     1 2px  -0.28845     1 2py   0.29959     1 2px   0.31462
                                    1 2py  -0.43901     2 1s    0.39684     2 1s   -0.79349     2 2px  -0.28828     2 2py   0.29966
                                    2 2px   0.31445     2 2py  -0.43909     4 1s    0.75181     4 1s   -0.94120     5 1s   -0.75216
                                    5 1s    0.94165
   23.1     0.00000     1.12982     1 1s   -0.33895     1 2px   0.39798     1 2py  -0.40417     1 2px  -0.93709     1 2py   0.72966
                                    2 1s    0.33869     2 2px   0.39789     2 2py  -0.40401     2 2px  -0.93702     2 2py   0.72957
                                    3 1s    0.62458     3 1s   -1.37281     6 1s   -0.62417     6 1s    1.37230
   24.1     0.00000     1.16750     1 1s   -0.29000     1 1s    0.41478     1 2py  -0.30584     2 1s   -0.28967     2 1s    0.41346
                                    2 2py   0.30613     3 1s    0.84239     3 1s   -0.87809     6 1s    0.84273     6 1s   -0.87869
   25.1     0.00000     1.25911     1 1s   -1.26110     1 1s    2.03729     1 2px  -0.55627     1 2py   0.56718     1 2pz  -0.97415
                                    2 1s   -1.26638     2 1s    2.05320     2 2px   0.55190     2 2py  -0.56504     2 2pz   0.97795
                                    3 1s   -0.25279     3 1s   -1.05436     4 1s   -0.46213     5 1s   -0.46325     6 1s   -0.25290
                                    6 1s   -1.05592
   26.1     0.00000     1.27473     1 1s   -1.51533     1 1s    4.62171     1 2px   1.29346     1 2py  -0.66288     1 2pz  -1.14210
                                    2 1s    1.51106     2 1s   -4.61480     2 2px   1.29533     2 2py  -0.66481     2 2pz  -1.13867
                                    3 1s   -0.39563     4 1s   -0.36185     5 1s    0.36026     6 1s    0.39225
   27.1     0.00000     1.70655     1 1s    0.56062     1 3d0   0.35776     1 3d2- -0.27792     1 3d2+ -0.34397     2 1s   -0.56055
                                    2 3d0  -0.35776     2 3d2-  0.27793     2 3d2+  0.34398
   28.1     0.00000     1.89445     1 1s    0.25373     1 1s   -0.48414     1 2pz   0.26368     1 3d0   0.36771     1 3d1+  0.32022
                                    1 3d2+  0.38040     1 3d1-  0.28302     2 1s    0.25332     2 1s   -0.48258     2 2pz  -0.26323
                                    2 3d0   0.36740     2 3d1+  0.32063     2 3d2+  0.38045     2 3d1-  0.28349
   29.1     0.00000     1.92068     1 1s   -0.34278     1 1s    1.32962     1 2px   0.32072     1 2pz  -0.36023     1 3d2- -0.29358
                                    1 3d1+  0.36030     1 3d1-  0.39687     2 1s    0.34302     2 1s   -1.33013     2 2px   0.32054
                                    2 2pz  -0.36049     2 3d2-  0.29346     2 3d1+ -0.35989     2 3d1- -0.39655     3 1s   -0.33027
                                    6 1s    0.33046
   30.1     0.00000     2.11124     1 1s   -0.87978     1 3d0   0.53108     1 3d2+  0.40711     2 1s    0.87992     2 3d0  -0.53109
                                    2 3d2+ -0.40713
   31.1     0.00000     2.17683     1 1s    0.32249     1 1s   -0.35465     1 2pz   0.25360     1 3d2-  0.41507     1 3d1+  0.38408
                                    1 3d2+ -0.26768     2 1s    0.32241     2 1s   -0.35437     2 2pz  -0.25351     2 3d2-  0.41505
                                    2 3d1+  0.38406     2 3d2+ -0.26772
   32.1     0.00000     2.26828     1 1s    0.41221     1 2px  -0.36235     1 2py   0.40461     1 3d0   0.45137     1 3d2+ -0.29068
                                    1 3d1- -0.43049     2 1s    0.41225     2 2px   0.36248     2 2py  -0.40470     2 3d0   0.45138
                                    2 3d2+ -0.29068     2 3d1- -0.43052     3 1s   -0.28177     6 1s   -0.28178
   33.1     0.00000     2.47424     1 1s   -0.41789     1 3d2-  0.52700     1 3d1-  0.54747     2 1s    0.41788     2 3d2- -0.52691
                                    2 3d1- -0.54745     3 1s    0.55103     6 1s   -0.55097
   34.1     0.00000     2.59448     1 2py   0.25957     1 3d2-  0.43574     1 3d2+  0.49987     1 3d1- -0.46808     2 2py  -0.25959
                                    2 3d2-  0.43576     2 3d2+  0.49987     2 3d1- -0.46805
   35.1     0.00000     2.69274     1 3d0  -0.42968     1 3d2- -0.52343     1 3d1+  0.50155     2 3d0  -0.42972     2 3d2- -0.52355
                                    2 3d1+  0.50160     3 1s   -0.45236     6 1s   -0.45255
   36.1     0.00000     2.93700     1 1s   -1.87178     1 2px  -0.42681     1 2px  -0.92920     1 2py   0.30654     1 2pz   0.49556
                                    1 3d2-  0.34559     1 3d1+  0.71102     1 3d2+ -0.59817     2 1s    1.87176     2 2px  -0.42682
                                    2 2px  -0.92920     2 2py   0.30654     2 2pz   0.49556     2 3d2- -0.34559     2 3d1+ -0.71100
                                    2 3d2+  0.59817


 HOMO      8.1    -0.353320 =      -9.6143eV
 LUMO      9.1     0.049284 =       1.3411eV
 LUMO-HOMO         0.402605 =      10.9554eV


 **********************************************************************************************************************************
 DATASETS  * FILE   NREC   LENGTH (MB)   RECORD NAMES
              1      19       31.12       500      610      700      900      950      970     1000      129      960     1100   
                                          VAR    BASINP    GEOM    SYMINP    ZMAT    AOBASIS   BASIS     P2S    ABASIS      S 
                                         1400     1410     1200     1210     1080     1600     1650     1300     1700   
                                           T        V       H0       H01     AOSYM     SMH    MOLCAS    ERIS     OPER   

              2       4        2.86       700     1000      520     2100   
                                         GEOM     BASIS   MCVARS     RHF  

 PROGRAMS   *        TOTAL    HF-SCF       INT
 CPU TIMES  *         0.37      0.10      0.18
 REAL TIME  *         0.57 SEC
 DISK USED  *        36.24 MB
 **********************************************************************************************************************************


 PROGRAM * MULTI (Direct Multiconfiguration SCF)       Authors: P.J. Knowles, H.-J. Werner (1984)


 Number of closed-shell orbitals:   7 (   7 )
 Number of active  orbitals:        2 (   2 )
 Number of external orbitals:      27 (  27 )

 State symmetry 1

 Number of electrons:     2    Spin symmetry=Singlet   Space symmetry=1
 Number of states:        3
 Number of CSFs:          3   (4 determinants, 4 intermediate states)

 Molecular orbitals read from record     2100.2  Type=RHF/CANONICAL (state 1.1)

 Wavefunction dump at record             2140.2

 Convergence thresholds  0.10E-01 (gradient)  0.10E-05 (energy)  0.10E-02 (step length)

 Weight factors for state symmetry  1:    0.33333   0.33333   0.33333

 Number of orbital rotations:      257   (    14 Core/Active    189 Core/Virtual   0 Active/Active     54 Active/Virtual)
 Total number of variables:        269

 Micro-Iterations solved by the two-step solver

 ITER. MIC  NCI  NEG     ENERGY(VAR)     ENERGY(PROJ)   ENERGY CHANGE     GRAD(0)  GRAD(ORB)   GRAD(CI)     STEP       TIME

   1    6    5    0     -77.66341388     -77.67957345   -0.01615958    0.14673197 0.00072194 0.00000000  0.15D+00      0.11
   2    5    5    0     -77.67937430     -77.67939120   -0.00001690    0.00612927 0.00000380 0.00000000  0.47D-02      0.19
   3    4    4    0     -77.67939123     -77.67939123   -0.00000000    0.00001246 0.00000000 0.00000000  0.30D-04      0.25

 ** WVFN ****  CONVERGENCE REACHED, FINAL GRADIENT:  0.28D-09



 Results for state 1.1
 =====================

 !MCSCF STATE  1.1 Energy             -77.789631292211
 Nuclear energy                        31.17914132
 Kinetic energy                        77.31632424
 One electron energy                 -165.34307742
 Two electron energy                   56.37430481
 Virial ratio                           2.00612170

 !MCSCF STATE  1.1 Dipole moment        0.00014542     0.00000888    -0.00011035
 Dipole moment /Debye                   0.00036960     0.00002257    -0.00028046

 Results for state 2.1
 =====================

 !MCSCF STATE  2.1 Energy             -77.705618734578
 Nuclear energy                        31.17914132
 Kinetic energy                        77.47218846
 One electron energy                 -165.21461982
 Two electron energy                   56.32985977
 Virial ratio                           2.00301308

 !MCSCF STATE  2.1 Dipole moment        0.00001630     0.00001078    -0.00002759
 Dipole moment /Debye                   0.00004142     0.00002741    -0.00007013

 Results for state 3.1
 =====================

 !MCSCF STATE  3.1 Energy             -77.542923667793
 Nuclear energy                        31.17914132
 Kinetic energy                        77.67164372
 One electron energy                 -165.43818842
 Two electron energy                   56.71612343
 Virial ratio                           1.99834277

 !MCSCF STATE  3.1 Dipole moment       -0.00006020    -0.00003499    -0.00003991
 Dipole moment /Debye                  -0.00015301    -0.00008892    -0.00010142

 State-averaged charge density matrix saved on record  2140.2 (density set 1)

 !MCSCF expec         <1.1|DMX|1.1>     0.000145420874 au =     0.000369598785 Debye
 !MCSCF trans         <2.1|DMX|1.1>     0.000024648065 au =     0.000062645030 Debye
 !MCSCF expec         <2.1|DMX|2.1>     0.000016295390 au =     0.000041416038 Debye
 !MCSCF trans         <3.1|DMX|1.1>     0.000023245735 au =     0.000059080894 Debye
 !MCSCF trans         <3.1|DMX|2.1>     0.000052811082 au =     0.000134223590 Debye
 !MCSCF expec         <3.1|DMX|3.1>    -0.000060203417 au =    -0.000153011801 Debye

 !MCSCF expec         <1.1|DMY|1.1>     0.000008880082 au =     0.000022569440 Debye
 !MCSCF trans         <2.1|DMY|1.1>    -0.000035734840 au =    -0.000090822956 Debye
 !MCSCF expec         <2.1|DMY|2.1>     0.000010784640 au =     0.000027410026 Debye
 !MCSCF trans         <3.1|DMY|1.1>    -0.000004953764 au =    -0.000012590386 Debye
 !MCSCF trans         <3.1|DMY|2.1>    -0.000036183513 au =    -0.000091963293 Debye
 !MCSCF expec         <3.1|DMY|3.1>    -0.000034987083 au =    -0.000088922471 Debye

 !MCSCF expec         <1.1|DMZ|1.1>    -0.000110348535 au =    -0.000280459631 Debye
 !MCSCF trans         <2.1|DMZ|1.1>    -0.000062059427 au =    -0.000157728999 Debye
 !MCSCF expec         <2.1|DMZ|2.1>    -0.000027592693 au =    -0.000070129037 Debye
 !MCSCF trans         <3.1|DMZ|1.1>    -0.000020928726 au =    -0.000053192032 Debye
 !MCSCF trans         <3.1|DMZ|2.1>    -0.000080152480 au =    -0.000203713941 Debye
 !MCSCF expec         <3.1|DMZ|3.1>    -0.000039906259 au =    -0.000101424951 Debye


 NATURAL ORBITALS (state averaged)
 =================================

  Orbital  Occupation    Energy     Coefficients
    1.1     2.00000   -11.27304     1 1s    0.70734     2 1s    0.70161
    2.1     2.00000   -11.27229     1 1s    0.70168     2 1s   -0.70741
    3.1     2.00000    -1.02448     1 1s    0.27731     1 1s    0.25727     2 1s    0.27732     2 1s    0.25727
    4.1     2.00000    -0.76283     1 1s   -0.32719     2 1s    0.32718
    5.1     2.00000    -0.57889     1 2py   0.26976     2 2py   0.26989
    6.1     2.00000    -0.55805     1 2px   0.27931     2 2px  -0.27933
    7.1     2.00000    -0.42131     1 2pz   0.32115     1 2pz   0.27082     2 2pz   0.32114     2 2pz   0.27081
    8.1     1.00000    -0.09022     1 1s    0.31143     1 2pz   0.38423     1 2pz   0.40993     2 1s    0.31143     2 2pz  -0.38425
                                    2 2pz  -0.40996
    9.1     1.00000    -0.21041     1 2px  -0.27515     2 2px   0.27515     4 1s    0.34914     5 1s    0.34912
   10.1    -0.00000     0.17916     1 1s   -0.68978     1 2px   0.40702     1 2py   0.44174     1 2pz   0.29624     2 1s   -0.68975
                                    2 2px  -0.40701     2 2py  -0.44169     2 2pz  -0.29617     3 1s    0.32173     4 1s    0.79581
                                    5 1s    0.79573     6 1s    0.32173
   11.1    -0.00000     0.26132     1 1s   -0.50758     1 2px   0.25290     1 2py   0.63034     2 1s    0.50779     2 2px   0.25300
                                    2 2py   0.63036     4 1s    1.25172     5 1s   -1.25186
   12.1    -0.00000     0.27689     1 1s   -1.53442     1 2py  -0.29740     1 2pz   0.45866     2 1s    1.53422     2 2py  -0.29718
                                    2 2pz   0.45846     3 1s    1.42200     6 1s   -1.42159
   13.1    -0.00000     0.30755     1 1s   -0.98610     1 2px   0.46800     1 2py  -0.87638     1 2pz   0.50051     2 1s   -0.98659
                                    2 2px  -0.46802     2 2py   0.87658     2 2pz  -0.50060     3 1s    1.60251     6 1s    1.60307
   14.1    -0.00000     0.43690     1 1s    2.06552     1 2px   1.76087     1 2py  -0.65964     1 2pz  -0.81391     2 1s   -2.06542
                                    2 2px   1.76091     2 2py  -0.65971     2 2pz  -0.81390     3 1s    0.57548     6 1s   -0.57564
   15.1    -0.00000     0.70820     1 2px  -0.53322     1 2pz   0.26317     1 2px   0.89670     1 2py  -0.25585     2 2px   0.53322
                                    2 2pz  -0.26317     2 2px  -0.89672     2 2py   0.25584     4 1s   -0.48390     5 1s   -0.48390
   16.1    -0.00000     0.77252     1 2py   0.31604     1 2pz  -0.28747     1 2px   0.61323     1 2py  -0.58458     1 2pz   0.26665
                                    2 2py   0.31604     2 2pz  -0.28747     2 2px   0.61333     2 2py  -0.58472     2 2pz   0.26667
                                    3 1s    0.49199     6 1s   -0.49201
   17.1    -0.00000     0.81118     1 2pz   0.68371     1 2pz  -0.64727     2 2pz   0.68380     2 2pz  -0.64736
   18.1    -0.00000     0.82714     1 1s    0.28255     1 2py  -0.62185     1 2pz  -0.35095     1 2py   1.07790     1 2pz   0.39005
                                    2 1s    0.28253     2 2py   0.62178     2 2pz   0.35079     2 2py  -1.07787     2 2pz  -0.38993
   19.1    -0.00000     0.86330     1 1s    0.30299     1 2py  -0.32890     1 2pz   0.59340     1 2px  -0.50487     1 2py   0.78424
                                    1 2pz  -0.94513     2 1s    0.30301     2 2py   0.32887     2 2pz  -0.59340     2 2px   0.50497
                                    2 2py  -0.78425     2 2pz   0.94509     3 1s   -0.33835     6 1s   -0.33839
   20.1    -0.00000     0.96813     1 2px  -0.54957     1 2py  -0.57616     1 2px   0.93602     1 2py   0.90296     2 2px  -0.54946
                                    2 2py  -0.57613     2 2px   0.93590     2 2py   0.90302     4 1s    1.19552     5 1s   -1.19523
   21.1    -0.00000     0.99953     1 1s   -0.62655     1 1s    1.12778     1 2px   0.28206     1 2px  -0.37685     2 1s   -0.62615
                                    2 1s    1.12699     2 2px  -0.28256     2 2px   0.37752     4 1s    0.71236     4 1s   -1.06909
                                    5 1s    0.71176     5 1s   -1.06883
   22.1    -0.00000     1.01227     1 1s   -0.40109     1 1s    0.71933     1 2px  -0.39721     1 2px   0.39584     2 1s    0.40154
                                    2 1s   -0.72017     2 2px  -0.39690     2 2px   0.39552     4 1s    0.73890     4 1s   -0.69213
                                    5 1s   -0.73959     5 1s    0.69304
   23.1    -0.00000     1.13844     1 1s   -0.26974     1 2px   0.44075     1 2py  -0.42367     1 2px  -1.00632     1 2py   0.77065
                                    2 1s    0.26939     2 2px   0.44061     2 2py  -0.42346     2 2px  -1.00623     2 2py   0.77053
                                    3 1s    0.62510     3 1s   -1.37115     6 1s   -0.62453     6 1s    1.37048
   24.1    -0.00000     1.17806     1 1s    0.33593     1 2py  -0.30400     2 1s    0.33414     2 2py   0.30435     3 1s    0.85285
                                    3 1s   -0.82501     6 1s    0.85329     6 1s   -0.82578
   25.1    -0.00000     1.25378     1 1s   -1.30814     1 1s    2.11659     1 2px  -0.57027     1 2py   0.59428     1 2pz  -0.96906
                                    2 1s   -1.31202     2 1s    2.12809     2 2px   0.56719     2 2py  -0.59290     2 2pz   0.97172
                                    3 1s   -1.10521     4 1s   -0.42827     5 1s   -0.42898     6 1s   -1.10651
   26.1    -0.00000     1.27152     1 1s   -1.54353     1 1s    4.67198     1 2px   1.30669     1 2py  -0.63993     1 2pz  -1.13844
                                    2 1s    1.54039     2 1s   -4.66688     2 2px   1.30805     2 2py  -0.64138     2 2pz  -1.13594
                                    3 1s   -0.41862     4 1s   -0.33583     5 1s    0.33476     6 1s    0.41619
   27.1    -0.00000     1.71144     1 1s    0.58381     1 3d0   0.34889     1 3d2- -0.28349     1 3d2+ -0.34718     2 1s   -0.58374
                                    2 3d0  -0.34889     2 3d2-  0.28350     2 3d2+  0.34718
   28.1    -0.00000     1.90005     1 1s   -0.46580     1 2pz   0.25256     1 3d0   0.36721     1 3d1+  0.31484     1 3d2+  0.38811
                                    1 3d1-  0.27885     2 1s   -0.46455     2 2pz  -0.25219     2 3d0   0.36692     2 3d1+  0.31518
                                    2 3d2+  0.38814     2 3d1-  0.27923
   29.1    -0.00000     1.92757     1 1s   -0.32974     1 1s    1.27895     1 2px   0.30434     1 2pz  -0.34608     1 3d2- -0.28999
                                    1 3d1+  0.36579     1 3d1-  0.39471     2 1s    0.32992     2 1s   -1.27935     2 2px   0.30418
                                    2 2pz  -0.34629     2 3d2-  0.28987     2 3d1+ -0.36545     2 3d1- -0.39444     3 1s   -0.33185
                                    6 1s    0.33201
   30.1    -0.00000     2.11896     1 1s   -0.85588     1 3d0   0.53501     1 3d2+  0.40831     2 1s    0.85603     2 3d0  -0.53502
                                    2 3d2+ -0.40834
   31.1    -0.00000     2.17926     1 1s    0.31638     1 1s   -0.35934     1 2pz   0.25911     1 3d2-  0.41479     1 3d1+  0.38228
                                    1 3d2+ -0.26139     1 3d1-  0.25502     2 1s    0.31629     2 1s   -0.35902     2 2pz  -0.25901
                                    2 3d2-  0.41476     2 3d1+  0.38226     2 3d2+ -0.26142     2 3d1-  0.25496
   32.1    -0.00000     2.27620     1 1s    0.41682     1 2px  -0.36531     1 2py   0.40357     1 3d0   0.45125     1 3d2+ -0.29461
                                    1 3d1- -0.42393     2 1s    0.41687     2 2px   0.36544     2 2py  -0.40367     2 3d0   0.45127
                                    2 3d2+ -0.29461     2 3d1- -0.42396     3 1s   -0.27787     6 1s   -0.27787
   33.1    -0.00000     2.47959     1 1s   -0.42423     1 3d2-  0.52632     1 3d1-  0.54945     2 1s    0.42423     2 3d2- -0.52623
                                    2 3d1- -0.54943     3 1s    0.55297     6 1s   -0.55291
   34.1    -0.00000     2.59812     1 2py   0.25963     1 3d2-  0.45967     1 3d2+  0.49515     1 3d1- -0.46313     2 2py  -0.25966
                                    2 3d2-  0.45971     2 3d2+  0.49515     2 3d1- -0.46310
   35.1    -0.00000     2.70745     1 3d0  -0.44112     1 3d2- -0.50111     1 3d1+  0.50762     2 3d0  -0.44116     2 3d2- -0.50124
                                    2 3d1+  0.50767     3 1s   -0.45028     6 1s   -0.45048
   36.1    -0.00000     2.94452     1 1s   -1.88845     1 2px  -0.42054     1 2px  -0.93646     1 2py   0.31080     1 2pz   0.50000
                                    1 3d2-  0.34506     1 3d1+  0.71263     1 3d2+ -0.59591     2 1s    1.88844     2 2px  -0.42055
                                    2 2px  -0.93646     2 2py   0.31080     2 2pz   0.50000     2 3d2- -0.34506     2 3d1+ -0.71261
                                    2 3d2+  0.59591


 Natural orbital dump (state averaged) at molpro section  2140.2    (Orbital set 2)



 **********************************************************************************************************************************
 DATASETS  * FILE   NREC   LENGTH (MB)   RECORD NAMES
              1      20       31.85       500      610      700      900      950      970     1000      129      960     1100   
                                          VAR    BASINP    GEOM    SYMINP    ZMAT    AOBASIS   BASIS     P2S    ABASIS      S 
                                         1400     1410     1200     1210     1080     1600     1650     1300     1700     1380   
                                           T        V       H0       H01     AOSYM     SMH    MOLCAS    ERIS     OPER     JKOP   

              2       5        5.42       700     1000      520     2100     2140   
                                         GEOM     BASIS   MCVARS     RHF     MCSCF   

 PROGRAMS   *        TOTAL     MULTI    HF-SCF       INT
 CPU TIMES  *         0.67      0.30      0.10      0.18
 REAL TIME  *         0.95 SEC
 DISK USED  *        39.04 MB
 **********************************************************************************************************************************
 Molecular orbitals read from record     2140.2  Type=MCSCF/NATURAL (state averaged)
 Occupation numbers read from record     2140.2  Type=MCSCF/NATURAL (state averaged)
 Orbital energies read from record       2140.2  Type=MCSCF/NATURAL (state averaged)
 Redundancy group numbers read from rec  2140.2  Type=MCSCF/NATURAL (state averaged)

 MULTI/6-31G* energy=    -77.542923667793

           MULTI          HF-SCF
    -77.54292367    -77.79436170
 **********************************************************************************************************************************
 Molpro calculation terminated
