
 Primary working directories    : /scratch.local/johan406.molpro_temp/molpro.MhnjTQSLsF
 Secondary working directories  : /scratch.local/johan406.molpro_temp/molpro.MhnjTQSLsF
 Wavefunction directory         : /home/goodpast/johan406/wfu/
 Main file repository           : /scratch.local/johan406.molpro_temp/molpro.MhnjTQSLsF/

 id        : roweumn

 Nodes     nprocs
 cn0391       1

 Using customized tuning parameters: mindgm=1; mindgv=20; mindgc=4; mindgr=1; noblas=0; minvec=7
 default implementation of scratch files=df  


 Variables initialized (934), CPU time= 0.01 sec
                                                                                 !leave this line blank
 
 gprint, orbitals=30
 memory, 125., m
 symmetry, nosym
 nelect=16
 basis=6-31g*
 
 geometry={
 C -0.6373 0.1521 0.3059
 C 0.6246 -0.1732 -0.3518
 H -1.3391 0.8064 -0.2342
 H -0.7606 -0.9274 -0.1518
 H 1.1727 0.7551 0.0626
 H 1.204 -1.0363 0.0153
 }
 
 hf
 {multi,
 closed 7
 occ 9
 wf,spin=0;STATE,3
 }
 
 Commands  initialized (763), CPU time= 0.01 sec, 617 directives.
 Default parameters read. Elapsed time= 0.07 sec

 Checking input...
 Passed
1


                                         ***  PROGRAM SYSTEM MOLPRO  ***
                                       Copyright, TTI GmbH Stuttgart, 2015
                                    Version 2019.2 linked Oct 25 2019 22:50:27


 **********************************************************************************************************************************
 LABEL *                                                                                 
  64 bit serial version                                                                  DATE: 07-Feb-23          TIME: 15:00:34  
 **********************************************************************************************************************************

 SHA1:             8dbd9ae1082e4ce945b0f27595c9eb2d4aa09004
 **********************************************************************************************************************************


 Variable memory set to  125000000 words,  buffer space 

 SETTING NELECT         =        16.00000000                                  
 SETTING BASIS          =    6-31G*
 ZSYMEL=NOSYM


Geometry recognized as XYZ



 Recomputing integrals since basis changed


 Using spherical harmonics

 Library entry C      S 6-31G                selected for orbital group  1
 Library entry C      P 6-31G                selected for orbital group  1
 Library entry C      D 6-31G*               selected for orbital group  1
 Library entry H      S 6-31G                selected for orbital group  2


 PROGRAM * SEWARD (Integral evaluation for generally contracted gaussian basis sets)     Author: Roland Lindh, 1990

 Geometry written to block  1 of record 700


 Point group  C1  



 ATOMIC COORDINATES

 NR  ATOM    CHARGE       X              Y              Z

   1  C       6.00   -1.204322459    0.287427344    0.578067222
   2  C       6.00    1.180322937   -0.327300565   -0.664805651
   3  H       1.00   -2.530532253    1.523875147   -0.442573858
   4  H       1.00   -1.437325690   -1.752532008   -0.286860426
   5  H       1.00    2.216081826    1.426932197    0.118296855
   6  H       1.00    2.275230254   -1.958323183    0.028912810

 Bond lengths in Bohr (Angstrom)

 1-2  2.758470055  1-3  2.080707524  1-4  2.227964204  2-5  2.182516573  2-6  2.083339174
     ( 1.459719490)     ( 1.101063005)     ( 1.178987884)     ( 1.154938033)     ( 1.102455614)

 Bond angles

  1-2-5   93.98361620   1-2-6  118.60496066   2-1-3  117.54337919   2-1-4   73.22861628

  3-1-4  106.67912542   5-2-6  105.09199829

 NUCLEAR CHARGE:                   16
 NUMBER OF PRIMITIVE AOS:          72
 NUMBER OF SYMMETRY AOS:           70
 NUMBER OF CONTRACTIONS:           36   (   36A   )
 NUMBER OF CORE ORBITALS:           2   (    2A   )
 NUMBER OF VALENCE ORBITALS:       12   (   12A   )


 NUCLEAR REPULSION ENERGY   32.22084258

 Eigenvalues of metric

         1 0.963E-02 0.284E-01 0.595E-01 0.646E-01 0.825E-01 0.220E+00 0.238E+00 0.272E+00


 Contracted 2-electron integrals neglected if value below      1.0D-11
 AO integral compression algorithm  1   Integral accuracy      1.0D-11

     1.573 MB (compressed) written to integral file ( 59.1%)


 NUMBER OF SORTED TWO-ELECTRON INTEGRALS:     222111.     BUFFER LENGTH:  32768
 NUMBER OF SEGMENTS:   1  SEGMENT LENGTH:     222111      RECORD LENGTH: 524288

 Memory used in sort:       0.78 MW

 SORT1 READ      284735. AND WROTE      212530. INTEGRALS IN      1 RECORDS. CPU TIME:     0.00 SEC, REAL TIME:     0.00 SEC
 SORT2 READ      212530. AND WROTE      222111. INTEGRALS IN      6 RECORDS. CPU TIME:     0.03 SEC, REAL TIME:     0.02 SEC

 FILE SIZES:   FILE 1:    31.7 MBYTE,  FILE 4:     4.2 MBYTE,   TOTAL:     35.9 MBYTE

 OPERATOR DM      FOR CENTER  0  COORDINATES:    0.000000    0.000000    0.000000


 **********************************************************************************************************************************
 DATASETS  * FILE   NREC   LENGTH (MB)   RECORD NAMES
              1      19       31.13       500      610      700      900      950      970     1000      129      960     1100   
                                          VAR    BASINP    GEOM    SYMINP    ZMAT    AOBASIS   BASIS     P2S    ABASIS      S 
                                         1400     1410     1200     1210     1080     1600     1650     1300     1700   
                                           T        V       H0       H01     AOSYM     SMH    MOLCAS    ERIS     OPER   

 PROGRAMS   *        TOTAL       INT
 CPU TIMES  *         0.36      0.27
 REAL TIME  *         0.59 SEC
 DISK USED  *        36.24 MB
 **********************************************************************************************************************************


 PROGRAM * RHF-SCF (CLOSED SHELL)       Authors: W. Meyer, H.-J. Werner


 NUMBER OF ELECTRONS:       8+    8-    SPACE SYMMETRY=1    SPIN SYMMETRY: Singlet 
 CONVERGENCE THRESHOLDS:    1.00E-05 (Density)    1.00E-07 (Energy)
 MAX. NUMBER OF ITERATIONS:       60
 INTERPOLATION TYPE:            DIIS
 INTERPOLATION STEPS:              2 (START)      1 (STEP)
 LEVEL SHIFTS:                  0.00 (CLOSED)  0.00 (OPEN) 



 Orbital guess generated from atomic densities. Full valence occupancy:    8

 Molecular orbital dump at record        2100.2

 Initial occupancy:   8

 ITERATION    DDIFF          GRAD             ENERGY        2-EL.EN.            DIPOLE MOMENTS         DIIS   ORB.
    1      0.000D+00      0.000D+00       -77.81767616    115.591019    0.10115   -0.13797   -0.17681    0    start
    2      0.000D+00      0.710D-02       -77.83575414    114.622065    0.01941    0.00957   -0.02980    1    diag
    3      0.802D-02      0.254D-02       -77.83789656    114.997501    0.10689   -0.04735   -0.15388    2    diag
    4      0.319D-02      0.129D-02       -77.83851926    114.931588    0.06020   -0.01123   -0.08159    3    diag
    5      0.181D-02      0.497D-03       -77.83865229    114.891458    0.07823   -0.02023   -0.10585    4    diag
    6      0.703D-03      0.220D-03       -77.83872627    114.901632    0.07879   -0.01983   -0.10435    5    diag
    7      0.704D-03      0.957D-04       -77.83875063    114.901290    0.07981   -0.02189   -0.10549    6    diag
    8      0.422D-03      0.394D-04       -77.83875500    114.902548    0.07968   -0.02253   -0.10551    7    diag
    9      0.200D-03      0.142D-04       -77.83875547    114.902821    0.07927   -0.02297   -0.10545    8    diag
   10      0.708D-04      0.435D-05       -77.83875550    114.902832    0.07911   -0.02304   -0.10541    9    orth
   11      0.160D-04      0.985D-06       -77.83875550    114.902827    0.07906   -0.02305   -0.10539    9    diag
   12      0.269D-05      0.276D-06       -77.83875550    114.902829    0.07905   -0.02306   -0.10539    0    orth

 Final occupancy:   8

 !RHF STATE  1.1 Energy               -77.838755499246
 Nuclear energy                        32.22084258
 One-electron energy                 -167.51101240
 Two-electron energy                   57.45141432
 Virial quotient                       -1.00198623
 !RHF STATE  1.1 Dipole moment          0.07905351    -0.02305629    -0.10539254
 Dipole moment /Debye                   0.20092082    -0.05859940    -0.26786358

 ELECTRON ORBITALS
 =================

  Orbital  Occupation    Energy     Coefficients
    1.1     2.00000   -11.27304     2 1s    0.99597
    2.1     2.00000   -11.25701     1 1s    0.99596
    3.1     2.00000    -1.03896     1 1s    0.27639     2 1s    0.28854     2 1s    0.25786
    4.1     2.00000    -0.78021     1 1s   -0.29927     2 1s    0.29665
    5.1     2.00000    -0.62158     1 2py   0.28597     2 2py   0.31369
    6.1     2.00000    -0.56032     1 2px   0.32440     2 2px  -0.27889
    7.1     2.00000    -0.39418     1 2pz   0.31436     1 2pz   0.28064     2 2pz   0.29710     2 2pz   0.27981
    8.1     2.00000    -0.37879     1 2px   0.27312     1 2py   0.27410     4 1s   -0.31969     5 1s   -0.26677
    9.1     0.00000     0.06115     1 1s   -0.40930     1 2pz  -0.32043     1 2pz  -0.44564     2 1s   -0.38997     2 2pz   0.33950
                                    2 2pz   0.47780
   10.1     0.00000     0.22611     1 1s   -0.83521     1 2px   0.41400     1 2py   0.52884     1 2pz   0.38779     2 1s   -1.24119
                                    2 2px  -0.47244     2 2pz  -0.40416     3 1s    0.35039     4 1s    1.13860     5 1s    0.96148
                                    6 1s    0.71152
   11.1     0.00000     0.28026     1 1s    1.65063     1 2pz  -0.59827     2 1s   -1.38841     2 2py   0.48278     2 2pz  -0.30879
                                    3 1s   -1.48494     6 1s    1.36029
   12.1     0.00000     0.30846     1 1s   -1.06315     1 2px   0.42863     1 2py  -0.71866     1 2pz   0.55020     2 1s   -0.34546
                                    2 2py   0.25782     2 2py   1.22511     2 2pz  -0.26267     3 1s    1.46545     5 1s   -0.89776
                                    6 1s    1.45392
   13.1     0.00000     0.33161     1 1s    0.65127     1 2py  -0.88116     2 1s   -1.21162     2 2px  -0.57204     2 2py  -0.51575
                                    2 2pz  -0.49572     3 1s    0.48243     4 1s   -1.63400     5 1s    1.56073     6 1s    0.50778
   14.1     0.00000     0.42495     1 1s    2.06208     1 2px   1.81789     1 2py  -0.55349     1 2pz  -0.75780     2 1s   -2.02175
                                    2 2px   1.76894     2 2py  -0.65357     2 2pz  -0.83331     3 1s    0.59139     6 1s   -0.57922
   15.1     0.00000     0.70715     1 2px  -0.56274     1 2px   0.92526     2 2px   0.54165     2 2pz  -0.26731     2 2px  -0.96424
                                    4 1s   -0.56028     5 1s   -0.25664     6 1s    0.26595
   16.1     0.00000     0.76844     1 2py  -0.52362     1 2px  -0.69352     1 2py   0.94508     2 1s    0.35404     2 2py  -0.26629
                                    2 2px  -0.44427     2 2py   0.59521     3 1s   -0.50637     4 1s    0.27818     6 1s    0.42255
   17.1     0.00000     0.78735     1 2py   0.50311     1 2pz   0.48464     1 2py  -1.01446     1 2pz  -0.48969     2 1s   -0.38171
                                    2 2py  -0.51171     2 2py   1.07814     4 1s   -0.36097     6 1s    0.28715
   18.1     0.00000     0.80362     1 2pz   0.48054     1 2py   0.36392     1 2pz  -0.39043     2 2py   0.33288     2 2pz   0.81293
                                    2 2py  -0.72114     2 2pz  -0.78487     5 1s    0.27743
   19.1     0.00000     0.86175     1 1s   -0.39761     1 2px  -0.26826     1 2pz  -0.76789     1 2px   0.54131     1 2py  -0.44653
                                    1 2pz   1.02235     2 1s   -0.31111     2 2pz   0.60210     2 2px  -0.35055     2 2py   0.48551
                                    2 2pz  -0.87608
   20.1     0.00000     0.96997     1 1s    0.36710     1 2px  -0.68042     1 2py  -0.34432     1 2px   0.97529     1 2py   0.60250
                                    2 1s   -0.38262     2 2px  -0.73240     2 2py  -0.38795     2 2px   1.40121     2 2py   0.86642
                                    4 1s    1.06883     5 1s   -0.96201
   21.1     0.00000     1.07940     1 1s   -0.37375     1 1s    0.32786     1 2py   0.51122     1 2px  -0.48627     1 2py  -0.48687
                                    2 1s   -0.69498     2 1s    1.59896     2 2py  -0.37585     2 2py   0.60906     4 1s    0.82747
                                    4 1s   -1.27691     5 1s    0.40034     5 1s   -1.00357     6 1s    0.26876
   22.1     0.00000     1.12061     1 1s    0.27927     1 1s   -0.73782     1 2px   0.40928     1 2py  -0.46338     1 2px  -0.63685
                                    1 2py   0.68622     2 2px   0.27935     2 2py  -0.71864     2 2px  -0.60336     2 2py   1.19603
                                    3 1s    0.45074     3 1s   -0.81495     4 1s   -0.27914     4 1s    0.78098     5 1s    0.48703
                                    5 1s   -0.75419     6 1s   -0.45833     6 1s    1.32932
   23.1     0.00000     1.16115     1 1s    0.53534     1 1s   -0.55734     1 2pz  -0.28036     1 2px   0.74356     2 1s   -0.42516
                                    2 1s    0.37564     2 2px  -0.33109     2 2px   0.75388     3 1s   -0.44824     3 1s    0.95032
                                    4 1s   -0.44008     4 1s    0.70566     5 1s    0.82616     5 1s   -1.00452     6 1s    0.41816
                                    6 1s   -0.71272
   24.1     0.00000     1.17881     1 1s   -0.71370     1 1s    1.17097     1 2px   0.33391     1 2py  -0.31183     1 2px  -0.34106
                                    1 2py   0.35178     2 1s   -0.66793     2 1s    1.06055     2 2px  -0.29762     2 2px   0.37684
                                    3 1s    0.76518     3 1s   -1.19907     5 1s   -0.31754     6 1s    0.70217     6 1s   -0.99956
   25.1     0.00000     1.24427     1 1s   -1.37233     1 1s    2.88575     1 2px  -0.37527     1 2py   0.32677     1 2pz  -1.21626
                                    2 1s   -0.92809     2 1s    1.20809     2 2px   0.62660     2 2py  -0.71150     2 2pz   0.65891
                                    3 1s   -0.41460     3 1s   -1.00735     4 1s   -0.53438     4 1s   -0.44628     5 1s   -0.42182
                                    6 1s   -0.49354     6 1s   -0.58982
   26.1     0.00000     1.30327     1 1s    1.35046     1 1s   -4.53685     1 2px  -1.44495     1 2py   0.75872     1 2pz   0.95247
                                    2 1s   -1.71866     2 1s    5.22097     2 2px  -1.03050     2 2py   0.65872     2 2pz   1.35765
                                    4 1s    0.65704     5 1s   -0.47077     5 1s   -0.54514     6 1s   -0.61162
   27.1     0.00000     1.71022     1 1s    0.30708     1 3d0   0.44322     1 3d2- -0.32263     2 3d1+  0.27718     2 3d2+  0.42602
                                    2 3d1- -0.28451
   28.1     0.00000     1.93338     1 1s    0.44803     1 1s   -1.30499     1 2pz   0.54827     1 3d0   0.32848     1 3d2+  0.34733
                                    1 3d1-  0.29337     2 2px  -0.28544     2 2py   0.48709     2 3d0   0.27758     2 3d1+  0.38445
                                    2 3d2+  0.29758     2 3d1-  0.38444     3 1s    0.33549     3 1s    0.26193     4 1s    0.31069
                                    4 1s    0.25335     6 1s    0.31680
   29.1     0.00000     1.94368     1 1s   -0.28639     1 1s    1.23029     1 2px   0.32011     1 2pz  -0.32140     1 3d1+  0.46399
                                    1 3d1-  0.50386     2 1s    0.30510     2 1s   -1.29814     2 2pz  -0.33073     2 3d2-  0.32947
                                    2 3d1+ -0.27477     2 3d1- -0.28018     3 1s   -0.29149     6 1s    0.34024
   30.1     0.00000     2.15051     1 1s    1.02332     1 2px   0.29017     1 3d0  -0.41223     1 3d2+ -0.40706     2 1s    0.51193
                                    2 1s   -1.57089     2 2px   0.28419     2 2py  -0.25692     2 2pz  -0.45696     2 3d0   0.67783
                                    2 3d1+  0.31535     2 3d2+  0.25223     5 1s    0.32297     6 1s    0.30128
   31.1     0.00000     2.25641     1 1s   -0.60541     1 1s    0.94735     1 2px  -0.25407     1 2px   0.44484     1 2pz  -0.28431
                                    1 3d0  -0.25557     1 3d2- -0.42773     1 3d1+ -0.36304     1 3d2+  0.32365     2 1s   -0.28746
                                    2 1s   -0.42514     2 3d1+ -0.34930     2 3d2+  0.45835     5 1s    0.25744
   32.1     0.00000     2.35859     1 2py   0.37624     1 3d0   0.57812     1 3d2- -0.26561     1 3d1- -0.39047     2 1s   -0.27938
                                    2 2py  -0.31439     2 3d0   0.46424     2 3d2- -0.36036     2 3d2+ -0.25490     2 3d1- -0.31885
                                    3 1s   -0.30673     4 1s    0.43970     5 1s    0.37595
   33.1     0.00000     2.54619     1 2px  -0.29196     1 3d2- -0.54250     1 3d1- -0.33398     2 2py   0.46221     2 3d2-  0.40827
                                    2 3d1-  0.73293     3 1s   -0.44288     5 1s   -0.54823     6 1s    0.43071
   34.1     0.00000     2.62474     1 2py  -0.34472     1 3d2- -0.29822     1 3d2+ -0.55666     1 3d1-  0.67622     2 1s    0.32183
                                    2 3d2- -0.51942     2 3d2+ -0.43202     2 3d1-  0.26286     4 1s   -0.44890
   35.1     0.00000     2.70658     1 3d0  -0.37119     1 3d2- -0.50356     1 3d1+  0.53751     2 3d0  -0.44174     2 3d2- -0.54223
                                    2 3d1+  0.45047     3 1s   -0.46494     6 1s   -0.46003
   36.1     0.00000     2.95560     1 1s   -1.74166     1 2px  -0.43628     1 2px  -0.88934     1 2py   0.25006     1 2pz   0.44551
                                    1 3d2-  0.32290     1 3d1+  0.70722     1 3d2+ -0.63290     2 1s    1.75276     2 2px  -0.43990
                                    2 2px  -0.89014     2 2pz   0.44944     2 3d2- -0.36327     2 3d1+ -0.69695     2 3d2+  0.63661


 HOMO      8.1    -0.378789 =     -10.3074eV
 LUMO      9.1     0.061147 =       1.6639eV
 LUMO-HOMO         0.439937 =      11.9713eV


 **********************************************************************************************************************************
 DATASETS  * FILE   NREC   LENGTH (MB)   RECORD NAMES
              1      19       31.13       500      610      700      900      950      970     1000      129      960     1100   
                                          VAR    BASINP    GEOM    SYMINP    ZMAT    AOBASIS   BASIS     P2S    ABASIS      S 
                                         1400     1410     1200     1210     1080     1600     1650     1300     1700   
                                           T        V       H0       H01     AOSYM     SMH    MOLCAS    ERIS     OPER   

              2       4        2.86       700     1000      520     2100   
                                         GEOM     BASIS   MCVARS     RHF  

 PROGRAMS   *        TOTAL    HF-SCF       INT
 CPU TIMES  *         0.50      0.14      0.27
 REAL TIME  *         0.86 SEC
 DISK USED  *        36.24 MB
 **********************************************************************************************************************************


 PROGRAM * MULTI (Direct Multiconfiguration SCF)       Authors: P.J. Knowles, H.-J. Werner (1984)


 Number of closed-shell orbitals:   7 (   7 )
 Number of active  orbitals:        2 (   2 )
 Number of external orbitals:      27 (  27 )

 State symmetry 1

 Number of electrons:     2    Spin symmetry=Singlet   Space symmetry=1
 Number of states:        3
 Number of CSFs:          3   (4 determinants, 4 intermediate states)

 Molecular orbitals read from record     2100.2  Type=RHF/CANONICAL (state 1.1)

 Wavefunction dump at record             2140.2

 Convergence thresholds  0.10E-01 (gradient)  0.10E-05 (energy)  0.10E-02 (step length)

 Weight factors for state symmetry  1:    0.33333   0.33333   0.33333

 Number of orbital rotations:      257   (    14 Core/Active    189 Core/Virtual   0 Active/Active     54 Active/Virtual)
 Total number of variables:        269

 Micro-Iterations solved by the two-step solver

 ITER. MIC  NCI  NEG     ENERGY(VAR)     ENERGY(PROJ)   ENERGY CHANGE     GRAD(0)  GRAD(ORB)   GRAD(CI)     STEP       TIME

   1   12    6    0     -77.68879833     -77.70833109   -0.01953275    0.16516454 0.00148094 0.00000000  0.15D+00      0.14
   2    6    5    0     -77.70801030     -77.70804403   -0.00003373    0.00855557 0.00001481 0.00000000  0.63D-02      0.23
   3    8    5    0     -77.70804410     -77.70804410   -0.00000000    0.00002430 0.00000000 0.00000000  0.38D-04      0.32

 ** WVFN ****  CONVERGENCE REACHED, FINAL GRADIENT:  0.47D-09



 Results for state 1.1
 =====================

 !MCSCF STATE  1.1 Energy             -77.832418211144
 Nuclear energy                        32.22084258
 Kinetic energy                        77.71925716
 One electron energy                 -167.55412871
 Two electron energy                   57.50086792
 Virial ratio                           2.00145602

 !MCSCF STATE  1.1 Dipole moment        0.08616163     0.02583338    -0.13176174
 Dipole moment /Debye                   0.21898668     0.06565760    -0.33488300

 Results for state 2.1
 =====================

 !MCSCF STATE  2.1 Energy             -77.735976390065
 Nuclear energy                        32.22084258
 Kinetic energy                        77.81045165
 One electron energy                 -167.31195436
 Two electron energy                   57.35513539
 Virial ratio                           1.99904286

 !MCSCF STATE  2.1 Dipole moment        0.01816755    -0.12827379    -0.05150012
 Dipole moment /Debye                   0.04617429    -0.32601811    -0.13089168

 Results for state 3.1
 =====================

 !MCSCF STATE  3.1 Energy             -77.555737705049
 Nuclear energy                        32.22084258
 Kinetic energy                        77.89054625
 One electron energy                 -167.12618445
 Two electron energy                   57.34960417
 Virial ratio                           1.99570155

 !MCSCF STATE  3.1 Dipole moment       -0.02541424    -0.23625218     0.03090762
 Dipole moment /Debye                  -0.06459234    -0.60045382     0.07855418

 State-averaged charge density matrix saved on record  2140.2 (density set 1)

 !MCSCF expec         <1.1|DMX|1.1>     0.086161631014 au =     0.218986678151 Debye
 !MCSCF trans         <2.1|DMX|1.1>     0.045743111822 au =     0.116259778144 Debye
 !MCSCF expec         <2.1|DMX|2.1>     0.018167554054 au =     0.046174292033 Debye
 !MCSCF trans         <3.1|DMX|1.1>     0.009596196091 au =     0.024389500060 Debye
 !MCSCF trans         <3.1|DMX|2.1>     0.055241034466 au =     0.140399508378 Debye
 !MCSCF expec         <3.1|DMX|3.1>    -0.025414244432 au =    -0.064592335363 Debye

 !MCSCF expec         <1.1|DMY|1.1>     0.025833378404 au =     0.065657597883 Debye
 !MCSCF trans         <2.1|DMY|1.1>     0.085354780781 au =     0.216936003736 Debye
 !MCSCF expec         <2.1|DMY|2.1>    -0.128273792332 au =    -0.326018105116 Debye
 !MCSCF trans         <3.1|DMY|1.1>     0.020662795521 au =     0.052516147839 Debye
 !MCSCF trans         <3.1|DMY|2.1>     0.105360740829 au =     0.267782751676 Debye
 !MCSCF expec         <3.1|DMY|3.1>    -0.236252182208 au =    -0.600453821257 Debye

 !MCSCF expec         <1.1|DMZ|1.1>    -0.131761737096 au =    -0.334882995769 Debye
 !MCSCF trans         <2.1|DMZ|1.1>     0.007656225840 au =     0.019458910469 Debye
 !MCSCF expec         <2.1|DMZ|2.1>    -0.051500120843 au =    -0.130891677133 Debye
 !MCSCF trans         <3.1|DMZ|1.1>    -0.007670396408 au =    -0.019494926102 Debye
 !MCSCF trans         <3.1|DMZ|2.1>     0.001562631043 au =     0.003971551807 Debye
 !MCSCF expec         <3.1|DMZ|3.1>     0.030907616500 au =     0.078554179945 Debye


 NATURAL ORBITALS (state averaged)
 =================================

  Orbital  Occupation    Energy     Coefficients
    1.1     2.00000   -11.26125     1 1s    0.99519
    2.1     2.00000   -11.25319     2 1s    0.99517
    3.1     2.00000    -1.05032     1 1s    0.27897     2 1s    0.27527
    4.1     2.00000    -0.77973     1 1s   -0.32134     2 1s    0.32551
    5.1     2.00000    -0.62274     1 2py   0.29080     2 2py   0.28945
    6.1     2.00000    -0.55694     1 2px   0.28528     2 2py   0.27544
    7.1     2.00000    -0.41984     1 2pz   0.32832     1 2pz   0.27416     2 2pz   0.31858     2 2pz   0.28374
    8.1     1.00000    -0.22492     1 2px   0.30419     2 2px  -0.28276     4 1s   -0.33038     5 1s   -0.27582
    9.1     1.00000    -0.08756     1 1s   -0.27217     1 2pz  -0.39990     1 2pz  -0.41106     2 1s   -0.26835     2 2pz   0.40323
                                    2 2pz   0.44139
   10.1    -0.00000     0.21435     1 1s   -0.94773     1 2px   0.40592     1 2py   0.55422     1 2pz   0.36543     2 1s   -1.16239
                                    2 2px  -0.47464     2 2pz  -0.32073     3 1s    0.37909     4 1s    1.19274     5 1s    0.92615
                                    6 1s    0.64120
   11.1    -0.00000     0.27900     1 1s    1.77042     1 2pz  -0.61334     2 1s   -1.50252     2 2py   0.31150     2 2pz  -0.34635
                                    3 1s   -1.54787     4 1s   -0.30391     6 1s    1.27355
   12.1    -0.00000     0.30792     1 1s   -1.09217     1 2px   0.27749     1 2py  -0.27434     1 2pz   0.45019     2 2py   0.31926
                                    2 2py   1.41437     3 1s    0.93511     4 1s    0.73431     5 1s   -1.44137     6 1s    1.32647
   13.1    -0.00000     0.32062     1 2py  -0.29198     1 2px   0.35259     1 2py  -1.11695     2 1s   -1.35790     2 2px  -0.52787
                                    2 2pz  -0.57208     3 1s    1.14838     4 1s   -1.41377     5 1s    1.12693     6 1s    0.97414
   14.1    -0.00000     0.43226     1 1s    1.96009     1 2px   1.80972     1 2py  -0.45617     1 2pz  -0.72033     2 1s   -1.91589
                                    2 2px   1.80447     2 2py  -0.57007     2 2pz  -0.77574     3 1s    0.57575     6 1s   -0.59460
   15.1    -0.00000     0.70507     1 2px  -0.55980     1 2px   0.88684     2 2px   0.51649     2 2px  -0.94696     4 1s   -0.61920
                                    5 1s   -0.33410     6 1s    0.27083
   16.1    -0.00000     0.76491     1 1s   -0.26733     1 2py  -0.56861     1 2px  -0.76740     1 2py   1.09585     2 1s    0.50607
                                    2 2px  -0.42904     2 2py   0.45704     3 1s   -0.50019     4 1s    0.34801     6 1s    0.37064
   17.1    -0.00000     0.78564     1 2py   0.38922     1 2pz   0.48848     1 2py  -0.86338     1 2pz  -0.59133     2 1s   -0.41658
                                    2 2py  -0.52958     2 2px  -0.26772     2 2py   1.10554     4 1s   -0.32408     6 1s    0.35490
   18.1    -0.00000     0.80597     1 1s    0.25754     1 2pz   0.54899     1 2py   0.36347     1 2pz  -0.51645     2 2py   0.31286
                                    2 2pz   0.76536     2 2py  -0.72515     2 2pz  -0.78718     5 1s    0.27794
   19.1    -0.00000     0.86008     1 1s   -0.33071     1 2px  -0.28811     1 2pz  -0.68914     1 2px   0.57976     1 2py  -0.41435
                                    1 2pz   1.02440     2 1s   -0.27899     2 2pz   0.64835     2 2px  -0.39945     2 2py   0.46417
                                    2 2pz  -1.00071     3 1s    0.25166
   20.1    -0.00000     0.97729     1 1s    0.31220     1 2px  -0.67739     1 2py  -0.36289     1 2px   0.90051     1 2py   0.62264
                                    2 1s   -0.33826     2 2px  -0.72326     2 2py  -0.38022     2 2px   1.33339     2 2py   0.86203
                                    4 1s    1.05205     5 1s   -0.89014
   21.1    -0.00000     1.05259     1 1s   -0.46904     1 1s    0.53315     1 2py   0.58493     1 2px  -0.42252     1 2py  -0.60953
                                    2 1s   -0.61028     2 1s    1.37451     2 2px  -0.27475     2 2py  -0.30329     2 2py   0.53180
                                    4 1s    0.88659     4 1s   -1.37713     5 1s    0.27396     5 1s   -0.79984
   22.1    -0.00000     1.10628     1 1s    0.36203     1 1s   -0.73479     1 2px   0.31145     1 2py  -0.36562     1 2px  -0.32011
                                    1 2py   0.52893     1 2pz   0.25419     2 1s    0.39356     2 2py  -0.73989     2 2py   1.11758
                                    3 1s   -0.37916     4 1s   -0.34898     4 1s    0.85590     5 1s    0.85456     5 1s   -1.29499
                                    6 1s    0.80037
   23.1    -0.00000     1.14757     1 1s    0.30880     1 2px  -0.38856     1 2px   0.98427     1 2py  -0.41755     2 1s   -0.47510
                                    2 1s    0.35817     2 2px  -0.44881     2 2px   1.01160     2 2py  -0.55814     3 1s   -0.64773
                                    3 1s    1.23537     5 1s    0.51892     5 1s   -0.60358     6 1s    0.52907     6 1s   -1.19524
   24.1    -0.00000     1.18271     1 1s   -0.75025     1 1s    1.32050     1 2px   0.28887     1 2py  -0.29933     1 2py   0.29611
                                    2 1s   -0.60860     2 1s    0.84368     2 2px  -0.31102     2 2py   0.29384     2 2px   0.44253
                                    2 2py  -0.31575     3 1s    0.73285     3 1s   -1.12645     6 1s    0.75067     6 1s   -1.07086
   25.1    -0.00000     1.23592     1 1s   -1.45607     1 1s    3.08945     1 2px  -0.36070     1 2py   0.31055     1 2pz  -1.24722
                                    2 1s   -0.88948     2 1s    1.08671     2 2px   0.64195     2 2py  -0.75625     2 2pz   0.61212
                                    3 1s   -0.40435     3 1s   -1.04748     4 1s   -0.48318     4 1s   -0.54499     5 1s   -0.38974
                                    6 1s   -0.50287     6 1s   -0.56478
   26.1    -0.00000     1.29851     1 1s    1.28206     1 1s   -4.40439     1 2px  -1.47897     1 2py   0.73838     1 2pz   0.89915
                                    2 1s   -1.79613     2 1s    5.33758     2 2px  -1.01162     2 2py   0.61301     2 2pz   1.36912
                                    4 1s    0.58428     5 1s   -0.45936     5 1s   -0.56828     6 1s   -0.67194
   27.1    -0.00000     1.70668     1 1s    0.33744     1 3d0   0.43971     1 3d2- -0.33290     2 3d1+  0.27204     2 3d2+  0.42212
                                    2 3d1- -0.28273
   28.1    -0.00000     1.93043     1 1s    0.33453     1 1s   -0.88728     1 2pz   0.42503     1 3d0   0.32338     1 3d1+  0.36565
                                    1 3d2+  0.41979     1 3d1-  0.43190     2 1s   -0.33436     2 2py   0.42773     2 3d0   0.30166
                                    2 3d1+  0.27446     2 3d2+  0.26119     2 3d1-  0.28013     6 1s    0.30873
   29.1    -0.00000     1.94071     1 1s   -0.39634     1 1s    1.52093     1 2px   0.28955     1 2pz  -0.45593     1 3d2- -0.27026
                                    1 3d1+  0.37527     1 3d1-  0.39864     2 1s   -1.20739     2 2px   0.30146     2 2py  -0.28437
                                    2 2pz  -0.26784     2 3d2-  0.37778     2 3d1+ -0.37923     2 3d1- -0.37385     3 1s   -0.37708
                                    4 1s   -0.29186     6 1s    0.28919
   30.1    -0.00000     2.15385     1 1s    0.97928     1 2px   0.28480     1 3d0  -0.41123     1 3d2+ -0.40707     2 1s    0.51857
                                    2 1s   -1.55431     2 2px   0.26872     2 2pz  -0.45456     2 3d0   0.68050     2 3d1+  0.32124
                                    2 3d2+  0.26058     5 1s    0.31104     6 1s    0.30848
   31.1    -0.00000     2.25248     1 1s   -0.59838     1 1s    0.97111     1 2px  -0.25673     1 2px   0.44387     1 2pz  -0.29571
                                    1 3d2- -0.43976     1 3d1+ -0.36349     1 3d2+  0.33220     2 1s   -0.27288     2 1s   -0.45400
                                    2 3d1+ -0.35298     2 3d2+  0.44638     5 1s    0.27222
   32.1    -0.00000     2.35400     1 2py   0.39458     1 3d0   0.57520     1 3d2- -0.26480     1 3d1- -0.40770     2 1s   -0.29704
                                    2 2px   0.25584     2 2py  -0.32289     2 3d0   0.46479     2 3d2- -0.34360     2 3d2+ -0.27394
                                    2 3d1- -0.32719     3 1s   -0.32810     4 1s    0.43130     5 1s    0.35677
   33.1    -0.00000     2.54223     1 2px  -0.28625     1 3d2- -0.55014     1 3d1- -0.31962     2 1s    0.25290     2 2py   0.47173
                                    2 3d2-  0.39493     2 3d1-  0.74476     3 1s   -0.44332     5 1s   -0.54151     6 1s    0.42451
   34.1    -0.00000     2.61817     1 2py  -0.34541     1 3d2- -0.29608     1 3d2+ -0.54699     1 3d1-  0.67484     2 1s    0.33572
                                    2 3d2- -0.54424     2 3d2+ -0.42822     2 3d1-  0.25230     4 1s   -0.43237
   35.1    -0.00000     2.71269     1 3d0  -0.38110     1 3d2- -0.48135     1 3d1+  0.53730     2 3d0  -0.45367     2 3d2- -0.53414
                                    2 3d1+  0.45940     3 1s   -0.45554     6 1s   -0.46416
   36.1    -0.00000     2.95379     1 1s   -1.76370     1 2px  -0.43043     1 2px  -0.89969     1 2py   0.25652     1 2pz   0.45091
                                    1 3d2-  0.32126     1 3d1+  0.70737     1 3d2+ -0.62560     2 1s    1.77718     2 2px  -0.43311
                                    2 2px  -0.89911     2 2pz   0.45626     2 3d2- -0.36201     2 3d1+ -0.70182     2 3d2+  0.63830


 Natural orbital dump (state averaged) at molpro section  2140.2    (Orbital set 2)



 **********************************************************************************************************************************
 DATASETS  * FILE   NREC   LENGTH (MB)   RECORD NAMES
              1      20       31.86       500      610      700      900      950      970     1000      129      960     1100   
                                          VAR    BASINP    GEOM    SYMINP    ZMAT    AOBASIS   BASIS     P2S    ABASIS      S 
                                         1400     1410     1200     1210     1080     1600     1650     1300     1700     1380   
                                           T        V       H0       H01     AOSYM     SMH    MOLCAS    ERIS     OPER     JKOP   

              2       5        5.42       700     1000      520     2100     2140   
                                         GEOM     BASIS   MCVARS     RHF     MCSCF   

 PROGRAMS   *        TOTAL     MULTI    HF-SCF       INT
 CPU TIMES  *         0.87      0.37      0.14      0.27
 REAL TIME  *         1.30 SEC
 DISK USED  *        39.04 MB
 **********************************************************************************************************************************
 Molecular orbitals read from record     2140.2  Type=MCSCF/NATURAL (state averaged)
 Occupation numbers read from record     2140.2  Type=MCSCF/NATURAL (state averaged)
 Orbital energies read from record       2140.2  Type=MCSCF/NATURAL (state averaged)
 Redundancy group numbers read from rec  2140.2  Type=MCSCF/NATURAL (state averaged)

 MULTI/6-31G* energy=    -77.555737705049

           MULTI          HF-SCF
    -77.55573771    -77.83875550
 **********************************************************************************************************************************
 Molpro calculation terminated
