
 Primary working directories    : /scratch.local/johan406.molpro_temp/molpro.fZimyu0PFo
 Secondary working directories  : /scratch.local/johan406.molpro_temp/molpro.fZimyu0PFo
 Wavefunction directory         : /home/goodpast/johan406/wfu/
 Main file repository           : /scratch.local/johan406.molpro_temp/molpro.fZimyu0PFo/

 id        : roweumn

 Nodes     nprocs
 acn09        1

 Using customized tuning parameters: mindgm=1; mindgv=20; mindgc=4; mindgr=1; noblas=0; minvec=7
 default implementation of scratch files=df  


 Variables initialized (934), CPU time= 0.01 sec
                                                                                 !leave this line blank
 
 gprint, orbitals=30
 memory, 125., m
 symmetry, nosym
 nelect=16
 basis=6-31g*
 
 geometry={
 C -0.6239 0.1351 0.2999
 C 0.6334 -0.185 -0.3603
 H -1.294 0.9291 -0.1729
 H -0.9596 -0.8643 -0.1362
 H 0.9692 0.8144 0.0758
 H 1.3016 -0.9777 0.1118
 }
 
 hf
 {multi,
 closed 7
 occ 9
 wf,spin=0;STATE,3
 }
 
 Commands  initialized (763), CPU time= 0.01 sec, 617 directives.
 Default parameters read. Elapsed time= 0.07 sec

 Checking input...
 Passed
1


                                         ***  PROGRAM SYSTEM MOLPRO  ***
                                       Copyright, TTI GmbH Stuttgart, 2015
                                    Version 2019.2 linked Oct 25 2019 22:50:27


 **********************************************************************************************************************************
 LABEL *                                                                                 
  64 bit serial version                                                                  DATE: 07-Feb-23          TIME: 16:01:01  
 **********************************************************************************************************************************

 SHA1:             8dbd9ae1082e4ce945b0f27595c9eb2d4aa09004
 **********************************************************************************************************************************


 Variable memory set to  125000000 words,  buffer space 

 SETTING NELECT         =        16.00000000                                  
 SETTING BASIS          =    6-31G*
 ZSYMEL=NOSYM


Geometry recognized as XYZ



 Recomputing integrals since basis changed


 Using spherical harmonics

 Library entry C      S 6-31G                selected for orbital group  1
 Library entry C      P 6-31G                selected for orbital group  1
 Library entry C      D 6-31G*               selected for orbital group  1
 Library entry H      S 6-31G                selected for orbital group  2


 PROGRAM * SEWARD (Integral evaluation for generally contracted gaussian basis sets)     Author: Roland Lindh, 1990

 Geometry written to block  1 of record 700


 Point group  C1  



 ATOMIC COORDINATES

 NR  ATOM    CHARGE       X              Y              Z

   1  C       6.00   -1.179000129    0.255301999    0.566728865
   2  C       6.00    1.196952527   -0.349599333   -0.680868323
   3  H       1.00   -2.445305605    1.755744542   -0.326733647
   4  H       1.00   -1.813381189   -1.633290289   -0.257380698
   5  H       1.00    1.831522560    1.538992956    0.143241240
   6  H       1.00    2.459667524   -1.847585232    0.211271381

 Bond lengths in Bohr (Angstrom)

 1-2  2.750919008  1-3  2.157112107  1-4  2.156009447  2-5  2.156065057  2-6  2.152748050
     ( 1.455723648)     ( 1.141494569)     ( 1.140911066)     ( 1.140940494)     ( 1.139185209)

 Bond angles

  1-2-5   83.58327720   1-2-6  118.14283392   2-1-3  118.17244699   2-1-4   83.57874621

  3-1-4  106.15605226   5-2-6  106.16986112

 NUCLEAR CHARGE:                   16
 NUMBER OF PRIMITIVE AOS:          72
 NUMBER OF SYMMETRY AOS:           70
 NUMBER OF CONTRACTIONS:           36   (   36A   )
 NUMBER OF CORE ORBITALS:           2   (    2A   )
 NUMBER OF VALENCE ORBITALS:       12   (   12A   )


 NUCLEAR REPULSION ENERGY   32.11576130

 Eigenvalues of metric

         1 0.919E-02 0.301E-01 0.614E-01 0.696E-01 0.813E-01 0.223E+00 0.237E+00 0.273E+00


 Contracted 2-electron integrals neglected if value below      1.0D-11
 AO integral compression algorithm  1   Integral accuracy      1.0D-11

     1.573 MB (compressed) written to integral file ( 59.0%)


 NUMBER OF SORTED TWO-ELECTRON INTEGRALS:     222111.     BUFFER LENGTH:  32768
 NUMBER OF SEGMENTS:   1  SEGMENT LENGTH:     222111      RECORD LENGTH: 524288

 Memory used in sort:       0.78 MW

 SORT1 READ      284735. AND WROTE      212531. INTEGRALS IN      1 RECORDS. CPU TIME:     0.01 SEC, REAL TIME:     0.00 SEC
 SORT2 READ      212531. AND WROTE      222111. INTEGRALS IN      6 RECORDS. CPU TIME:     0.02 SEC, REAL TIME:     0.02 SEC

 FILE SIZES:   FILE 1:    31.7 MBYTE,  FILE 4:     4.2 MBYTE,   TOTAL:     35.9 MBYTE

 OPERATOR DM      FOR CENTER  0  COORDINATES:    0.000000    0.000000    0.000000


 **********************************************************************************************************************************
 DATASETS  * FILE   NREC   LENGTH (MB)   RECORD NAMES
              1      19       31.13       500      610      700      900      950      970     1000      129      960     1100   
                                          VAR    BASINP    GEOM    SYMINP    ZMAT    AOBASIS   BASIS     P2S    ABASIS      S 
                                         1400     1410     1200     1210     1080     1600     1650     1300     1700   
                                           T        V       H0       H01     AOSYM     SMH    MOLCAS    ERIS     OPER   

 PROGRAMS   *        TOTAL       INT
 CPU TIMES  *         0.29      0.19
 REAL TIME  *         0.50 SEC
 DISK USED  *        36.24 MB
 **********************************************************************************************************************************


 PROGRAM * RHF-SCF (CLOSED SHELL)       Authors: W. Meyer, H.-J. Werner


 NUMBER OF ELECTRONS:       8+    8-    SPACE SYMMETRY=1    SPIN SYMMETRY: Singlet 
 CONVERGENCE THRESHOLDS:    1.00E-05 (Density)    1.00E-07 (Energy)
 MAX. NUMBER OF ITERATIONS:       60
 INTERPOLATION TYPE:            DIIS
 INTERPOLATION STEPS:              2 (START)      1 (STEP)
 LEVEL SHIFTS:                  0.00 (CLOSED)  0.00 (OPEN) 



 Orbital guess generated from atomic densities. Full valence occupancy:    8

 Molecular orbital dump at record        2100.2

 Initial occupancy:   8

 ITERATION    DDIFF          GRAD             ENERGY        2-EL.EN.            DIPOLE MOMENTS         DIIS   ORB.
    1      0.000D+00      0.000D+00       -77.82466230    115.509257   -0.00181    0.00109    0.00087    0    start
    2      0.000D+00      0.696D-02       -77.84230804    114.477723    0.00035   -0.00056   -0.00101    1    diag
    3      0.731D-02      0.227D-02       -77.84434084    114.905459   -0.00070    0.00011    0.00071    2    diag
    4      0.295D-02      0.824D-03       -77.84477442    114.772847    0.00039   -0.00059   -0.00074    3    diag
    5      0.158D-02      0.286D-03       -77.84490423    114.780609   -0.00072    0.00013    0.00103    4    diag
    6      0.958D-03      0.130D-03       -77.84494443    114.782130    0.00173   -0.00143   -0.00273    5    diag
    7      0.510D-03      0.717D-04       -77.84495229    114.782977   -0.00041   -0.00005    0.00057    6    diag
    8      0.222D-03      0.285D-04       -77.84495389    114.783907    0.00009   -0.00037   -0.00020    7    diag
    9      0.124D-03      0.741D-05       -77.84495400    114.784038    0.00005   -0.00035   -0.00015    8    diag
   10      0.318D-04      0.203D-05       -77.84495400    114.784017    0.00005   -0.00035   -0.00016    9    orth
   11      0.536D-05      0.458D-06       -77.84495400    114.784024    0.00005   -0.00035   -0.00016    0    orth

 Final occupancy:   8

 !RHF STATE  1.1 Energy               -77.844954002201
 Nuclear energy                        32.11576130
 One-electron energy                 -167.35272732
 Two-electron energy                   57.39201202
 Virial quotient                       -1.00260156
 !RHF STATE  1.1 Dipole moment          0.00005421    -0.00035280    -0.00015668
 Dipole moment /Debye                   0.00013777    -0.00089668    -0.00039821

 ELECTRON ORBITALS
 =================

  Orbital  Occupation    Energy     Coefficients
    1.1     2.00000   -11.26414     1 1s    0.78357     2 1s    0.61524
    2.1     2.00000   -11.26325     1 1s   -0.61537     2 1s    0.78367
    3.1     2.00000    -1.03549     1 1s    0.28244     2 1s    0.28274
    4.1     2.00000    -0.77141     1 1s   -0.30433     2 1s    0.30381
    5.1     2.00000    -0.61913     1 2py   0.30747     2 2py   0.30881
    6.1     2.00000    -0.54980     1 2px   0.29955     2 2px  -0.29946
    7.1     2.00000    -0.39293     1 2pz   0.30829     1 2pz   0.28429     2 2pz   0.30900     2 2pz   0.28477
    8.1     2.00000    -0.38821     1 2px   0.26996     2 2px  -0.27079     4 1s   -0.28494     5 1s   -0.28501
    9.1     0.00000     0.06205     1 1s    0.41043     1 2pz   0.32736     1 2pz   0.45824     2 1s    0.40927     2 2pz  -0.32752
                                    2 2pz  -0.45866
   10.1     0.00000     0.23223     1 1s   -1.07949     1 2px   0.48663     1 2py   0.35626     1 2pz   0.44615     2 1s   -1.07655
                                    2 2px  -0.48652     2 2py  -0.35716     2 2pz  -0.44507     3 1s    0.56458     4 1s    1.08647
                                    5 1s    1.08638     6 1s    0.56153
   11.1     0.00000     0.26716     1 1s   -1.41068     1 2py  -0.35696     1 2pz   0.42541     2 1s    1.41208     2 2py  -0.34607
                                    2 2pz   0.42207     3 1s    1.35638     6 1s   -1.34706
   12.1     0.00000     0.30787     1 1s   -0.60824     1 2px   0.36540     1 2py  -0.99045     1 2pz   0.43067     2 1s   -0.63199
                                    2 2px  -0.36406     2 2py   0.99521     2 2pz  -0.43752     3 1s    1.42426     4 1s   -0.44882
                                    5 1s   -0.44865     6 1s    1.44458
   13.1     0.00000     0.33627     1 1s   -1.07419     1 2px   0.27359     1 2py   0.76580     1 2pz   0.32635     2 1s    1.07412
                                    2 2px   0.27366     2 2py   0.76572     2 2pz   0.32635     4 1s    1.70984     5 1s   -1.70961
   14.1     0.00000     0.42274     1 1s    2.14550     1 2px   1.77753     1 2py  -0.59450     1 2pz  -0.82254     2 1s   -2.14301
                                    2 2px   1.77860     2 2py  -0.59672     2 2pz  -0.82152     3 1s    0.52180     6 1s   -0.52520
   15.1     0.00000     0.70107     1 2px   0.54580     1 2px  -0.90811     2 2px  -0.54637     2 2px   0.90909     4 1s    0.43395
                                    5 1s    0.43390
   16.1     0.00000     0.77025     1 1s   -0.48465     1 2py  -0.38067     1 2px  -0.58472     1 2py   0.77184     2 1s    0.47723
                                    2 2py  -0.39300     2 2px  -0.58847     2 2py   0.80059     3 1s   -0.48770     4 1s    0.26086
                                    5 1s   -0.26758     6 1s    0.48999
   17.1     0.00000     0.79157     1 2py  -0.58667     1 2pz  -0.30800     1 2py   1.20540     1 2pz   0.33314     2 2py   0.57828
                                    2 2pz   0.29165     2 2py  -1.18765     2 2pz  -0.31358     4 1s    0.28178     5 1s    0.27327
   18.1     0.00000     0.79960     1 2pz   0.72939     1 2pz  -0.68584     2 2pz   0.73744     2 2pz  -0.69549
   19.1     0.00000     0.86772     1 1s   -0.37557     1 2px  -0.26028     1 2pz  -0.67203     1 2px   0.46648     1 2py  -0.60335
                                    1 2pz   0.91597     2 1s   -0.37481     2 2px   0.25891     2 2pz   0.67039     2 2px  -0.46074
                                    2 2py   0.59712     2 2pz  -0.91672
   20.1     0.00000     0.97423     1 2px   0.70929     1 2py   0.37922     1 2px  -1.13414     1 2py  -0.79471     2 2px   0.70948
                                    2 2py   0.37922     2 2px  -1.13442     2 2py  -0.79504     4 1s   -1.06320     5 1s    1.06332
   21.1     0.00000     1.10796     1 2px   0.44590     1 2py  -0.52674     1 2px  -0.85332     1 2py   0.86928     2 2px   0.43479
                                    2 2py  -0.51621     2 2px  -0.84247     2 2py   0.86089     3 1s    0.59703     3 1s   -1.34557
                                    4 1s    0.34313     5 1s   -0.34650     6 1s   -0.56350     6 1s    1.30233
   22.1     0.00000     1.12354     1 1s   -0.66420     1 1s    1.20370     1 2px   0.27320     1 2py   0.38593     1 2px  -0.35998
                                    1 2py  -0.38331     2 1s   -0.66605     2 1s    1.20933     2 2px  -0.27434     2 2py  -0.38448
                                    2 2px   0.36057     2 2py   0.38151     4 1s    0.66634     4 1s   -1.18070     5 1s    0.66511
                                    5 1s   -1.17953
   23.1     0.00000     1.14484     1 1s   -0.55789     1 1s    0.86475     1 2py  -0.28335     1 2py   0.25181     2 1s   -0.55667
                                    2 1s    0.84874     2 2px  -0.26435     2 2py   0.31315     2 2px   0.26038     2 2py  -0.29750
                                    3 1s    0.77039     3 1s   -1.02006     6 1s    0.79182     6 1s   -1.07144
   24.1     0.00000     1.17898     1 1s   -0.36923     1 2py   0.32109     1 2pz   0.25578     1 2px  -0.49416     1 2py  -0.25971
                                    2 1s    0.38011     2 2py   0.31519     2 2pz   0.25874     2 2px  -0.49933     2 2py  -0.25412
                                    3 1s   -0.28602     4 1s    0.78778     4 1s   -1.07776     5 1s   -0.78813     5 1s    1.07793
                                    6 1s    0.30588
   25.1     0.00000     1.25723     1 1s   -1.19752     1 1s    2.05741     1 2px  -0.52986     1 2py   0.53221     1 2pz  -0.97776
                                    2 1s   -1.20399     2 1s    2.08421     2 2px   0.52469     2 2py  -0.53091     2 2pz   0.98413
                                    3 1s   -0.40825     3 1s   -0.82868     4 1s   -0.40236     4 1s   -0.37935     5 1s   -0.40360
                                    5 1s   -0.38142     6 1s   -0.40794     6 1s   -0.83589
   26.1     0.00000     1.29002     1 1s   -1.57853     1 1s    5.09977     1 2px   1.31974     1 2py  -0.80824     1 2pz  -1.23071
                                    2 1s    1.57510     2 1s   -5.09478     2 2px   1.32143     2 2py  -0.80932     2 2pz  -1.22712
                                    3 1s   -0.32929     4 1s   -0.26114     4 1s   -0.66306     5 1s    0.26030     5 1s    0.66051
                                    6 1s    0.33081
   27.1     0.00000     1.69561     1 1s    0.58875     1 3d0   0.35289     1 3d2- -0.29632     1 3d2+ -0.32300     2 1s   -0.58933
                                    2 3d0  -0.35284     2 3d2-  0.29623     2 3d2+  0.32308
   28.1     0.00000     1.91485     1 1s    0.31585     1 1s   -0.64074     1 2pz   0.33959     1 3d0   0.35708     1 3d1+  0.33147
                                    1 3d2+  0.34514     1 3d1-  0.31611     2 1s    0.30440     2 1s   -0.59557     2 2pz  -0.32781
                                    2 3d0   0.35287     2 3d1+  0.34367     2 3d2+  0.34979     2 3d1-  0.32687
   29.1     0.00000     1.92945     1 1s   -0.34180     1 1s    1.45114     1 2px   0.34125     1 2pz  -0.37527     1 3d2- -0.32472
                                    1 3d1+  0.39400     1 3d1-  0.36905     2 1s    0.35199     2 1s   -1.47199     2 2px   0.33590
                                    2 2pz  -0.38633     2 3d2-  0.32320     2 3d1+ -0.38287     2 3d1- -0.35936     3 1s   -0.33315
                                    6 1s    0.34066
   30.1     0.00000     2.17174     1 1s   -0.34079     1 1s    1.54548     1 2px   0.35393     1 2py  -0.25004     1 2pz  -0.41579
                                    1 3d0  -0.54856     1 3d2+ -0.36349     2 1s    0.34379     2 1s   -1.54975     2 2px   0.35502
                                    2 2py  -0.25141     2 2pz  -0.41749     2 3d0   0.55097     2 3d2+  0.36268     3 1s   -0.33658
                                    4 1s   -0.29328     5 1s    0.29538     6 1s    0.33661
   31.1     0.00000     2.25788     1 1s    0.49687     1 1s   -0.33020     1 2px   0.26531     1 2px  -0.30192     1 3d2-  0.28515
                                    1 3d1+  0.39409     1 3d2+ -0.39004     2 1s    0.49549     2 1s   -0.32263     2 2px  -0.26526
                                    2 2px   0.29981     2 3d2-  0.28480     2 3d1+  0.39371     2 3d2+ -0.39133
   32.1     0.00000     2.34511     1 2py   0.35339     1 3d0   0.49673     1 3d2- -0.40127     1 3d1- -0.36203     2 2py  -0.35076
                                    2 3d0   0.49369     2 3d2- -0.40062     2 3d1- -0.35958     3 1s   -0.26980     4 1s    0.41718
                                    5 1s    0.41375     6 1s   -0.27081
   33.1     0.00000     2.55204     1 1s   -0.47282     1 2py   0.31982     1 3d2- -0.45544     1 3d1- -0.59885     2 1s    0.47148
                                    2 2py   0.32251     2 3d2-  0.45069     2 3d1-  0.60062     3 1s   -0.41547     4 1s    0.44142
                                    5 1s   -0.44202     6 1s    0.41502
   34.1     0.00000     2.64711     1 2py   0.31342     1 3d2-  0.50191     1 3d2+  0.48653     1 3d1- -0.47722     2 2py  -0.31203
                                    2 3d2-  0.50447     2 3d2+  0.48608     2 3d1- -0.47421     4 1s    0.33582     5 1s    0.33382
   35.1     0.00000     2.68997     1 3d0  -0.42873     1 3d2- -0.39201     1 3d1+  0.48983     1 3d1- -0.30735     2 3d0  -0.42842
                                    2 3d2- -0.39773     2 3d1+  0.49101     2 3d1- -0.31343     3 1s   -0.38941     6 1s   -0.39602
   36.1     0.00000     2.96419     1 1s    1.72990     1 2px   0.43974     1 2px   0.87299     1 2pz  -0.44423     1 3d2- -0.34921
                                    1 3d1+ -0.69919     1 3d2+  0.64673     2 1s   -1.72971     2 2px   0.43980     2 2px   0.87310
                                    2 2pz  -0.44416     2 3d2-  0.34865     2 3d1+  0.69959     2 3d2+ -0.64666


 HOMO      8.1    -0.388206 =     -10.5636eV
 LUMO      9.1     0.062047 =       1.6884eV
 LUMO-HOMO         0.450253 =      12.2520eV


 **********************************************************************************************************************************
 DATASETS  * FILE   NREC   LENGTH (MB)   RECORD NAMES
              1      19       31.13       500      610      700      900      950      970     1000      129      960     1100   
                                          VAR    BASINP    GEOM    SYMINP    ZMAT    AOBASIS   BASIS     P2S    ABASIS      S 
                                         1400     1410     1200     1210     1080     1600     1650     1300     1700   
                                           T        V       H0       H01     AOSYM     SMH    MOLCAS    ERIS     OPER   

              2       4        2.86       700     1000      520     2100   
                                         GEOM     BASIS   MCVARS     RHF  

 PROGRAMS   *        TOTAL    HF-SCF       INT
 CPU TIMES  *         0.40      0.11      0.19
 REAL TIME  *         0.68 SEC
 DISK USED  *        36.24 MB
 **********************************************************************************************************************************


 PROGRAM * MULTI (Direct Multiconfiguration SCF)       Authors: P.J. Knowles, H.-J. Werner (1984)


 Number of closed-shell orbitals:   7 (   7 )
 Number of active  orbitals:        2 (   2 )
 Number of external orbitals:      27 (  27 )

 State symmetry 1

 Number of electrons:     2    Spin symmetry=Singlet   Space symmetry=1
 Number of states:        3
 Number of CSFs:          3   (4 determinants, 4 intermediate states)

 Molecular orbitals read from record     2100.2  Type=RHF/CANONICAL (state 1.1)

 Wavefunction dump at record             2140.2

 Convergence thresholds  0.10E-01 (gradient)  0.10E-05 (energy)  0.10E-02 (step length)

 Weight factors for state symmetry  1:    0.33333   0.33333   0.33333

 Number of orbital rotations:      257   (    14 Core/Active    189 Core/Virtual   0 Active/Active     54 Active/Virtual)
 Total number of variables:        269

 Micro-Iterations solved by the two-step solver

 ITER. MIC  NCI  NEG     ENERGY(VAR)     ENERGY(PROJ)   ENERGY CHANGE     GRAD(0)  GRAD(ORB)   GRAD(CI)     STEP       TIME

   1    6    5    0     -77.68728883     -77.70704364   -0.01975481    0.16689687 0.00189952 0.00000000  0.15D+00      0.10
   2    5    4    0     -77.70671390     -77.70673603   -0.00002214    0.00691741 0.00000492 0.00000000  0.48D-02      0.18
   3    5    4    0     -77.70673607     -77.70673607   -0.00000000    0.00001466 0.00000000 0.00000000  0.20D-04      0.26

 ** WVFN ****  CONVERGENCE REACHED, FINAL GRADIENT:  0.19D-09



 Results for state 1.1
 =====================

 !MCSCF STATE  1.1 Energy             -77.838575194294
 Nuclear energy                        32.11576130
 Kinetic energy                        77.70131318
 One electron energy                 -167.43625751
 Two electron energy                   57.48192102
 Virial ratio                           2.00176653

 !MCSCF STATE  1.1 Dipole moment        0.00002663    -0.00028414    -0.00015672
 Dipole moment /Debye                   0.00006767    -0.00072216    -0.00039831

 Results for state 2.1
 =====================

 !MCSCF STATE  2.1 Energy             -77.734382155856
 Nuclear energy                        32.11576130
 Kinetic energy                        77.77428032
 One electron energy                 -167.11897480
 Two electron energy                   57.26883134
 Virial ratio                           1.99948700

 !MCSCF STATE  2.1 Dipole moment        0.00016983    -0.00049206     0.00009495
 Dipole moment /Debye                   0.00043163    -0.00125060     0.00024132

 Results for state 3.1
 =====================

 !MCSCF STATE  3.1 Energy             -77.547250860340
 Nuclear energy                        32.11576130
 Kinetic energy                        77.83171034
 One electron energy                 -166.84590246
 Two electron energy                   57.18289029
 Virial ratio                           1.99634520

 !MCSCF STATE  3.1 Dipole moment        0.00056869    -0.00080101     0.00029667
 Dipole moment /Debye                   0.00144536    -0.00203582     0.00075400

 State-averaged charge density matrix saved on record  2140.2 (density set 1)

 !MCSCF expec         <1.1|DMX|1.1>     0.000026626594 au =     0.000067673620 Debye
 !MCSCF trans         <2.1|DMX|1.1>    -0.000552887512 au =    -0.001405207842 Debye
 !MCSCF expec         <2.1|DMX|2.1>     0.000169825487 au =     0.000431625062 Debye
 !MCSCF trans         <3.1|DMX|1.1>     0.000017213083 au =     0.000043748428 Debye
 !MCSCF trans         <3.1|DMX|2.1>    -0.000586530789 au =    -0.001490714923 Debye
 !MCSCF expec         <3.1|DMX|3.1>     0.000568687224 au =     0.001445364075 Debye

 !MCSCF expec         <1.1|DMY|1.1>    -0.000284136588 au =    -0.000722155869 Debye
 !MCSCF trans         <2.1|DMY|1.1>     0.000224408755 au =     0.000570352804 Debye
 !MCSCF expec         <2.1|DMY|2.1>    -0.000492057126 au =    -0.001250602550 Debye
 !MCSCF trans         <3.1|DMY|1.1>     0.000007484777 au =     0.000019023158 Debye
 !MCSCF trans         <3.1|DMY|2.1>     0.000226381650 au =     0.000575367073 Debye
 !MCSCF expec         <3.1|DMY|3.1>    -0.000801006434 au =    -0.002035821932 Debye

 !MCSCF expec         <1.1|DMZ|1.1>    -0.000156717896 au =    -0.000398311071 Debye
 !MCSCF trans         <2.1|DMZ|1.1>     0.000097063752 au =     0.000246695292 Debye
 !MCSCF expec         <2.1|DMZ|2.1>     0.000094948426 au =     0.000241319021 Debye
 !MCSCF trans         <3.1|DMZ|1.1>    -0.000029762827 au =    -0.000075644607 Debye
 !MCSCF trans         <3.1|DMZ|2.1>     0.000124557534 au =     0.000316572938 Debye
 !MCSCF expec         <3.1|DMZ|3.1>     0.000296666242 au =     0.000754000987 Debye


 NATURAL ORBITALS (state averaged)
 =================================

  Orbital  Occupation    Energy     Coefficients
    1.1     2.00000   -11.25945     1 1s    0.80202     2 1s    0.59096
    2.1     2.00000   -11.25866     1 1s   -0.59104     2 1s    0.80208
    3.1     2.00000    -1.04922     1 1s    0.27758     2 1s    0.27783
    4.1     2.00000    -0.77315     1 1s   -0.32913     2 1s    0.32869
    5.1     2.00000    -0.62188     1 2py   0.30052     2 2py   0.30200
    6.1     2.00000    -0.54785     1 2px   0.25787     2 2px  -0.25769
    7.1     2.00000    -0.42052     1 2pz   0.32452     1 2pz   0.27923     2 2pz   0.32462     2 2pz   0.27933
    8.1     1.00000    -0.08752     1 1s    0.27606     1 2pz   0.40231     1 2pz   0.42474     2 1s    0.27547     2 2pz  -0.40242
                                    2 2pz  -0.42496
    9.1     1.00000    -0.23225     1 2px   0.30883     2 2px  -0.30890     4 1s   -0.29349     5 1s   -0.29343
   10.1    -0.00000     0.21978     1 1s   -1.09098     1 2px   0.48161     1 2py   0.37291     1 2pz   0.38413     2 1s   -1.08871
                                    2 2px  -0.48157     2 2py  -0.37343     2 2pz  -0.38328     3 1s    0.53314     4 1s    1.09870
                                    5 1s    1.09833     6 1s    0.53099
   11.1    -0.00000     0.26590     1 1s   -1.47317     1 2py  -0.31394     1 2pz   0.43435     2 1s    1.47320     2 2py  -0.30387
                                    2 2pz   0.43140     3 1s    1.34888     6 1s   -1.33948
   12.1    -0.00000     0.30991     1 1s   -0.66628     1 2px   0.36719     1 2py  -0.98488     1 2pz   0.40455     2 1s   -0.69350
                                    2 2px  -0.36652     2 2py   0.98634     2 2pz  -0.41234     3 1s    1.44625     4 1s   -0.40688
                                    5 1s   -0.40001     6 1s    1.46543
   13.1    -0.00000     0.31993     1 1s   -1.14129     1 2py   0.83365     1 2pz   0.35590     2 1s    1.13855     2 2py   0.83707
                                    2 2pz   0.35452     4 1s    1.72354     5 1s   -1.72470
   14.1    -0.00000     0.42884     1 1s    2.00035     1 2px   1.78833     1 2py  -0.48844     1 2pz  -0.76229     2 1s   -1.99797
                                    2 2px   1.78936     2 2py  -0.49060     2 2pz  -0.76132     3 1s    0.52465     6 1s   -0.52794
   15.1    -0.00000     0.69713     1 2px   0.53052     1 2px  -0.88616     2 2px  -0.53099     2 2px   0.88705     4 1s   -0.25649
                                    4 1s    0.48907     5 1s   -0.25595     5 1s    0.48908
   16.1    -0.00000     0.76703     1 1s   -0.61224     1 2py  -0.37007     1 2px  -0.63902     1 2py   0.79248     2 1s    0.60561
                                    2 2py  -0.38086     2 2px  -0.64347     2 2py   0.81883     3 1s   -0.48288     4 1s    0.27765
                                    5 1s   -0.28403     6 1s    0.48509
   17.1    -0.00000     0.79034     1 2py  -0.56064     1 2pz  -0.30305     1 2py   1.18564     1 2pz   0.39755     2 2py   0.55354
                                    2 2pz   0.28773     2 2py  -1.16873     2 2pz  -0.37704     4 1s    0.28347     5 1s    0.27537
   18.1    -0.00000     0.79952     1 1s    0.28188     1 2pz   0.72603     1 2pz  -0.74578     2 1s   -0.28058     2 2pz   0.73365
                                    2 2pz  -0.75668
   19.1    -0.00000     0.86534     1 1s   -0.33420     1 2px  -0.27410     1 2pz  -0.64792     1 2px   0.50118     1 2py  -0.60690
                                    1 2pz   0.96663     2 1s   -0.33351     2 2px   0.27277     2 2pz   0.64611     2 2px  -0.49514
                                    2 2py   0.60059     2 2pz  -0.96738     3 1s    0.28378     6 1s    0.28183
   20.1    -0.00000     0.98052     1 2px   0.70362     1 2py   0.38871     1 2px  -1.05206     1 2py  -0.81715     2 2px   0.70379
                                    2 2py   0.38871     2 2px  -1.05232     2 2py  -0.81755     4 1s   -1.02958     5 1s    1.02975
   21.1    -0.00000     1.09666     1 1s   -0.63976     1 1s    1.14878     1 2px   0.30021     1 2py   0.40189     1 2px  -0.36643
                                    1 2py  -0.41965     2 1s   -0.63936     2 1s    1.15278     2 2px  -0.29702     2 2py  -0.40513
                                    2 2px   0.35902     2 2py   0.42566     4 1s    0.67231     4 1s   -1.14858     5 1s    0.67221
                                    5 1s   -1.15019
   22.1    -0.00000     1.10922     1 2px   0.44319     1 2py  -0.57571     1 2px  -0.76891     1 2py   0.90319     2 2px   0.43756
                                    2 2py  -0.56352     2 2px  -0.76449     2 2py   0.89305     3 1s    0.52735     3 1s   -1.24049
                                    4 1s   -0.27887     4 1s    0.55681     5 1s    0.27342     5 1s   -0.54829     6 1s   -0.49999
                                    6 1s    1.20743
   23.1    -0.00000     1.14188     1 1s   -0.44453     1 1s    0.29592     1 2pz   0.26210     1 2px  -0.69709     2 1s    0.38488
                                    2 2pz   0.25038     2 2px  -0.67363     3 1s    0.39530     3 1s   -0.62323     4 1s    0.74098
                                    4 1s   -1.01587     5 1s   -0.74561     5 1s    1.02509     6 1s   -0.30378     6 1s    0.50531
   24.1    -0.00000     1.14994     1 1s   -0.49707     1 1s    0.77616     1 2py  -0.31489     1 2py   0.26556     2 1s   -0.54483
                                    2 1s    0.78672     2 2px  -0.25479     2 2py   0.30937     2 2px   0.26632     2 2py  -0.28786
                                    3 1s    0.76018     3 1s   -0.96778     6 1s    0.81902     6 1s   -1.07467
   25.1    -0.00000     1.24895     1 1s   -1.23702     1 1s    2.12745     1 2px  -0.54497     1 2py   0.54285     1 2pz  -0.97501
                                    2 1s   -1.24348     2 1s    2.15357     2 2px   0.54035     2 2py  -0.54209     2 2pz   0.98114
                                    3 1s   -0.40000     3 1s   -0.85041     4 1s   -0.36932     4 1s   -0.42967     5 1s   -0.37035
                                    5 1s   -0.43164     6 1s   -0.39932     6 1s   -0.85825
   26.1    -0.00000     1.28354     1 1s   -1.58494     1 1s    5.10616     1 2px   1.33555     1 2py  -0.77799     1 2pz  -1.21608
                                    2 1s    1.58191     2 1s   -5.10180     2 2px   1.33710     2 2py  -0.77896     2 2pz  -1.21268
                                    3 1s   -0.33987     4 1s   -0.26375     4 1s   -0.63195     5 1s    0.26302     5 1s    0.62942
                                    6 1s    0.34189
   27.1    -0.00000     1.68999     1 1s    0.62026     1 3d0   0.34618     1 3d2- -0.30115     1 3d2+ -0.32490     2 1s   -0.62084
                                    2 3d0  -0.34614     2 3d2-  0.30105     2 3d2+  0.32496
   28.1    -0.00000     1.91168     1 1s    0.30688     1 1s   -0.63039     1 2pz   0.33425     1 3d0   0.35492     1 3d1+  0.32746
                                    1 3d2+  0.35164     1 3d1-  0.31526     2 1s    0.29551     2 1s   -0.58566     2 2pz  -0.32262
                                    2 3d0   0.35062     2 3d1+  0.33998     2 3d2+  0.35645     2 3d1-  0.32613
   29.1    -0.00000     1.92588     1 1s   -0.33411     1 1s    1.41575     1 2px   0.32959     1 2pz  -0.36515     1 3d2- -0.32149
                                    1 3d1+  0.39779     1 3d1-  0.36771     2 1s    0.34411     2 1s   -1.43649     2 2px   0.32403
                                    2 2pz  -0.37616     2 3d2-  0.31971     2 3d1+ -0.38666     2 3d1- -0.35787     3 1s   -0.33441
                                    6 1s    0.34203
   30.1    -0.00000     2.17157     1 1s   -0.34481     1 1s    1.53704     1 2px   0.34952     1 2py  -0.25197     1 2pz  -0.41079
                                    1 3d0  -0.55233     1 3d2+ -0.36543     2 1s    0.34764     2 1s   -1.54117     2 2px   0.35055
                                    2 2py  -0.25335     2 2pz  -0.41239     2 3d0   0.55475     2 3d2+  0.36474     3 1s   -0.33658
                                    4 1s   -0.28906     5 1s    0.29120     6 1s    0.33660
   31.1    -0.00000     2.25317     1 1s    0.49025     1 1s   -0.33056     1 2px   0.27027     1 2px  -0.29283     1 3d2-  0.30431
                                    1 3d1+  0.40184     1 3d2+ -0.38926     2 1s    0.48908     2 1s   -0.32435     2 2px  -0.27019
                                    2 2px   0.29109     2 3d2-  0.30402     2 3d1+  0.40156     2 3d2+ -0.39037
   32.1    -0.00000     2.33782     1 2py   0.37094     1 3d0   0.49799     1 3d2- -0.39348     1 3d1- -0.37679     2 2py  -0.36812
                                    2 3d0   0.49475     2 3d2- -0.39276     2 3d1- -0.37420     3 1s   -0.28313     4 1s    0.40433
                                    5 1s    0.40077     6 1s   -0.28420
   33.1    -0.00000     2.54599     1 1s   -0.45828     1 2py   0.32040     1 3d2- -0.45807     1 3d1- -0.60001     2 1s    0.45699
                                    2 2py   0.32332     2 3d2-  0.45386     2 3d1-  0.60208     3 1s   -0.41839     4 1s    0.43164
                                    5 1s   -0.43251     6 1s    0.41835
   34.1    -0.00000     2.63863     1 2py   0.32470     1 3d2-  0.49273     1 3d2+  0.48874     1 3d1- -0.48937     2 2py  -0.32340
                                    2 3d2-  0.49511     2 3d2+  0.48829     2 3d1- -0.48659     4 1s    0.33559     5 1s    0.33376
   35.1    -0.00000     2.69461     1 3d0  -0.43711     1 3d2- -0.39658     1 3d1+  0.49775     1 3d1- -0.29173     2 3d0  -0.43697
                                    2 3d2- -0.40204     2 3d1+  0.49872     2 3d1- -0.29741     3 1s   -0.39042     6 1s   -0.39679
   36.1    -0.00000     2.95949     1 1s    1.76066     1 2px   0.43347     1 2px   0.88526     1 2pz  -0.45237     1 3d2- -0.34708
                                    1 3d1+ -0.70207     1 3d2+  0.64404     2 1s   -1.76047     2 2px   0.43353     2 2px   0.88538
                                    2 2pz  -0.45230     2 3d2-  0.34649     2 3d1+  0.70251     2 3d2+ -0.64397


 Natural orbital dump (state averaged) at molpro section  2140.2    (Orbital set 2)



 **********************************************************************************************************************************
 DATASETS  * FILE   NREC   LENGTH (MB)   RECORD NAMES
              1      20       31.86       500      610      700      900      950      970     1000      129      960     1100   
                                          VAR    BASINP    GEOM    SYMINP    ZMAT    AOBASIS   BASIS     P2S    ABASIS      S 
                                         1400     1410     1200     1210     1080     1600     1650     1300     1700     1380   
                                           T        V       H0       H01     AOSYM     SMH    MOLCAS    ERIS     OPER     JKOP   

              2       5        5.42       700     1000      520     2100     2140   
                                         GEOM     BASIS   MCVARS     RHF     MCSCF   

 PROGRAMS   *        TOTAL     MULTI    HF-SCF       INT
 CPU TIMES  *         0.72      0.32      0.11      0.19
 REAL TIME  *         1.13 SEC
 DISK USED  *        39.04 MB
 **********************************************************************************************************************************
 Molecular orbitals read from record     2140.2  Type=MCSCF/NATURAL (state averaged)
 Occupation numbers read from record     2140.2  Type=MCSCF/NATURAL (state averaged)
 Orbital energies read from record       2140.2  Type=MCSCF/NATURAL (state averaged)
 Redundancy group numbers read from rec  2140.2  Type=MCSCF/NATURAL (state averaged)

 MULTI/6-31G* energy=    -77.547250860340

           MULTI          HF-SCF
    -77.54725086    -77.84495400
 **********************************************************************************************************************************
 Molpro calculation terminated
