
 Primary working directories    : /scratch.local/johan406.molpro_temp/molpro.x0uEfuZpOu
 Secondary working directories  : /scratch.local/johan406.molpro_temp/molpro.x0uEfuZpOu
 Wavefunction directory         : /home/goodpast/johan406/wfu/
 Main file repository           : /scratch.local/johan406.molpro_temp/molpro.x0uEfuZpOu/

 id        : roweumn

 Nodes     nprocs
 acn09        1

 Using customized tuning parameters: mindgm=1; mindgv=20; mindgc=4; mindgr=1; noblas=0; minvec=7
 default implementation of scratch files=df  


 Variables initialized (934), CPU time= 0.01 sec
                                                                                 !leave this line blank
 
 gprint, orbitals=30
 memory, 125., m
 symmetry, nosym
 nelect=16
 basis=6-31g*
 
 geometry={
 C -0.6193 0.1305 0.3023
 C 0.63 -0.1804 -0.3626
 H -1.3427 0.9882 -0.2054
 H -0.955 -0.8608 -0.1338
 H 0.9657 0.8109 0.0734
 H 1.348 -1.0345 0.1431
 }
 
 hf
 {multi,
 closed 7
 occ 9
 wf,spin=0;STATE,3
 }
 
 Commands  initialized (763), CPU time= 0.01 sec, 617 directives.
 Default parameters read. Elapsed time= 0.09 sec

 Checking input...
 Passed
1


                                         ***  PROGRAM SYSTEM MOLPRO  ***
                                       Copyright, TTI GmbH Stuttgart, 2015
                                    Version 2019.2 linked Oct 25 2019 22:50:27


 **********************************************************************************************************************************
 LABEL *                                                                                 
  64 bit serial version                                                                  DATE: 07-Feb-23          TIME: 16:03:40  
 **********************************************************************************************************************************

 SHA1:             8dbd9ae1082e4ce945b0f27595c9eb2d4aa09004
 **********************************************************************************************************************************


 Variable memory set to  125000000 words,  buffer space 

 SETTING NELECT         =        16.00000000                                  
 SETTING BASIS          =    6-31G*
 ZSYMEL=NOSYM


Geometry recognized as XYZ



 Recomputing integrals since basis changed


 Using spherical harmonics

 Library entry C      S 6-31G                selected for orbital group  1
 Library entry C      P 6-31G                selected for orbital group  1
 Library entry C      D 6-31G*               selected for orbital group  1
 Library entry H      S 6-31G                selected for orbital group  2


 PROGRAM * SEWARD (Integral evaluation for generally contracted gaussian basis sets)     Author: Roland Lindh, 1990

 Geometry written to block  1 of record 700


 Point group  C1  



 ATOMIC COORDINATES

 NR  ATOM    CHARGE       X              Y              Z

   1  C       6.00   -1.170307389    0.246609259    0.571264207
   2  C       6.00    1.190527458   -0.340906593   -0.685214693
   3  H       1.00   -2.537335267    1.867427356   -0.388149746
   4  H       1.00   -1.804688449   -1.626676248   -0.252845355
   5  H       1.00    1.824908518    1.532378914    0.138705898
   6  H       1.00    2.547350816   -1.954921676    0.270419808

 Bond lengths in Bohr (Angstrom)

 1-2  2.738148148  1-3  2.327292775  1-4  2.142613939  2-5  2.142541262  2-6  2.315005748
     ( 1.448965600)     ( 1.231550299)     ( 1.133822468)     ( 1.133784009)     ( 1.225048285)

 Bond angles

  1-2-5   83.75513887   1-2-6  117.74295328   2-1-3  117.82098108   2-1-4   83.75301882

  3-1-4  106.04678263   5-2-6  106.09905852

 NUCLEAR CHARGE:                   16
 NUMBER OF PRIMITIVE AOS:          72
 NUMBER OF SYMMETRY AOS:           70
 NUMBER OF CONTRACTIONS:           36   (   36A   )
 NUMBER OF CORE ORBITALS:           2   (    2A   )
 NUMBER OF VALENCE ORBITALS:       12   (   12A   )


 NUCLEAR REPULSION ENERGY   31.71301887

 Eigenvalues of metric

         1 0.906E-02 0.349E-01 0.608E-01 0.835E-01 0.845E-01 0.228E+00 0.236E+00 0.271E+00


 Contracted 2-electron integrals neglected if value below      1.0D-11
 AO integral compression algorithm  1   Integral accuracy      1.0D-11

     1.573 MB (compressed) written to integral file ( 58.7%)


 NUMBER OF SORTED TWO-ELECTRON INTEGRALS:     222111.     BUFFER LENGTH:  32768
 NUMBER OF SEGMENTS:   1  SEGMENT LENGTH:     222111      RECORD LENGTH: 524288

 Memory used in sort:       0.78 MW

 SORT1 READ      284735. AND WROTE      212530. INTEGRALS IN      1 RECORDS. CPU TIME:     0.00 SEC, REAL TIME:     0.01 SEC
 SORT2 READ      212530. AND WROTE      222111. INTEGRALS IN      6 RECORDS. CPU TIME:     0.02 SEC, REAL TIME:     0.02 SEC

 FILE SIZES:   FILE 1:    31.7 MBYTE,  FILE 4:     4.2 MBYTE,   TOTAL:     35.9 MBYTE

 OPERATOR DM      FOR CENTER  0  COORDINATES:    0.000000    0.000000    0.000000


 **********************************************************************************************************************************
 DATASETS  * FILE   NREC   LENGTH (MB)   RECORD NAMES
              1      19       31.13       500      610      700      900      950      970     1000      129      960     1100   
                                          VAR    BASINP    GEOM    SYMINP    ZMAT    AOBASIS   BASIS     P2S    ABASIS      S 
                                         1400     1410     1200     1210     1080     1600     1650     1300     1700   
                                           T        V       H0       H01     AOSYM     SMH    MOLCAS    ERIS     OPER   

 PROGRAMS   *        TOTAL       INT
 CPU TIMES  *         0.29      0.18
 REAL TIME  *         0.58 SEC
 DISK USED  *        36.24 MB
 **********************************************************************************************************************************


 PROGRAM * RHF-SCF (CLOSED SHELL)       Authors: W. Meyer, H.-J. Werner


 NUMBER OF ELECTRONS:       8+    8-    SPACE SYMMETRY=1    SPIN SYMMETRY: Singlet 
 CONVERGENCE THRESHOLDS:    1.00E-05 (Density)    1.00E-07 (Energy)
 MAX. NUMBER OF ITERATIONS:       60
 INTERPOLATION TYPE:            DIIS
 INTERPOLATION STEPS:              2 (START)      1 (STEP)
 LEVEL SHIFTS:                  0.00 (CLOSED)  0.00 (OPEN) 



 Orbital guess generated from atomic densities. Full valence occupancy:    8

 Molecular orbital dump at record        2100.2

 Initial occupancy:   8

 ITERATION    DDIFF          GRAD             ENERGY        2-EL.EN.            DIPOLE MOMENTS         DIIS   ORB.
    1      0.000D+00      0.000D+00       -77.80716032    114.817974   -0.00423    0.00246    0.00156    0    start
    2      0.000D+00      0.689D-02       -77.82464299    113.727727    0.00084   -0.00141   -0.00215    1    diag
    3      0.705D-02      0.231D-02       -77.82667631    114.184239   -0.00103   -0.00030    0.00120    2    diag
    4      0.299D-02      0.835D-03       -77.82711385    114.042128    0.00117   -0.00168   -0.00155    3    diag
    5      0.158D-02      0.275D-03       -77.82722957    114.050051   -0.00068   -0.00051    0.00166    4    diag
    6      0.913D-03      0.131D-03       -77.82726134    114.051578    0.00246   -0.00242   -0.00337    5    diag
    7      0.385D-03      0.868D-04       -77.82727480    114.052577    0.00038   -0.00113   -0.00001    6    diag
    8      0.317D-03      0.267D-04       -77.82727643    114.053592    0.00067   -0.00131   -0.00050    7    diag
    9      0.130D-03      0.643D-05       -77.82727651    114.053664    0.00065   -0.00130   -0.00048    8    diag
   10      0.280D-04      0.171D-05       -77.82727652    114.053659    0.00065   -0.00130   -0.00048    9    orth
   11      0.456D-05      0.410D-06       -77.82727652    114.053663    0.00065   -0.00130   -0.00048    0    orth

 Final occupancy:   8

 !RHF STATE  1.1 Energy               -77.827276516286
 Nuclear energy                        31.71301887
 One-electron energy                 -166.56712666
 Two-electron energy                   57.02683127
 Virial quotient                       -1.00447806
 !RHF STATE  1.1 Dipole moment          0.00064555    -0.00129989    -0.00047571
 Dipole moment /Debye                   0.00164071    -0.00330377    -0.00120905

 ELECTRON ORBITALS
 =================

  Orbital  Occupation    Energy     Coefficients
    1.1     2.00000   -11.27181     1 1s    0.86962     2 1s    0.48613
    2.1     2.00000   -11.27076     1 1s   -0.48629     2 1s    0.86970
    3.1     2.00000    -1.03428     1 1s    0.28201     2 1s    0.28263
    4.1     2.00000    -0.75314     1 1s   -0.31762     2 1s    0.31673
    5.1     2.00000    -0.61200     1 2py   0.30282     2 2py   0.30633
    6.1     2.00000    -0.52968     1 2px   0.30292     2 2px  -0.30265
    7.1     2.00000    -0.39499     1 2pz   0.30677     1 2pz   0.28038     2 2pz   0.30903     2 2pz   0.28194
    8.1     2.00000    -0.39008     1 2px   0.26050     2 2px  -0.26324     4 1s   -0.28221     5 1s   -0.28242
    9.1     0.00000     0.05873     1 1s    0.42851     1 2pz   0.32091     1 2pz   0.43756     2 1s    0.42487     2 2pz  -0.32147
                                    2 2pz  -0.43901
   10.1     0.00000     0.23312     1 1s   -1.09824     1 2px   0.49662     1 2py   0.31179     1 2pz   0.48822     2 1s   -0.99051
                                    2 2px  -0.49039     2 2py  -0.34305     2 2pz  -0.45403     3 1s    0.60933     4 1s    1.07724
                                    5 1s    1.07447     6 1s    0.49845
   11.1     0.00000     0.23770     1 1s   -1.11343     1 2py  -0.35578     1 2pz   0.34597     2 1s    1.21722     2 2py  -0.30670
                                    2 2pz   0.38231     3 1s    1.17130     6 1s   -1.20966
   12.1     0.00000     0.29774     1 1s   -0.37748     1 2px   0.30311     1 2py  -0.95414     1 2pz   0.38923     2 1s   -0.42190
                                    2 2px  -0.30151     2 2py   0.96361     2 2pz  -0.40236     3 1s    1.20693     4 1s   -0.50324
                                    5 1s   -0.50229     6 1s    1.24595
   13.1     0.00000     0.33764     1 1s   -1.11611     1 2px   0.25337     1 2py   0.77460     1 2pz   0.34061     2 1s    1.11605
                                    2 2px   0.25329     2 2py   0.77508     2 2pz   0.34039     4 1s    1.73109     5 1s   -1.73124
   14.1     0.00000     0.42216     1 1s    2.29711     1 2px   1.77042     1 2py  -0.53447     1 2pz  -0.86963     2 1s   -2.29277
                                    2 2px   1.77291     2 2py  -0.53923     2 2pz  -0.86750     3 1s    0.38066     6 1s   -0.38691
   15.1     0.00000     0.69798     1 2px   0.53817     1 2px  -0.87787     2 2px  -0.53926     2 2px   0.87848     4 1s    0.44220
                                    5 1s    0.44220
   16.1     0.00000     0.78852     1 1s    0.66326     1 2py   0.30826     1 2pz   0.37989     1 2px   0.38443     1 2py  -0.62199
                                    1 2pz  -0.52647     2 1s   -0.64296     2 2py   0.38645     2 2pz   0.41767     2 2px   0.40234
                                    2 2py  -0.78398     2 2pz  -0.56956     3 1s    0.36925     4 1s   -0.28845     5 1s    0.32635
                                    6 1s   -0.38097
   17.1     0.00000     0.79414     1 2py   0.58361     1 2pz   0.40840     1 2py  -1.16177     1 2pz  -0.50008     2 2py  -0.55637
                                    2 2pz  -0.29512     2 2py   1.10051     2 2pz   0.37938     4 1s   -0.28666
   18.1     0.00000     0.80311     1 1s   -0.37573     1 2pz   0.59121     1 2px  -0.45329     1 2py   0.40857     1 2pz  -0.42311
                                    2 1s    0.38261     2 2pz   0.63689     2 2px  -0.45077     2 2py   0.31040     2 2pz  -0.48464
                                    3 1s   -0.35614     6 1s    0.34759
   19.1     0.00000     0.87076     1 1s    0.39646     1 1s   -0.29615     1 2px   0.29762     1 2py  -0.28072     1 2pz   0.64702
                                    1 2px  -0.48543     1 2py   0.69202     1 2pz  -0.83466     2 1s    0.39424     2 1s   -0.27046
                                    2 2px  -0.29301     2 2py   0.26955     2 2pz  -0.64155     2 2px   0.46694     2 2py  -0.66930
                                    2 2pz   0.83781     3 1s   -0.28710     6 1s   -0.28106
   20.1     0.00000     0.97379     1 1s   -0.29784     1 2px   0.68099     1 2py   0.40278     1 2px  -1.08206     1 2py  -0.84471
                                    2 1s    0.28921     2 2px   0.68109     2 2py   0.40329     2 2px  -1.08227     2 2py  -0.84707
                                    4 1s   -1.08389     5 1s    1.08590
   21.1     0.00000     1.05786     1 1s   -0.34611     1 1s    0.28723     1 2px   0.50193     1 2py  -0.43470     1 2px  -0.91518
                                    1 2py   0.69460     2 2px   0.47191     2 2py  -0.41203     2 2px  -0.88432     2 2py   0.68352
                                    3 1s    0.63631     3 1s   -1.34609     6 1s   -0.52639     6 1s    1.20541
   22.1     0.00000     1.08084     1 1s   -0.64540     1 1s    1.01276     2 1s   -0.68275     2 1s    1.02458     2 2px  -0.27069
                                    2 2px   0.30863     3 1s    0.71668     3 1s   -0.91607     6 1s    0.80057     6 1s   -1.10107
   23.1     0.00000     1.13106     1 1s   -0.50030     1 1s    0.93291     1 2px   0.25721     1 2py   0.41368     1 2px  -0.30997
                                    1 2py  -0.41856     2 1s   -0.50342     2 1s    0.95002     2 2px  -0.25484     2 2py  -0.41690
                                    2 2px   0.30019     2 2py   0.42592     4 1s    0.69048     4 1s   -1.14008     5 1s    0.68883
                                    5 1s   -1.14249
   24.1     0.00000     1.18161     1 1s   -0.37870     1 1s    0.35084     1 2py   0.40026     1 2px  -0.33386     1 2py  -0.40048
                                    2 1s    0.38560     2 1s   -0.36139     2 2py   0.39777     2 2pz   0.25057     2 2px  -0.33716
                                    2 2py  -0.39830     4 1s    0.78973     4 1s   -1.13239     5 1s   -0.79054     5 1s    1.13438
   25.1     0.00000     1.25471     1 1s   -1.19181     1 1s    1.90757     1 2px  -0.52662     1 2py   0.49333     1 2pz  -0.95193
                                    2 1s   -1.21099     2 1s    1.98414     2 2px   0.50949     2 2py  -0.48843     2 2pz   0.97040
                                    3 1s   -0.44143     3 1s   -0.63811     4 1s   -0.34198     4 1s   -0.44432     5 1s   -0.34641
                                    5 1s   -0.44975     6 1s   -0.44057     6 1s   -0.65489
   26.1     0.00000     1.30046     1 1s   -1.55343     1 1s    5.06967     1 2px   1.38006     1 2py  -0.83779     1 2pz  -1.23902
                                    2 1s    1.54104     2 1s   -5.05186     2 2px   1.38651     2 2py  -0.84234     2 2pz  -1.22804
                                    4 1s   -0.27467     4 1s   -0.66029     5 1s    0.27287     5 1s    0.65277
   27.1     0.00000     1.69489     1 1s   -0.59459     1 3d0  -0.35832     1 3d2-  0.29501     1 3d2+  0.31759     2 1s    0.59593
                                    2 3d0   0.35839     2 3d2- -0.29487     2 3d2+ -0.31759
   28.1     0.00000     1.90335     1 1s    0.49256     1 1s   -1.55954     1 2pz   0.50488     1 3d0   0.33911     1 3d2-  0.27635
                                    2 1s    0.91660     2 2px  -0.38916     2 2py   0.26462     2 3d2- -0.28903     2 3d1+  0.49434
                                    2 3d2+  0.32286     2 3d1-  0.45396     3 1s    0.40103
   29.1     0.00000     1.90496     1 1s    0.53436     1 2px   0.35374     1 2py  -0.25369     1 3d1+  0.48769     1 3d2+  0.36313
                                    1 3d1-  0.45638     2 1s    0.47317     2 1s   -1.37843     2 2pz  -0.48749     2 3d0   0.37448
                                    6 1s    0.37654
   30.1     0.00000     2.15136     1 1s   -0.30748     1 1s    1.29015     1 2px   0.29029     1 2pz  -0.34803     1 3d0  -0.50779
                                    1 3d2+ -0.37454     2 1s    0.31543     2 1s   -1.30229     2 2px   0.29153     2 2pz  -0.35359
                                    2 3d0   0.51356     2 3d2+  0.37397     3 1s   -0.29363     6 1s    0.29489
   31.1     0.00000     2.26823     1 1s    0.50774     1 1s   -0.35647     1 2px   0.27424     1 2px  -0.31280     1 3d1+  0.40728
                                    1 3d2+ -0.38912     2 1s    0.50434     2 1s   -0.33836     2 2px  -0.27425     2 2px   0.30767
                                    2 3d1+  0.40621     2 3d2+ -0.39216
   32.1     0.00000     2.33401     1 2py   0.31862     1 3d0   0.45427     1 3d2- -0.46933     1 3d1- -0.34399     2 2py  -0.31137
                                    2 3d0   0.44580     2 3d2- -0.46791     2 3d1- -0.33780     4 1s    0.45186     5 1s    0.44266
   33.1     0.00000     2.51073     1 1s   -0.79455     1 2px  -0.30697     1 2py   0.35826     1 3d2- -0.40867     1 3d1- -0.59538
                                    2 1s    0.79063     2 2px  -0.31165     2 2py   0.36624     2 3d2-  0.40301     2 3d1-  0.60092
                                    3 1s   -0.29935     4 1s    0.48833     5 1s   -0.49129     6 1s    0.30254
   34.1     0.00000     2.63520     1 3d0   0.38423     1 3d2-  0.59147     1 3d1+ -0.41324     2 3d0   0.38245     2 3d2-  0.60189
                                    2 3d1+ -0.41592     6 1s    0.25178
   35.1     0.00000     2.66405     1 2py  -0.31563     1 3d0   0.28362     1 3d1+ -0.27562     1 3d2+ -0.51667     1 3d1-  0.53313
                                    2 2py   0.31743     2 3d0   0.28320     2 3d1+ -0.27664     2 3d2+ -0.51712     2 3d1-  0.53829
                                    4 1s   -0.39318     5 1s   -0.39645
   36.1     0.00000     2.97067     1 1s    1.74438     1 2px   0.44771     1 2px   0.87110     1 2pz  -0.45121     1 3d2- -0.34959
                                    1 3d1+ -0.70570     1 3d2+  0.65015     2 1s   -1.74412     2 2px   0.44780     2 2px   0.87120
                                    2 2pz  -0.45109     2 3d2-  0.34877     2 3d1+  0.70622     2 3d2+ -0.65002


 HOMO      8.1    -0.390078 =     -10.6146eV
 LUMO      9.1     0.058727 =       1.5980eV
 LUMO-HOMO         0.448805 =      12.2126eV


 **********************************************************************************************************************************
 DATASETS  * FILE   NREC   LENGTH (MB)   RECORD NAMES
              1      19       31.13       500      610      700      900      950      970     1000      129      960     1100   
                                          VAR    BASINP    GEOM    SYMINP    ZMAT    AOBASIS   BASIS     P2S    ABASIS      S 
                                         1400     1410     1200     1210     1080     1600     1650     1300     1700   
                                           T        V       H0       H01     AOSYM     SMH    MOLCAS    ERIS     OPER   

              2       4        2.86       700     1000      520     2100   
                                         GEOM     BASIS   MCVARS     RHF  

 PROGRAMS   *        TOTAL    HF-SCF       INT
 CPU TIMES  *         0.39      0.10      0.18
 REAL TIME  *         0.81 SEC
 DISK USED  *        36.24 MB
 **********************************************************************************************************************************


 PROGRAM * MULTI (Direct Multiconfiguration SCF)       Authors: P.J. Knowles, H.-J. Werner (1984)


 Number of closed-shell orbitals:   7 (   7 )
 Number of active  orbitals:        2 (   2 )
 Number of external orbitals:      27 (  27 )

 State symmetry 1

 Number of electrons:     2    Spin symmetry=Singlet   Space symmetry=1
 Number of states:        3
 Number of CSFs:          3   (4 determinants, 4 intermediate states)

 Molecular orbitals read from record     2100.2  Type=RHF/CANONICAL (state 1.1)

 Wavefunction dump at record             2140.2

 Convergence thresholds  0.10E-01 (gradient)  0.10E-05 (energy)  0.10E-02 (step length)

 Weight factors for state symmetry  1:    0.33333   0.33333   0.33333

 Number of orbital rotations:      257   (    14 Core/Active    189 Core/Virtual   0 Active/Active     54 Active/Virtual)
 Total number of variables:        269

 Micro-Iterations solved by the two-step solver

 ITER. MIC  NCI  NEG     ENERGY(VAR)     ENERGY(PROJ)   ENERGY CHANGE     GRAD(0)  GRAD(ORB)   GRAD(CI)     STEP       TIME

   1    7    5    0     -77.66803934     -77.68831175   -0.02027241    0.16535108 0.00204447 0.00000000  0.16D+00      0.11
   2    6    5    0     -77.68791578     -77.68794823   -0.00003245    0.00837019 0.00000982 0.00000000  0.58D-02      0.19
   3    7    5    0     -77.68794829     -77.68794829   -0.00000000    0.00002269 0.00000000 0.00000000  0.29D-04      0.28

 ** WVFN ****  CONVERGENCE REACHED, FINAL GRADIENT:  0.30D-09



 Results for state 1.1
 =====================

 !MCSCF STATE  1.1 Energy             -77.820913677885
 Nuclear energy                        31.71301887
 Kinetic energy                        77.54291785
 One electron energy                 -166.66356236
 Two electron energy                   57.12962981
 Virial ratio                           2.00358506

 !MCSCF STATE  1.1 Dipole moment        0.00057979    -0.00105655    -0.00048287
 Dipole moment /Debye                   0.00147359    -0.00268530    -0.00122725

 Results for state 2.1
 =====================

 !MCSCF STATE  2.1 Energy             -77.715374934617
 Nuclear energy                        31.71301887
 Kinetic energy                        77.61157096
 One electron energy                 -166.32455190
 Two electron energy                   56.89615809
 Virial ratio                           2.00133748

 !MCSCF STATE  2.1 Dipole moment        0.00094788    -0.00185224     0.00029888
 Dipole moment /Debye                   0.00240910    -0.00470762     0.00075962

 Results for state 3.1
 =====================

 !MCSCF STATE  3.1 Energy             -77.527556268806
 Nuclear energy                        31.71301887
 Kinetic energy                        77.66128772
 One electron energy                 -166.02225824
 Two electron energy                   56.78168310
 Virial ratio                           1.99827802

 !MCSCF STATE  3.1 Dipole moment        0.00226372    -0.00312145     0.00094278
 Dipole moment /Debye                   0.00575342    -0.00793341     0.00239615

 State-averaged charge density matrix saved on record  2140.2 (density set 1)

 !MCSCF expec         <1.1|DMX|1.1>     0.000579794799 au =     0.001473594864 Debye
 !MCSCF trans         <2.1|DMX|1.1>    -0.001958917340 au =    -0.004978745133 Debye
 !MCSCF expec         <2.1|DMX|2.1>     0.000947876445 au =     0.002409103816 Debye
 !MCSCF trans         <3.1|DMX|1.1>     0.000079136733 au =     0.000201132338 Debye
 !MCSCF trans         <3.1|DMX|2.1>    -0.002084700382 au =    -0.005298432798 Debye
 !MCSCF expec         <3.1|DMX|3.1>     0.002263717424 au =     0.005753418930 Debye

 !MCSCF expec         <1.1|DMY|1.1>    -0.001056547584 au =    -0.002685300207 Debye
 !MCSCF trans         <2.1|DMY|1.1>     0.001003723651 au =     0.002551043957 Debye
 !MCSCF expec         <2.1|DMY|2.1>    -0.001852241124 au =    -0.004707618997 Debye
 !MCSCF trans         <3.1|DMY|1.1>     0.000018248510 au =     0.000046380048 Debye
 !MCSCF trans         <3.1|DMY|2.1>     0.001018770954 au =     0.002589287882 Debye
 !MCSCF expec         <3.1|DMY|3.1>    -0.003121447176 au =    -0.007933407712 Debye

 !MCSCF expec         <1.1|DMZ|1.1>    -0.000482869036 au =    -0.001227250284 Debye
 !MCSCF trans         <2.1|DMZ|1.1>     0.000250753568 au =     0.000637310253 Debye
 !MCSCF expec         <2.1|DMZ|2.1>     0.000298878975 au =     0.000759624826 Debye
 !MCSCF trans         <3.1|DMZ|1.1>    -0.000090405749 au =    -0.000229773442 Debye
 !MCSCF trans         <3.1|DMZ|2.1>     0.000334303536 au =     0.000849659181 Debye
 !MCSCF expec         <3.1|DMZ|3.1>     0.000942778238 au =     0.002396146315 Debye


 NATURAL ORBITALS (state averaged)
 =================================

  Orbital  Occupation    Energy     Coefficients
    1.1     2.00000   -11.26824     1 1s    0.89602     2 1s    0.43551
    2.1     2.00000   -11.26724     1 1s   -0.43562     2 1s    0.89607
    3.1     2.00000    -1.04980     1 1s    0.27754     2 1s    0.27803
    4.1     2.00000    -0.75666     1 1s   -0.34065     2 1s    0.33995
    5.1     2.00000    -0.61421     1 2py   0.29472     2 2py   0.29859
    6.1     2.00000    -0.52709     1 2px   0.25651     2 2px  -0.25605
    7.1     2.00000    -0.42276     1 2pz   0.32363     1 2pz   0.27614     2 2pz   0.32393     2 2pz   0.27642
    8.1     1.00000    -0.08963     1 1s    0.28991     1 2pz   0.39796     1 2pz   0.41436     2 1s    0.28811     2 2pz  -0.39833
                                    2 2pz  -0.41512
    9.1     1.00000    -0.23533     1 2px   0.30615     2 2px  -0.30635     4 1s   -0.29157     5 1s   -0.29139
   10.1    -0.00000     0.21988     1 1s   -1.08019     1 2px   0.48820     1 2py   0.34430     1 2pz   0.40728     2 1s   -1.05021
                                    2 2px  -0.48641     2 2py  -0.35213     2 2pz  -0.39765     3 1s    0.53946     4 1s    1.09676
                                    5 1s    1.09395     6 1s    0.50968
   11.1    -0.00000     0.23575     1 1s   -1.18708     1 2py  -0.32179     1 2pz   0.36458     2 1s    1.21746     2 2py  -0.29467
                                    2 2pz   0.36862     3 1s    1.18662     6 1s   -1.18524
   12.1    -0.00000     0.29868     1 1s   -0.44596     1 2px   0.30781     1 2py  -0.94794     1 2pz   0.36209     2 1s   -0.49473
                                    2 2px  -0.30676     2 2py   0.95443     2 2pz  -0.37624     3 1s    1.23516     4 1s   -0.45375
                                    5 1s   -0.44621     6 1s    1.27374
   13.1    -0.00000     0.32026     1 1s   -1.23756     1 2py   0.82661     1 2pz   0.38528     2 1s    1.23553     2 2py   0.83062
                                    2 2pz   0.38397     4 1s    1.74390     5 1s   -1.74575
   14.1    -0.00000     0.42797     1 1s    2.14450     1 2px   1.77909     1 2py  -0.42939     1 2pz  -0.80633     2 1s   -2.14032
                                    2 2px   1.78152     2 2py  -0.43408     2 2pz  -0.80432     3 1s    0.38500     6 1s   -0.39111
   15.1    -0.00000     0.69312     1 2px   0.52274     1 2px  -0.85804     2 2px  -0.52366     2 2px   0.85850     4 1s   -0.26451
                                    4 1s    0.49406     5 1s   -0.26355     5 1s    0.49419
   16.1    -0.00000     0.78480     1 1s    0.88352     1 2py   0.31210     1 2pz   0.34482     1 2px   0.48907     1 2py  -0.68308
                                    1 2pz  -0.56973     2 1s   -0.87118     2 2py   0.37190     2 2pz   0.37241     2 2px   0.50661
                                    2 2py  -0.81249     2 2pz  -0.60670     3 1s    0.38611     4 1s   -0.30624     5 1s    0.33718
                                    6 1s   -0.39629
   17.1    -0.00000     0.79228     1 2py   0.55611     1 2pz   0.38829     1 2py  -1.14290     1 2pz  -0.55803     2 2py  -0.53474
                                    2 2pz  -0.29862     2 2py   1.08654     2 2pz   0.45020     4 1s   -0.28440     5 1s   -0.25144
   18.1    -0.00000     0.80266     1 2pz   0.61726     1 2px  -0.40298     1 2py   0.35592     1 2pz  -0.49124     2 2pz   0.65548
                                    2 2px  -0.40199     2 2py   0.27767     2 2pz  -0.55073     3 1s   -0.32574     6 1s    0.31798
   19.1    -0.00000     0.86717     1 1s    0.35710     1 2px   0.31017     1 2py  -0.27598     1 2pz   0.62398     1 2px  -0.51641
                                    1 2py   0.68863     1 2pz  -0.87905     2 1s    0.35507     2 2px  -0.30576     2 2py   0.26517
                                    2 2pz  -0.61799     2 2px   0.49706     2 2py  -0.66604     2 2pz   0.88218     3 1s   -0.32803
                                    6 1s   -0.32151
   20.1    -0.00000     0.97912     1 2px   0.66646     1 2py   0.41669     1 2px  -0.99112     1 2py  -0.87216     2 2px   0.66647
                                    2 2py   0.41725     2 2px  -0.99128     2 2py  -0.87480     3 1s    0.27844     4 1s   -1.04971
                                    5 1s    1.05211     6 1s   -0.27204
   21.1    -0.00000     1.06214     1 1s   -0.33335     1 1s    0.25785     1 2px   0.53797     1 2py  -0.41306     1 2px  -0.96077
                                    1 2py   0.66232     2 2px   0.50562     2 2py  -0.39812     2 2px  -0.92775     2 2py   0.65978
                                    3 1s    0.62382     3 1s   -1.32707     6 1s   -0.52062     6 1s    1.19541
   22.1    -0.00000     1.08374     1 1s   -0.75621     1 1s    1.21989     1 2px   0.26429     2 1s   -0.78722     2 1s    1.22453
                                    2 2px  -0.33223     2 2px   0.37121     3 1s    0.63807     3 1s   -0.81602     4 1s    0.26127
                                    4 1s   -0.49924     5 1s   -0.46690     6 1s    0.71598     6 1s   -0.98947
   23.1    -0.00000     1.10562     1 1s   -0.25808     1 1s    0.54557     1 2py   0.46803     1 2py  -0.46598     2 1s   -0.25658
                                    2 1s    0.56273     2 2py  -0.48436     2 2py   0.49400     3 1s   -0.37948     3 1s    0.44128
                                    4 1s    0.64499     4 1s   -1.01358     5 1s    0.64789     5 1s   -1.02533     6 1s   -0.39451
                                    6 1s    0.47661
   24.1    -0.00000     1.14141     1 1s   -0.39036     1 1s    0.38738     1 2py   0.41697     1 2px  -0.35251     1 2py  -0.42424
                                    2 1s    0.40074     2 1s   -0.40301     2 2py   0.41294     2 2px  -0.35694     2 2py  -0.42111
                                    4 1s    0.78725     4 1s   -1.16287     5 1s   -0.78834     5 1s    1.16488
   25.1    -0.00000     1.24770     1 1s   -1.21343     1 1s    1.94674     1 2px  -0.53622     1 2py   0.50137     1 2pz  -0.94347
                                    2 1s   -1.23399     2 1s    2.02676     2 2px   0.51838     2 2py  -0.49641     2 2pz   0.96257
                                    3 1s   -0.44449     3 1s   -0.64023     4 1s   -0.31326     4 1s   -0.48384     5 1s   -0.31733
                                    5 1s   -0.48985     6 1s   -0.44322     6 1s   -0.65791
   26.1    -0.00000     1.29347     1 1s   -1.55889     1 1s    5.07528     1 2px   1.39919     1 2py  -0.81225     1 2pz  -1.22566
                                    2 1s    1.54627     2 1s   -5.05703     2 2px   1.40580     2 2py  -0.81719     2 2pz  -1.21441
                                    4 1s   -0.27550     4 1s   -0.63274     5 1s    0.27363     5 1s    0.62507
   27.1    -0.00000     1.68863     1 1s   -0.63244     1 3d0  -0.35081     1 3d2-  0.30138     1 3d2+  0.31932     2 1s    0.63386
                                    2 3d0   0.35090     2 3d2- -0.30118     2 3d2+ -0.31926
   28.1    -0.00000     1.89914     1 1s    0.48146     1 1s   -1.55860     1 2pz   0.49227     1 3d0   0.32383     1 3d2-  0.28564
                                    2 1s    0.99008     2 2px  -0.38556     2 2py   0.26525     2 3d2- -0.30283     2 3d1+  0.49313
                                    2 3d2+  0.31333     2 3d1-  0.44593     3 1s    0.40469
   29.1    -0.00000     1.90081     1 1s    0.39965     1 2px   0.33448     1 2py  -0.25025     1 3d1+  0.47936     1 3d2+  0.37706
                                    1 3d1-  0.44967     2 1s    0.45032     2 1s   -1.27675     2 2pz  -0.46530     2 3d0   0.37915
                                    6 1s    0.36510
   30.1    -0.00000     2.15032     1 1s   -0.31246     1 1s    1.28827     1 2px   0.28791     1 2pz  -0.34471     1 3d0  -0.51212
                                    1 3d2+ -0.37541     2 1s    0.32007     2 1s   -1.30015     2 2px   0.28904     2 2pz  -0.35007
                                    2 3d0   0.51798     2 3d2+  0.37513     3 1s   -0.29525     6 1s    0.29643
   31.1    -0.00000     2.26383     1 1s    0.49882     1 1s   -0.34798     1 2px   0.27722     1 2px  -0.30316     1 3d2-  0.26735
                                    1 3d1+  0.41449     1 3d2+ -0.39093     2 1s    0.49613     2 1s   -0.33396     2 2px  -0.27713
                                    2 2px   0.29915     2 3d2-  0.26680     2 3d1+  0.41375     2 3d2+ -0.39342
   32.1    -0.00000     2.32403     1 2py   0.34092     1 3d0   0.45965     1 3d2- -0.45745     1 3d1- -0.36386     2 2py  -0.33313
                                    2 3d0   0.45049     2 3d2- -0.45594     2 3d1- -0.35739     3 1s   -0.26069     4 1s    0.43776
                                    5 1s    0.42815     6 1s   -0.26424
   33.1    -0.00000     2.50357     1 1s   -0.78184     1 2px  -0.29910     1 2py   0.35978     1 3d2- -0.41108     1 3d1- -0.59670
                                    2 1s    0.77813     2 2px  -0.30388     2 2py   0.36806     2 3d2-  0.40667     2 3d1-  0.60264
                                    3 1s   -0.30129     4 1s    0.47809     5 1s   -0.48148     6 1s    0.30519
   34.1    -0.00000     2.63310     1 3d0   0.31100     1 3d2-  0.59594     1 3d1+ -0.33551     1 3d2+  0.26485     1 3d1- -0.30261
                                    2 3d0   0.30974     2 3d2-  0.60449     2 3d1+ -0.33749     2 3d2+  0.26349     2 3d1- -0.29266
   35.1    -0.00000     2.66137     1 2py  -0.26916     1 3d0   0.37055     1 3d1+ -0.37332     1 3d2+ -0.46062     1 3d1-  0.47665
                                    2 2py   0.27171     2 3d0   0.37004     2 3d1+ -0.37460     2 3d2+ -0.46141     2 3d1-  0.48391
                                    4 1s   -0.34648     5 1s   -0.35097
   36.1    -0.00000     2.96544     1 1s    1.77554     1 2px   0.44141     1 2px   0.88347     1 2pz  -0.45955     1 3d2- -0.34754
                                    1 3d1+ -0.70857     1 3d2+  0.64755     2 1s   -1.77528     2 2px   0.44150     2 2px   0.88356
                                    2 2pz  -0.45944     2 3d2-  0.34668     2 3d1+  0.70917     2 3d2+ -0.64740


 Natural orbital dump (state averaged) at molpro section  2140.2    (Orbital set 2)



 **********************************************************************************************************************************
 DATASETS  * FILE   NREC   LENGTH (MB)   RECORD NAMES
              1      20       31.85       500      610      700      900      950      970     1000      129      960     1100   
                                          VAR    BASINP    GEOM    SYMINP    ZMAT    AOBASIS   BASIS     P2S    ABASIS      S 
                                         1400     1410     1200     1210     1080     1600     1650     1300     1700     1380   
                                           T        V       H0       H01     AOSYM     SMH    MOLCAS    ERIS     OPER     JKOP   

              2       5        5.42       700     1000      520     2100     2140   
                                         GEOM     BASIS   MCVARS     RHF     MCSCF   

 PROGRAMS   *        TOTAL     MULTI    HF-SCF       INT
 CPU TIMES  *         0.72      0.33      0.10      0.18
 REAL TIME  *         1.20 SEC
 DISK USED  *        39.04 MB
 **********************************************************************************************************************************
 Molecular orbitals read from record     2140.2  Type=MCSCF/NATURAL (state averaged)
 Occupation numbers read from record     2140.2  Type=MCSCF/NATURAL (state averaged)
 Orbital energies read from record       2140.2  Type=MCSCF/NATURAL (state averaged)
 Redundancy group numbers read from rec  2140.2  Type=MCSCF/NATURAL (state averaged)

 MULTI/6-31G* energy=    -77.527556268806

           MULTI          HF-SCF
    -77.52755627    -77.82727652
 **********************************************************************************************************************************
 Molpro calculation terminated
