
 Primary working directories    : /scratch.local/johan406.molpro_temp/molpro.FWTCu0zJ55
 Secondary working directories  : /scratch.local/johan406.molpro_temp/molpro.FWTCu0zJ55
 Wavefunction directory         : /home/goodpast/johan406/wfu/
 Main file repository           : /scratch.local/johan406.molpro_temp/molpro.FWTCu0zJ55/

 id        : roweumn

 Nodes     nprocs
 acn09        1

 Using customized tuning parameters: mindgm=1; mindgv=20; mindgc=4; mindgr=1; noblas=0; minvec=7
 default implementation of scratch files=df  


 Variables initialized (934), CPU time= 0.00 sec
                                                                                 !leave this line blank
 
 gprint, orbitals=30
 memory, 125., m
 symmetry, nosym
 nelect=16
 basis=6-31g*
 
 geometry={
 C -0.6185 0.1297 0.3027
 C 0.6294 -0.1796 -0.363
 H -1.3511 0.9984 -0.211
 H -0.9542 -0.8602 -0.1334
 H 0.9651 0.8103 0.073
 H 1.356 -1.0443 0.1485
 }
 
 hf
 {multi,
 closed 7
 occ 9
 wf,spin=0;STATE,3
 }
 
 Commands  initialized (763), CPU time= 0.01 sec, 617 directives.
 Default parameters read. Elapsed time= 0.09 sec

 Checking input...
 Passed
1


                                         ***  PROGRAM SYSTEM MOLPRO  ***
                                       Copyright, TTI GmbH Stuttgart, 2015
                                    Version 2019.2 linked Oct 25 2019 22:50:27


 **********************************************************************************************************************************
 LABEL *                                                                                 
  64 bit serial version                                                                  DATE: 07-Feb-23          TIME: 16:04:07  
 **********************************************************************************************************************************

 SHA1:             8dbd9ae1082e4ce945b0f27595c9eb2d4aa09004
 **********************************************************************************************************************************


 Variable memory set to  125000000 words,  buffer space 

 SETTING NELECT         =        16.00000000                                  
 SETTING BASIS          =    6-31G*
 ZSYMEL=NOSYM


Geometry recognized as XYZ



 Recomputing integrals since basis changed


 Using spherical harmonics

 Library entry C      S 6-31G                selected for orbital group  1
 Library entry C      P 6-31G                selected for orbital group  1
 Library entry C      D 6-31G*               selected for orbital group  1
 Library entry H      S 6-31G                selected for orbital group  2


 PROGRAM * SEWARD (Integral evaluation for generally contracted gaussian basis sets)     Author: Roland Lindh, 1990

 Geometry written to block  1 of record 700


 Point group  C1  



 ATOMIC COORDINATES

 NR  ATOM    CHARGE       X              Y              Z

   1  C       6.00   -1.168795608    0.245097478    0.572020098
   2  C       6.00    1.189393623   -0.339394812   -0.685970583
   3  H       1.00   -2.553208967    1.886702563   -0.398732212
   4  H       1.00   -1.803176668   -1.625542412   -0.252089465
   5  H       1.00    1.823774683    1.531245079    0.137950007
   6  H       1.00    2.562468625   -1.973440992    0.280624329

 Bond lengths in Bohr (Angstrom)

 1-2  2.735914516  1-3  2.356656031  1-4  2.140301264  2-5  2.140228509  2-6  2.343021042
     ( 1.447783613)     ( 1.247088666)     ( 1.132598654)     ( 1.132560153)     ( 1.239873340)

 Bond angles

  1-2-5   83.78543160   1-2-6  117.67286051   2-1-3  117.75920067   2-1-4   83.78330386

  3-1-4  106.02715711   5-2-6  106.08382203

 NUCLEAR CHARGE:                   16
 NUMBER OF PRIMITIVE AOS:          72
 NUMBER OF SYMMETRY AOS:           70
 NUMBER OF CONTRACTIONS:           36   (   36A   )
 NUMBER OF CORE ORBITALS:           2   (    2A   )
 NUMBER OF VALENCE ORBITALS:       12   (   12A   )


 NUCLEAR REPULSION ENERGY   31.64997000

 Eigenvalues of metric

         1 0.904E-02 0.357E-01 0.607E-01 0.850E-01 0.862E-01 0.228E+00 0.236E+00 0.271E+00


 Contracted 2-electron integrals neglected if value below      1.0D-11
 AO integral compression algorithm  1   Integral accuracy      1.0D-11

     1.573 MB (compressed) written to integral file ( 58.7%)


 NUMBER OF SORTED TWO-ELECTRON INTEGRALS:     222111.     BUFFER LENGTH:  32768
 NUMBER OF SEGMENTS:   1  SEGMENT LENGTH:     222111      RECORD LENGTH: 524288

 Memory used in sort:       0.78 MW

 SORT1 READ      284735. AND WROTE      212527. INTEGRALS IN      1 RECORDS. CPU TIME:     0.00 SEC, REAL TIME:     0.00 SEC
 SORT2 READ      212527. AND WROTE      222111. INTEGRALS IN      6 RECORDS. CPU TIME:     0.02 SEC, REAL TIME:     0.02 SEC

 FILE SIZES:   FILE 1:    31.7 MBYTE,  FILE 4:     4.2 MBYTE,   TOTAL:     35.9 MBYTE

 OPERATOR DM      FOR CENTER  0  COORDINATES:    0.000000    0.000000    0.000000


 **********************************************************************************************************************************
 DATASETS  * FILE   NREC   LENGTH (MB)   RECORD NAMES
              1      19       31.13       500      610      700      900      950      970     1000      129      960     1100   
                                          VAR    BASINP    GEOM    SYMINP    ZMAT    AOBASIS   BASIS     P2S    ABASIS      S 
                                         1400     1410     1200     1210     1080     1600     1650     1300     1700   
                                           T        V       H0       H01     AOSYM     SMH    MOLCAS    ERIS     OPER   

 PROGRAMS   *        TOTAL       INT
 CPU TIMES  *         0.29      0.19
 REAL TIME  *         0.45 SEC
 DISK USED  *        36.24 MB
 **********************************************************************************************************************************


 PROGRAM * RHF-SCF (CLOSED SHELL)       Authors: W. Meyer, H.-J. Werner


 NUMBER OF ELECTRONS:       8+    8-    SPACE SYMMETRY=1    SPIN SYMMETRY: Singlet 
 CONVERGENCE THRESHOLDS:    1.00E-05 (Density)    1.00E-07 (Energy)
 MAX. NUMBER OF ITERATIONS:       60
 INTERPOLATION TYPE:            DIIS
 INTERPOLATION STEPS:              2 (START)      1 (STEP)
 LEVEL SHIFTS:                  0.00 (CLOSED)  0.00 (OPEN) 



 Orbital guess generated from atomic densities. Full valence occupancy:    8

 Molecular orbital dump at record        2100.2

 Initial occupancy:   8

 ITERATION    DDIFF          GRAD             ENERGY        2-EL.EN.            DIPOLE MOMENTS         DIIS   ORB.
    1      0.000D+00      0.000D+00       -77.80301724    114.710950   -0.00455    0.00263    0.00161    0    start
    2      0.000D+00      0.688D-02       -77.82052763    113.605000    0.00089   -0.00154   -0.00224    1    diag
    3      0.702D-02      0.232D-02       -77.82257208    114.067966   -0.00101   -0.00044    0.00122    2    diag
    4      0.300D-02      0.839D-03       -77.82301345    113.923918    0.00129   -0.00188   -0.00160    3    diag
    5      0.159D-02      0.273D-03       -77.82312719    113.931872   -0.00057   -0.00072    0.00167    4    diag
    6      0.908D-03      0.130D-03       -77.82315820    113.933413    0.00257   -0.00260   -0.00337    5    diag
    7      0.377D-03      0.869D-04       -77.82317181    113.934429    0.00052   -0.00134   -0.00004    6    diag
    8      0.319D-03      0.267D-04       -77.82317345    113.935453    0.00080   -0.00151   -0.00052    7    diag
    9      0.130D-03      0.631D-05       -77.82317353    113.935517    0.00078   -0.00150   -0.00050    8    diag
   10      0.276D-04      0.165D-05       -77.82317353    113.935514    0.00078   -0.00150   -0.00050    9    orth
   11      0.442D-05      0.406D-06       -77.82317353    113.935517    0.00078   -0.00150   -0.00050    0    orth

 Final occupancy:   8

 !RHF STATE  1.1 Energy               -77.823173532969
 Nuclear energy                        31.64997000
 One-electron energy                 -166.44090180
 Two-electron energy                   56.96775826
 Virial quotient                       -1.00473312
 !RHF STATE  1.1 Dipole moment          0.00077705    -0.00150333    -0.00050185
 Dipole moment /Debye                   0.00197495    -0.00382083    -0.00127548

 ELECTRON ORBITALS
 =================

  Orbital  Occupation    Energy     Coefficients
    1.1     2.00000   -11.27310     1 1s    0.87856     2 1s    0.46979
    2.1     2.00000   -11.27203     1 1s   -0.46995     2 1s    0.87864
    3.1     2.00000    -1.03429     1 1s    0.28202     2 1s    0.28266
    4.1     2.00000    -0.75064     1 1s   -0.31885     2 1s    0.31796
    5.1     2.00000    -0.61048     1 2py   0.30156     2 2py   0.30539
    6.1     2.00000    -0.52640     1 2px   0.30389     2 2px  -0.30358
    7.1     2.00000    -0.39536     1 2pz   0.30653     1 2pz   0.27965     2 2pz   0.30905     2 2pz   0.28139
    8.1     2.00000    -0.39039     1 2px   0.25850     2 2px  -0.26157     4 1s   -0.28163     5 1s   -0.28187
    9.1     0.00000     0.05803     1 1s    0.43114     1 2pz   0.31971     1 2pz   0.43383     2 1s    0.42703     2 2pz  -0.32035
                                    2 2pz  -0.43547
   10.1     0.00000     0.23233     1 1s    1.36917     1 2pz  -0.47731     2 1s   -0.80098     2 2py   0.39475     3 1s   -1.27999
                                    4 1s   -0.31734     5 1s   -0.26168     6 1s    0.96105
   11.1     0.00000     0.23330     1 1s   -0.68721     1 2px   0.45693     1 2py   0.40230     1 2pz   0.35836     2 1s   -1.31392
                                    2 2px  -0.49443     2 2pz  -0.55508     4 1s    1.02681     5 1s    1.04275     6 1s    0.85374
   12.1     0.00000     0.29595     1 1s   -0.34008     1 2px   0.29184     1 2py  -0.94903     1 2pz   0.38168     2 1s   -0.38617
                                    2 2px  -0.29028     2 2py   0.95899     2 2pz  -0.39536     3 1s    1.17228     4 1s   -0.51481
                                    5 1s   -0.51381     6 1s    1.21295
   13.1     0.00000     0.33783     1 1s   -1.12383     1 2py   0.77592     1 2pz   0.34318     2 1s    1.12376     2 2py   0.77644
                                    2 2pz   0.34295     4 1s    1.73466     5 1s   -1.73481
   14.1     0.00000     0.42217     1 1s    2.31801     1 2px   1.76952     1 2py  -0.52529     1 2pz  -0.87651     2 1s   -2.31359
                                    2 2px   1.77219     2 2py  -0.53034     2 2pz  -0.87427     3 1s    0.36152     6 1s   -0.36796
   15.1     0.00000     0.69741     1 2px   0.53687     1 2px  -0.87359     2 2px  -0.53801     2 2px   0.87404     4 1s    0.44328
                                    5 1s    0.44330
   16.1     0.00000     0.79008     1 1s    0.62606     1 2py   0.26894     1 2pz   0.46298     1 2px   0.30836     1 2py  -0.55132
                                    1 2pz  -0.59003     2 1s   -0.60549     2 2py   0.35861     2 2pz   0.50975     2 2px   0.32744
                                    2 2py  -0.73457     2 2pz  -0.64594     3 1s    0.31208     4 1s   -0.27983     5 1s    0.32287
                                    6 1s   -0.32455
   17.1     0.00000     0.79439     1 2py   0.58019     1 2pz   0.42185     1 2py  -1.15062     1 2pz  -0.52165     2 2py  -0.55567
                                    2 2pz  -0.29431     2 2py   1.09321     2 2pz   0.38889     4 1s   -0.28559
   18.1     0.00000     0.80539     1 1s   -0.51027     1 2py  -0.28604     1 2pz   0.52216     1 2px  -0.50821     1 2py   0.51003
                                    1 2pz  -0.32101     2 1s    0.51577     2 2pz   0.57088     2 2px  -0.50843     2 2py   0.41822
                                    2 2pz  -0.38809     3 1s   -0.40962     6 1s    0.40186
   19.1     0.00000     0.87082     1 1s    0.39679     1 1s   -0.30263     1 2px   0.30370     1 2py  -0.28960     1 2pz   0.64336
                                    1 2px  -0.48876     1 2py   0.70290     1 2pz  -0.82175     2 1s    0.39431     2 1s   -0.27285
                                    2 2px  -0.29836     2 2py   0.27656     2 2pz  -0.63707     2 2px   0.46763     2 2py  -0.67649
                                    2 2pz   0.82547     3 1s   -0.30055     6 1s   -0.29364
   20.1     0.00000     0.97360     1 1s   -0.31036     1 2px   0.67277     1 2py   0.40847     1 2px  -1.06816     1 2py  -0.85534
                                    2 1s    0.29987     2 2px   0.67279     2 2py   0.40923     2 2px  -1.06831     2 2py  -0.85841
                                    4 1s   -1.08574     5 1s    1.08835
   21.1     0.00000     1.05042     1 1s   -0.35663     1 1s    0.30979     1 2px   0.51363     1 2py  -0.41897     1 2px  -0.92733
                                    1 2py   0.66175     2 2px   0.48250     2 2py  -0.39675     2 2px  -0.89494     2 2py   0.65349
                                    3 1s    0.63773     3 1s   -1.33724     6 1s   -0.51793     6 1s    1.18434
   22.1     0.00000     1.07222     1 1s   -0.65060     1 1s    1.01660     2 1s   -0.69329     2 1s    1.03320     2 2px  -0.26343
                                    2 2px   0.30615     3 1s    0.71177     3 1s   -0.90305     6 1s    0.80323     6 1s   -1.10393
   23.1     0.00000     1.13224     1 1s   -0.48514     1 1s    0.90836     1 2px   0.26045     1 2py   0.41313     1 2px  -0.30656
                                    1 2py  -0.42017     2 1s   -0.48881     2 1s    0.92731     2 2px  -0.25827     2 2py  -0.41612
                                    2 2px   0.29643     2 2py   0.42751     4 1s    0.69596     4 1s   -1.13381     5 1s    0.69394
                                    5 1s   -1.13605
   24.1     0.00000     1.18230     1 1s   -0.37946     1 1s    0.36218     1 2py   0.40652     1 2px  -0.32019     1 2py  -0.41087
                                    2 1s    0.38657     2 1s   -0.37303     2 2py   0.40417     2 2pz   0.25014     2 2px  -0.32358
                                    2 2py  -0.40878     4 1s    0.78918     4 1s   -1.13510     5 1s   -0.78994     5 1s    1.13744
   25.1     0.00000     1.25428     1 1s   -1.19004     1 1s    1.88558     1 2px  -0.52586     1 2py   0.48579     1 2pz  -0.94753
                                    2 1s   -1.20973     2 1s    1.96531     2 2px   0.50784     2 2py  -0.48107     2 2pz   0.96684
                                    3 1s   -0.44856     3 1s   -0.60626     4 1s   -0.33001     4 1s   -0.45694     5 1s   -0.33497
                                    5 1s   -0.46202     6 1s   -0.44748     6 1s   -0.62404
   26.1     0.00000     1.30251     1 1s   -1.54989     1 1s    5.06463     1 2px   1.38657     1 2py  -0.84022     1 2pz  -1.24008
                                    2 1s    1.53721     2 1s   -5.04668     2 2px   1.39330     2 2py  -0.84484     2 2pz  -1.22891
                                    4 1s   -0.27522     4 1s   -0.66053     5 1s    0.27376     5 1s    0.65253
   27.1     0.00000     1.69469     1 1s   -0.59635     1 3d0  -0.35915     1 3d2-  0.29484     1 3d2+  0.31672     2 1s    0.59778
                                    2 3d0   0.35923     2 3d2- -0.29469     2 3d2+ -0.31670
   28.1     0.00000     1.89857     1 1s    0.46152     1 1s   -1.64811     1 2px  -0.31577     1 2pz   0.46686     1 3d2-  0.35099
                                    1 3d1+ -0.28368     2 1s   -0.33334     2 1s    1.41550     2 2px  -0.39274     2 2pz   0.33447
                                    2 3d2- -0.35247     2 3d1+  0.43354     2 3d1-  0.38009     3 1s    0.38503     6 1s   -0.29239
   29.1     0.00000     1.90246     1 3d0   0.30751     1 3d1+  0.40348     1 3d2+  0.37516     1 3d1-  0.39466     2 1s    0.36974
                                    2 1s   -0.87021     2 2pz  -0.38074     2 3d0   0.38052     2 3d2+  0.31230     6 1s    0.27995
   30.1     0.00000     2.14782     1 1s   -0.29921     1 1s    1.24059     1 2px   0.27825     1 2pz  -0.33476     1 3d0  -0.50023
                                    1 3d2+ -0.37606     2 1s    0.30794     2 1s   -1.25397     2 2px   0.27937     2 2pz  -0.34100
                                    2 3d0   0.50645     2 3d2+  0.37564     3 1s   -0.28481     6 1s    0.28639
   31.1     0.00000     2.26968     1 1s    0.51078     1 1s   -0.36336     1 2px   0.27602     1 2px  -0.31491     1 3d1+  0.40909
                                    1 3d2+ -0.38834     2 1s    0.50697     2 1s   -0.34327     2 2px  -0.27606     2 2px   0.30920
                                    2 3d1+  0.40787     2 3d2+ -0.39167
   32.1     0.00000     2.33184     1 2py  -0.30974     1 3d0  -0.44500     1 3d2-  0.48173     1 3d1-  0.33805     2 2py   0.30185
                                    2 3d0  -0.43576     2 3d2-  0.48032     2 3d1-  0.33148     4 1s   -0.45784     5 1s   -0.44788
   33.1     0.00000     2.50532     1 1s   -0.84574     1 2px  -0.31818     1 2py   0.36423     1 3d2- -0.40116     1 3d1- -0.59430
                                    2 1s    0.84155     2 2px  -0.32344     2 2py   0.37296     2 3d2-  0.39596     2 3d1-  0.60044
                                    3 1s   -0.28178     4 1s    0.49524     5 1s   -0.49868     6 1s    0.28581
   34.1     0.00000     2.63070     1 3d0   0.41483     1 3d2-  0.57316     1 3d1+ -0.43542     2 3d0   0.41283     2 3d2-  0.58415
                                    2 3d1+ -0.43827
   35.1     0.00000     2.66391     1 2py  -0.32652     1 3d0   0.25168     1 3d2+ -0.52920     1 3d1-  0.54385     2 2py   0.32795
                                    2 3d0   0.25134     2 3d2+ -0.52954     2 3d1-  0.54815     4 1s   -0.39902     5 1s   -0.40175
   36.1     0.00000     2.97170     1 1s    1.74652     1 2px   0.44927     1 2px   0.87080     1 2pz  -0.45232     1 3d2- -0.34932
                                    1 3d1+ -0.70698     1 3d2+  0.65075     2 1s   -1.74627     2 2px   0.44936     2 2px   0.87088
                                    2 2pz  -0.45219     2 3d2-  0.34852     2 3d1+  0.70749     2 3d2+ -0.65060


 HOMO      8.1    -0.390393 =     -10.6231eV
 LUMO      9.1     0.058034 =       1.5792eV
 LUMO-HOMO         0.448428 =      12.2023eV


 **********************************************************************************************************************************
 DATASETS  * FILE   NREC   LENGTH (MB)   RECORD NAMES
              1      19       31.13       500      610      700      900      950      970     1000      129      960     1100   
                                          VAR    BASINP    GEOM    SYMINP    ZMAT    AOBASIS   BASIS     P2S    ABASIS      S 
                                         1400     1410     1200     1210     1080     1600     1650     1300     1700   
                                           T        V       H0       H01     AOSYM     SMH    MOLCAS    ERIS     OPER   

              2       4        2.86       700     1000      520     2100   
                                         GEOM     BASIS   MCVARS     RHF  

 PROGRAMS   *        TOTAL    HF-SCF       INT
 CPU TIMES  *         0.39      0.10      0.19
 REAL TIME  *         0.63 SEC
 DISK USED  *        36.24 MB
 **********************************************************************************************************************************


 PROGRAM * MULTI (Direct Multiconfiguration SCF)       Authors: P.J. Knowles, H.-J. Werner (1984)


 Number of closed-shell orbitals:   7 (   7 )
 Number of active  orbitals:        2 (   2 )
 Number of external orbitals:      27 (  27 )

 State symmetry 1

 Number of electrons:     2    Spin symmetry=Singlet   Space symmetry=1
 Number of states:        3
 Number of CSFs:          3   (4 determinants, 4 intermediate states)

 Molecular orbitals read from record     2100.2  Type=RHF/CANONICAL (state 1.1)

 Wavefunction dump at record             2140.2

 Convergence thresholds  0.10E-01 (gradient)  0.10E-05 (energy)  0.10E-02 (step length)

 Weight factors for state symmetry  1:    0.33333   0.33333   0.33333

 Number of orbital rotations:      257   (    14 Core/Active    189 Core/Virtual   0 Active/Active     54 Active/Virtual)
 Total number of variables:        269

 Micro-Iterations solved by the two-step solver

 ITER. MIC  NCI  NEG     ENERGY(VAR)     ENERGY(PROJ)   ENERGY CHANGE     GRAD(0)  GRAD(ORB)   GRAD(CI)     STEP       TIME

   1    8    5    0     -77.66370128     -77.68406823   -0.02036695    0.16492635 0.00202874 0.00000000  0.16D+00      0.11
   2    6    5    0     -77.68365749     -77.68369287   -0.00003538    0.00875714 0.00001135 0.00000000  0.60D-02      0.20
   3    7    5    0     -77.68369295     -77.68369295   -0.00000000    0.00002502 0.00000000 0.00000000  0.32D-04      0.31
   4    3    3    0     -77.68369295     -77.68369295    0.00000000    0.00000000 0.00000000 0.00000000  0.55D-09      0.36

 ** WVFN ****  CONVERGENCE REACHED, FINAL GRADIENT:  0.57D-13



 Results for state 1.1
 =====================

 !MCSCF STATE  1.1 Energy             -77.816815302464
 Nuclear energy                        31.64997000
 Kinetic energy                        77.51980651
 One electron energy                 -166.53948626
 Two electron energy                   57.07270095
 Virial ratio                           2.00383139

 !MCSCF STATE  1.1 Dipole moment        0.00068999    -0.00122216    -0.00050867
 Dipole moment /Debye                   0.00175367    -0.00310623    -0.00129282

 Results for state 2.1
 =====================

 !MCSCF STATE  2.1 Energy             -77.711064052138
 Nuclear energy                        31.64997000
 Kinetic energy                        77.58785930
 One electron energy                 -166.19702804
 Two electron energy                   56.83599399
 Virial ratio                           2.00158794

 !MCSCF STATE  2.1 Dipole moment        0.00114660    -0.00214359     0.00036123
 Dipole moment /Debye                   0.00291418    -0.00544812     0.00091809

 Results for state 3.1
 =====================

 !MCSCF STATE  3.1 Energy             -77.523199483225
 Nuclear energy                        31.64997000
 Kinetic energy                        77.63623244
 One electron energy                 -165.88952686
 Two electron energy                   56.71635738
 Virial ratio                           1.99854407

 !MCSCF STATE  3.1 Dipole moment        0.00269966    -0.00362367     0.00109519
 Dipole moment /Debye                   0.00686139    -0.00920985     0.00278353

 State-averaged charge density matrix saved on record  2140.2 (density set 1)

 !MCSCF expec         <1.1|DMX|1.1>     0.000689993281 au =     0.001753673123 Debye
 !MCSCF trans         <2.1|DMX|1.1>    -0.002249208959 au =    -0.005716544506 Debye
 !MCSCF expec         <2.1|DMX|2.1>     0.001146602150 au =     0.002914181092 Debye
 !MCSCF trans         <3.1|DMX|1.1>     0.000088577878 au =     0.000225127764 Debye
 !MCSCF trans         <3.1|DMX|2.1>    -0.002389997839 au =    -0.006074370707 Debye
 !MCSCF expec         <3.1|DMX|3.1>     0.002699657121 au =     0.006861394545 Debye

 !MCSCF expec         <1.1|DMY|1.1>    -0.001222163987 au =    -0.003106227547 Debye
 !MCSCF trans         <2.1|DMY|1.1>     0.001174394446 au =     0.002984817435 Debye
 !MCSCF expec         <2.1|DMY|2.1>    -0.002143594938 au =    -0.005448118023 Debye
 !MCSCF trans         <3.1|DMY|1.1>     0.000019973738 au =     0.000050764853 Debye
 !MCSCF trans         <3.1|DMY|2.1>     0.001191867646 au =     0.003029226972 Debye
 !MCSCF expec         <3.1|DMY|3.1>    -0.003623671701 au =    -0.009209851521 Debye

 !MCSCF expec         <1.1|DMZ|1.1>    -0.000508667675 au =    -0.001292819591 Debye
 !MCSCF trans         <2.1|DMZ|1.1>     0.000240619492 au =     0.000611553690 Debye
 !MCSCF expec         <2.1|DMZ|2.1>     0.000361226433 au =     0.000918085879 Debye
 !MCSCF trans         <3.1|DMZ|1.1>    -0.000098554555 au =    -0.000250484287 Debye
 !MCSCF trans         <3.1|DMZ|2.1>     0.000331058627 au =     0.000841411985 Debye
 !MCSCF expec         <3.1|DMZ|3.1>     0.001095194753 au =     0.002783525081 Debye


 NATURAL ORBITALS (state averaged)
 =================================

  Orbital  Occupation    Energy     Coefficients
    1.1     2.00000   -11.26972     1 1s    0.90447     2 1s    0.41769
    2.1     2.00000   -11.26868     1 1s   -0.41780     2 1s    0.90452
    3.1     2.00000    -1.05012     1 1s    0.27762     2 1s    0.27811
    4.1     2.00000    -0.75447     1 1s   -0.34147     2 1s    0.34079
    5.1     2.00000    -0.61260     1 2py   0.29326     2 2py   0.29748
    6.1     2.00000    -0.52368     1 2px   0.25644     2 2px  -0.25595
    7.1     2.00000    -0.42316     1 2pz   0.32347     1 2pz   0.27556     2 2pz   0.32381     2 2pz   0.27588
    8.1     1.00000    -0.23591     1 2px   0.30562     2 2px  -0.30583     4 1s   -0.29119     5 1s   -0.29100
    9.1     1.00000    -0.09008     1 1s    0.29214     1 2pz   0.39713     1 2pz   0.41242     2 1s    0.29012     2 2pz  -0.39756
                                    2 2pz  -0.41328
   10.1    -0.00000     0.21984     1 1s   -1.08754     1 2px   0.49009     1 2py   0.33534     1 2pz   0.41452     2 1s   -1.03433
                                    2 2px  -0.48667     2 2py  -0.34955     2 2pz  -0.39765     3 1s    0.55121     4 1s    1.09581
                                    5 1s    1.09132     6 1s    0.49780
   11.1    -0.00000     0.23033     1 1s    1.13502     1 2py   0.32360     1 2pz  -0.35048     2 1s   -1.18902     2 2py   0.28865
                                    2 2pz  -0.36305     3 1s   -1.15532     6 1s    1.16531
   12.1    -0.00000     0.29667     1 1s   -0.41067     1 2px   0.29724     1 2py  -0.94259     1 2pz   0.35478     2 1s   -0.46110
                                    2 2px  -0.29620     2 2py   0.94977     2 2pz  -0.36945     3 1s    1.20178     4 1s   -0.46353
                                    5 1s   -0.45625     6 1s    1.24220
   13.1    -0.00000     0.32029     1 1s   -1.25013     1 2py   0.82590     1 2pz   0.38915     2 1s    1.24828     2 2py   0.82982
                                    2 2pz   0.38794     4 1s    1.74710     5 1s   -1.74894
   14.1    -0.00000     0.42792     1 1s    2.16461     1 2px   1.77777     1 2py  -0.42048     1 2pz  -0.81285     2 1s   -2.16035
                                    2 2px   1.78037     2 2py  -0.42547     2 2pz  -0.81073     3 1s    0.36590     6 1s   -0.37220
   15.1    -0.00000     0.69240     1 2px   0.52145     1 2px  -0.85406     2 2px  -0.52242     2 2px   0.85436     4 1s   -0.26561
                                    4 1s    0.49464     5 1s   -0.26460     5 1s    0.49478
   16.1    -0.00000     0.78652     1 1s    0.87768     1 2py   0.28083     1 2pz   0.41902     1 2px   0.43056     1 2py  -0.62886
                                    1 2pz  -0.63414     2 1s   -0.86605     2 2py   0.35094     2 2pz   0.45426     2 2px   0.44950
                                    2 2py  -0.77825     2 2pz  -0.68342     3 1s    0.34145     4 1s   -0.30031     5 1s    0.33611
                                    6 1s   -0.35270
   17.1    -0.00000     0.79242     1 2py   0.55382     1 2pz   0.40080     1 2py  -1.13460     1 2pz  -0.58028     2 2py  -0.53320
                                    2 2pz  -0.29765     2 2py   1.07758     2 2pz   0.45872     4 1s   -0.28385
   18.1    -0.00000     0.80463     1 1s   -0.37085     1 2py  -0.26302     1 2pz   0.56427     1 2px  -0.46483     1 2py   0.45140
                                    1 2pz  -0.39746     2 1s    0.36923     2 2pz   0.60617     2 2px  -0.46630     2 2py   0.37536
                                    2 2pz  -0.46361     3 1s   -0.37370     6 1s    0.36627
   19.1    -0.00000     0.86700     1 1s    0.35782     1 2px   0.31582     1 2py  -0.28410     1 2pz   0.62041     1 2px  -0.51902
                                    1 2py   0.69824     1 2pz  -0.86525     2 1s    0.35553     2 2px  -0.31073     2 2py   0.27155
                                    2 2pz  -0.61354     2 2px   0.49696     2 2py  -0.67210     2 2pz   0.86895     3 1s   -0.34018
                                    6 1s   -0.33277
   20.1    -0.00000     0.97873     1 1s   -0.25221     1 2px   0.65593     1 2py   0.42298     1 2px  -0.97470     1 2py  -0.88325
                                    2 2px   0.65586     2 2py   0.42381     2 2px  -0.97481     2 2py  -0.88665     3 1s    0.30870
                                    4 1s   -1.05055     5 1s    1.05367     6 1s   -0.30119
   21.1    -0.00000     1.05484     1 1s   -0.34574     1 1s    0.28488     1 2px   0.55130     1 2py  -0.39306     1 2px  -0.97569
                                    1 2py   0.62290     2 2px   0.51846     2 2py  -0.37797     2 2px  -0.94188     2 2py   0.62233
                                    3 1s    0.62474     3 1s   -1.31666     6 1s   -0.51260     6 1s    1.17394
   22.1    -0.00000     1.07587     1 1s   -0.73463     1 1s    1.16993     2 1s   -0.77140     2 1s    1.17860     2 2px  -0.30771
                                    2 2px   0.34894     3 1s    0.66457     3 1s   -0.84063     4 1s   -0.40814     5 1s   -0.38284
                                    6 1s    0.75038     6 1s   -1.03048
   23.1    -0.00000     1.10593     1 1s   -0.31059     1 1s    0.63078     1 2py   0.46242     1 2px  -0.26427     1 2py  -0.46791
                                    2 1s   -0.31059     2 1s    0.64844     2 2py  -0.47338     2 2py   0.48796     3 1s   -0.31465
                                    3 1s    0.36845     4 1s    0.67237     4 1s   -1.04821     5 1s    0.67250     5 1s   -1.05502
                                    6 1s   -0.32458     6 1s    0.39240
   24.1    -0.00000     1.14197     1 1s   -0.39020     1 1s    0.39964     1 2py   0.42515     1 2px  -0.33219     1 2py  -0.43826
                                    2 1s    0.39981     2 1s   -0.41413     2 2py   0.42203     2 2px  -0.33638     2 2py  -0.43597
                                    4 1s    0.78668     4 1s   -1.16538     5 1s   -0.78815     5 1s    1.16824
   25.1    -0.00000     1.24750     1 1s   -1.20887     1 1s    1.91983     1 2px  -0.53475     1 2py   0.49401     1 2pz  -0.93809
                                    2 1s   -1.23035     2 1s    2.00417     2 2px   0.51573     2 2py  -0.48897     2 2pz   0.95832
                                    3 1s   -0.45265     3 1s   -0.60634     4 1s   -0.30238     4 1s   -0.49390     5 1s   -0.30690
                                    5 1s   -0.49988     6 1s   -0.45117     6 1s   -0.62505
   26.1    -0.00000     1.29546     1 1s   -1.55512     1 1s    5.06984     1 2px   1.40586     1 2py  -0.81504     1 2pz  -1.22687
                                    2 1s    1.54202     2 1s   -5.05117     2 2px   1.41284     2 2py  -0.82017     2 2pz  -1.21527
                                    4 1s   -0.27605     4 1s   -0.63318     5 1s    0.27443     5 1s    0.62500
   27.1    -0.00000     1.68832     1 1s   -0.63528     1 3d0  -0.35148     1 3d2-  0.30151     1 3d2+  0.31841     2 1s    0.63681
                                    2 3d0   0.35158     2 3d2- -0.30129     2 3d2+ -0.31834
   28.1    -0.00000     1.89417     1 1s    0.44910     1 1s   -1.60573     1 2px  -0.30533     1 2pz   0.45151     1 3d2-  0.34615
                                    1 3d1+ -0.29535     2 1s   -0.33159     2 1s    1.39063     2 2px  -0.37924     2 2pz   0.32892
                                    2 3d2- -0.34964     2 3d1+  0.43491     2 3d1-  0.37455     3 1s    0.38457     6 1s   -0.29737
   29.1    -0.00000     1.89823     1 3d0   0.30849     1 3d1+  0.39771     1 3d2+  0.38074     1 3d1-  0.39040     2 1s    0.35644
                                    2 1s   -0.83374     2 2pz  -0.36938     2 3d0   0.37747     2 3d2+  0.31983     2 3d1-  0.25254
                                    6 1s    0.27651
   30.1    -0.00000     2.14659     1 1s   -0.30434     1 1s    1.23967     1 2px   0.27619     1 2pz  -0.33169     1 3d0  -0.50460
                                    1 3d2+ -0.37675     2 1s    0.31272     2 1s   -1.25278     2 2px   0.27719     2 2pz  -0.33774
                                    2 3d0   0.51093     2 3d2+  0.37665     3 1s   -0.28664     6 1s    0.28812
   31.1    -0.00000     2.26543     1 1s    0.50179     1 1s   -0.35339     1 2px   0.27887     1 2px  -0.30558     1 3d2-  0.25666
                                    1 3d1+  0.41648     1 3d2+ -0.39102     2 1s    0.49878     2 1s   -0.33784     2 2px  -0.27879
                                    2 2px   0.30113     2 3d2-  0.25608     2 3d1+  0.41563     2 3d2+ -0.39375
   32.1    -0.00000     2.32133     1 2py  -0.33320     1 3d0  -0.45145     1 3d2-  0.46954     1 3d1-  0.35925     2 2py   0.32469
                                    2 3d0  -0.44143     2 3d2-  0.46805     2 3d1-  0.35241     3 1s    0.25474     4 1s   -0.44397
                                    5 1s   -0.43356     6 1s    0.25881
   33.1    -0.00000     2.49799     1 1s   -0.83336     1 2px  -0.31036     1 2py   0.36590     1 3d2- -0.40354     1 3d1- -0.59562
                                    2 1s    0.82940     2 2px  -0.31570     2 2py   0.37491     2 3d2-  0.39964     2 3d1-  0.60216
                                    3 1s   -0.28357     4 1s    0.48496     5 1s   -0.48882     6 1s    0.28831
   34.1    -0.00000     2.62993     1 3d0   0.35837     1 3d2-  0.58922     1 3d1+ -0.37649     1 3d1- -0.25433     2 3d0   0.35692
                                    2 3d2-  0.59861     2 3d1+ -0.37868
   35.1    -0.00000     2.65970     1 2py  -0.29113     1 3d0   0.33587     1 3d1+ -0.33101     1 3d2+ -0.49112     1 3d1-  0.50396
                                    2 2py   0.29330     2 3d0   0.33542     2 3d1+ -0.33212     2 3d2+ -0.49177     2 3d1-  0.51029
                                    4 1s   -0.36394     5 1s   -0.36788
   36.1    -0.00000     2.96638     1 1s    1.77773     1 2px   0.44297     1 2px   0.88317     1 2pz  -0.46068     1 3d2- -0.34728
                                    1 3d1+ -0.70986     1 3d2+  0.64816     2 1s   -1.77747     2 2px   0.44306     2 2px   0.88325
                                    2 2pz  -0.46057     2 3d2-  0.34644     2 3d1+  0.71044     2 3d2+ -0.64800


 Natural orbital dump (state averaged) at molpro section  2140.2    (Orbital set 2)



 **********************************************************************************************************************************
 DATASETS  * FILE   NREC   LENGTH (MB)   RECORD NAMES
              1      20       31.85       500      610      700      900      950      970     1000      129      960     1100   
                                          VAR    BASINP    GEOM    SYMINP    ZMAT    AOBASIS   BASIS     P2S    ABASIS      S 
                                         1400     1410     1200     1210     1080     1600     1650     1300     1700     1380   
                                           T        V       H0       H01     AOSYM     SMH    MOLCAS    ERIS     OPER     JKOP   

              2       5        5.42       700     1000      520     2100     2140   
                                         GEOM     BASIS   MCVARS     RHF     MCSCF   

 PROGRAMS   *        TOTAL     MULTI    HF-SCF       INT
 CPU TIMES  *         0.81      0.42      0.10      0.19
 REAL TIME  *         1.18 SEC
 DISK USED  *        39.04 MB
 **********************************************************************************************************************************
 Molecular orbitals read from record     2140.2  Type=MCSCF/NATURAL (state averaged)
 Occupation numbers read from record     2140.2  Type=MCSCF/NATURAL (state averaged)
 Orbital energies read from record       2140.2  Type=MCSCF/NATURAL (state averaged)
 Redundancy group numbers read from rec  2140.2  Type=MCSCF/NATURAL (state averaged)

 MULTI/6-31G* energy=    -77.523199483225

           MULTI          HF-SCF
    -77.52319948    -77.82317353
 **********************************************************************************************************************************
 Molpro calculation terminated
