
 Primary working directories    : /scratch.local/johan406.molpro_temp/molpro.SXJTzncEG0
 Secondary working directories  : /scratch.local/johan406.molpro_temp/molpro.SXJTzncEG0
 Wavefunction directory         : /home/goodpast/johan406/wfu/
 Main file repository           : /scratch.local/johan406.molpro_temp/molpro.SXJTzncEG0/

 id        : roweumn

 Nodes     nprocs
 acn09        1

 Using customized tuning parameters: mindgm=1; mindgv=20; mindgc=4; mindgr=1; noblas=0; minvec=7
 default implementation of scratch files=df  


 Variables initialized (934), CPU time= 0.00 sec
                                                                                 !leave this line blank
 
 gprint, orbitals=30
 memory, 125., m
 symmetry, nosym
 nelect=16
 basis=6-31g*
 
 geometry={
 C -0.6151 0.1263 0.3043
 C 0.6268 -0.1762 -0.3647
 H -1.3864 1.0413 -0.2345
 H -0.9508 -0.8577 -0.1318
 H 0.9626 0.8078 0.0714
 H 1.3896 -1.0855 0.1712
 }
 
 hf
 {multi,
 closed 7
 occ 9
 wf,spin=0;STATE,3
 }
 
 Commands  initialized (763), CPU time= 0.01 sec, 617 directives.
 Default parameters read. Elapsed time= 0.07 sec

 Checking input...
 Passed
1


                                         ***  PROGRAM SYSTEM MOLPRO  ***
                                       Copyright, TTI GmbH Stuttgart, 2015
                                    Version 2019.2 linked Oct 25 2019 22:50:27


 **********************************************************************************************************************************
 LABEL *                                                                                 
  64 bit serial version                                                                  DATE: 07-Feb-23          TIME: 16:06:00  
 **********************************************************************************************************************************

 SHA1:             8dbd9ae1082e4ce945b0f27595c9eb2d4aa09004
 **********************************************************************************************************************************


 Variable memory set to  125000000 words,  buffer space 

 SETTING NELECT         =        16.00000000                                  
 SETTING BASIS          =    6-31G*
 ZSYMEL=NOSYM


Geometry recognized as XYZ



 Recomputing integrals since basis changed


 Using spherical harmonics

 Library entry C      S 6-31G                selected for orbital group  1
 Library entry C      P 6-31G                selected for orbital group  1
 Library entry C      D 6-31G*               selected for orbital group  1
 Library entry H      S 6-31G                selected for orbital group  2


 PROGRAM * SEWARD (Integral evaluation for generally contracted gaussian basis sets)     Author: Roland Lindh, 1990

 Geometry written to block  1 of record 700


 Point group  C1  



 ATOMIC COORDINATES

 NR  ATOM    CHARGE       X              Y              Z

   1  C       6.00   -1.162370539    0.238672410    0.575043660
   2  C       6.00    1.184480335   -0.332969743   -0.689183118
   3  H       1.00   -2.619916299    1.967771814   -0.443140776
   4  H       1.00   -1.796751599   -1.620818097   -0.249065903
   5  H       1.00    1.819050368    1.526520763    0.134926445
   6  H       1.00    2.625963423   -2.051297708    0.323521113

 Bond lengths in Bohr (Angstrom)

 1-2  2.726307598  1-3  2.480105630  1-4  2.130563504  2-5  2.130619779  2-6  2.460913315
     ( 1.442699851)     ( 1.312415380)     ( 1.127445653)     ( 1.127475432)     ( 1.302259245)

 Bond angles

  1-2-5   83.91662015   1-2-6  117.37452487   2-1-3  117.49737421   2-1-4   83.91205948

  3-1-4  105.94400137   5-2-6  106.00764035

 NUCLEAR CHARGE:                   16
 NUMBER OF PRIMITIVE AOS:          72
 NUMBER OF SYMMETRY AOS:           70
 NUMBER OF CONTRACTIONS:           36   (   36A   )
 NUMBER OF CORE ORBITALS:           2   (    2A   )
 NUMBER OF VALENCE ORBITALS:       12   (   12A   )


 NUCLEAR REPULSION ENERGY   31.40384609

 Eigenvalues of metric

         1 0.893E-02 0.386E-01 0.600E-01 0.884E-01 0.971E-01 0.229E+00 0.236E+00 0.269E+00


 Contracted 2-electron integrals neglected if value below      1.0D-11
 AO integral compression algorithm  1   Integral accuracy      1.0D-11

     1.573 MB (compressed) written to integral file ( 58.4%)


 NUMBER OF SORTED TWO-ELECTRON INTEGRALS:     222111.     BUFFER LENGTH:  32768
 NUMBER OF SEGMENTS:   1  SEGMENT LENGTH:     222111      RECORD LENGTH: 524288

 Memory used in sort:       0.78 MW

 SORT1 READ      284735. AND WROTE      212525. INTEGRALS IN      1 RECORDS. CPU TIME:     0.01 SEC, REAL TIME:     0.01 SEC
 SORT2 READ      212525. AND WROTE      222111. INTEGRALS IN      6 RECORDS. CPU TIME:     0.02 SEC, REAL TIME:     0.03 SEC

 FILE SIZES:   FILE 1:    31.7 MBYTE,  FILE 4:     4.2 MBYTE,   TOTAL:     35.9 MBYTE

 OPERATOR DM      FOR CENTER  0  COORDINATES:    0.000000    0.000000    0.000000


 **********************************************************************************************************************************
 DATASETS  * FILE   NREC   LENGTH (MB)   RECORD NAMES
              1      19       31.12       500      610      700      900      950      970     1000      129      960     1100   
                                          VAR    BASINP    GEOM    SYMINP    ZMAT    AOBASIS   BASIS     P2S    ABASIS      S 
                                         1400     1410     1200     1210     1080     1600     1650     1300     1700   
                                           T        V       H0       H01     AOSYM     SMH    MOLCAS    ERIS     OPER   

 PROGRAMS   *        TOTAL       INT
 CPU TIMES  *         0.29      0.19
 REAL TIME  *         0.44 SEC
 DISK USED  *        36.24 MB
 **********************************************************************************************************************************


 PROGRAM * RHF-SCF (CLOSED SHELL)       Authors: W. Meyer, H.-J. Werner


 NUMBER OF ELECTRONS:       8+    8-    SPACE SYMMETRY=1    SPIN SYMMETRY: Singlet 
 CONVERGENCE THRESHOLDS:    1.00E-05 (Density)    1.00E-07 (Energy)
 MAX. NUMBER OF ITERATIONS:       60
 INTERPOLATION TYPE:            DIIS
 INTERPOLATION STEPS:              2 (START)      1 (STEP)
 LEVEL SHIFTS:                  0.00 (CLOSED)  0.00 (OPEN) 



 Orbital guess generated from atomic densities. Full valence occupancy:    8

 Molecular orbital dump at record        2100.2

 Initial occupancy:   8

 ITERATION    DDIFF          GRAD             ENERGY        2-EL.EN.            DIPOLE MOMENTS         DIIS   ORB.
    1      0.000D+00      0.000D+00       -77.78306230    114.299388   -0.00570    0.00320    0.00168    0    start
    2      0.000D+00      0.689D-02       -77.80085484    113.109515    0.00102   -0.00210   -0.00225    1    diag
    3      0.697D-02      0.240D-02       -77.80298219    113.604675   -0.00076   -0.00117    0.00124    2    diag
    4      0.307D-02      0.861D-03       -77.80344995    113.451697    0.00173   -0.00274   -0.00152    3    diag
    5      0.163D-02      0.269D-03       -77.80355693    113.459805    0.00009   -0.00176    0.00163    4    diag
    6      0.896D-03      0.126D-03       -77.80358575    113.461400    0.00304   -0.00346   -0.00325    5    diag
    7      0.364D-03      0.847D-04       -77.80359846    113.462461    0.00110   -0.00230    0.00003    6    diag
    8      0.302D-03      0.275D-04       -77.80360020    113.463517    0.00138   -0.00247   -0.00049    7    diag
    9      0.134D-03      0.606D-05       -77.80360026    113.463555    0.00136   -0.00246   -0.00047    8    diag
   10      0.275D-04      0.134D-05       -77.80360027    113.463558    0.00136   -0.00246   -0.00047    9    orth
   11      0.364D-05      0.386D-06       -77.80360027    113.463557    0.00136   -0.00246   -0.00047    0    orth

 Final occupancy:   8

 !RHF STATE  1.1 Energy               -77.803600267586
 Nuclear energy                        31.40384609
 One-electron energy                 -165.93922475
 Two-electron energy                   56.73177839
 Virial quotient                       -1.00561945
 !RHF STATE  1.1 Dipole moment          0.00135653    -0.00245705    -0.00046579
 Dipole moment /Debye                   0.00344772    -0.00624478    -0.00118385

 ELECTRON ORBITALS
 =================

  Orbital  Occupation    Energy     Coefficients
    1.1     2.00000   -11.27838     1 1s    0.90468     2 1s    0.41731
    2.1     2.00000   -11.27718     1 1s   -0.41748     2 1s    0.90476
    3.1     2.00000    -1.03500     1 1s    0.28229     2 1s    0.28294
    4.1     2.00000    -0.74209     1 1s   -0.32068     2 1s    0.31995
    5.1     2.00000    -0.60324     1 2py   0.29485     2 2py   0.29980
    6.1     2.00000    -0.51333     1 2px   0.30938     2 2px  -0.30898
    7.1     2.00000    -0.39700     1 2pz   0.30558     1 2pz   0.27642     2 2pz   0.30905     2 2pz   0.27890
    8.1     2.00000    -0.39161     2 2px  -0.25287     4 1s   -0.27873     5 1s   -0.27907
    9.1     0.00000     0.05476     1 1s   -0.44071     1 2pz  -0.31433     1 2pz  -0.41771     2 1s   -0.43452     2 2pz   0.31534
                                    2 2pz   0.42021     3 1s    0.26240     6 1s    0.25507
   10.1     0.00000     0.20988     1 1s   -1.00130     1 2py  -0.31398     1 2pz   0.33558     2 1s    0.97489     2 2py  -0.30603
                                    2 2pz   0.30666     3 1s    1.08103     6 1s   -1.05004
   11.1     0.00000     0.23343     1 1s   -0.99295     1 2px   0.50029     1 2py   0.29436     1 2pz   0.49197     2 1s   -1.03747
                                    2 2px  -0.50326     2 2py  -0.28168     2 2pz  -0.50573     3 1s    0.53474     4 1s    1.05565
                                    5 1s    1.05687     6 1s    0.58092
   12.1     0.00000     0.28847     1 2py  -0.93120     1 2pz   0.34709     2 2py   0.94247     2 2pz  -0.36200     3 1s    1.03286
                                    4 1s   -0.57183     5 1s   -0.57095     6 1s    1.07713
   13.1     0.00000     0.33849     1 1s   -1.15721     1 2py   0.78099     1 2pz   0.35413     2 1s    1.15692     2 2py   0.78138
                                    2 2pz   0.35397     4 1s    1.74947     5 1s   -1.74922
   14.1     0.00000     0.42254     1 1s    2.39379     1 2px   1.76710     1 2py  -0.48995     1 2pz  -0.90246     2 1s   -2.38949
                                    2 2px   1.77032     2 2py  -0.49582     2 2pz  -0.89997     3 1s    0.29404     6 1s   -0.30053
   15.1     0.00000     0.69493     1 2px   0.53155     1 2px  -0.85799     2 2px  -0.53281     2 2px   0.85770     4 1s    0.44704
                                    5 1s    0.44712
   16.1     0.00000     0.79182     1 1s    0.44857     1 2pz   0.63170     1 2py  -0.38656     1 2pz  -0.69798     2 1s   -0.43908
                                    2 2pz   0.66640     2 2py  -0.50744     2 2pz  -0.74309     5 1s    0.27316
   17.1     0.00000     0.79487     1 2py   0.56383     1 2pz   0.42273     1 2py  -1.10211     1 2pz  -0.55098     2 2py  -0.56359
                                    2 2pz  -0.33429     2 2py   1.09229     2 2pz   0.46801     4 1s   -0.27037     5 1s   -0.25414
   18.1     0.00000     0.81993     1 1s   -0.88574     1 2py  -0.38690     1 2pz   0.31604     1 2px  -0.59027     1 2py   0.70204
                                    2 1s    0.88883     2 2py  -0.36065     2 2pz   0.36588     2 2px  -0.60451     2 2py   0.66692
                                    3 1s   -0.49482     6 1s    0.49127
   19.1     0.00000     0.86921     1 1s    0.38577     1 1s   -0.31287     1 2px   0.32654     1 2py  -0.31655     1 2pz   0.63049
                                    1 2px  -0.50321     1 2py   0.73205     1 2pz  -0.77434     2 1s    0.38180     2 1s   -0.26104
                                    2 2px  -0.31729     2 2py   0.29374     2 2pz  -0.61992     2 2px   0.46884     2 2py  -0.68671
                                    2 2pz   0.78119     3 1s   -0.36936     6 1s   -0.35902
   20.1     0.00000     0.97223     1 1s    0.27663     1 1s   -0.38355     1 2px   0.61703     1 2py   0.43902     1 2px  -0.97800
                                    1 2py  -0.90607     2 1s   -0.25996     2 1s    0.36219     2 2px   0.61633     2 2py   0.44181
                                    2 2px  -0.97760     2 2py  -0.91417     3 1s   -0.25653     3 1s    0.39142     4 1s   -1.07837
                                    5 1s    1.08511     6 1s   -0.37926
   21.1     0.00000     1.02370     1 1s   -0.36857     1 1s    0.35584     1 2px   0.57814     1 2py  -0.33709     1 2px  -1.00332
                                    1 2py   0.49119     2 2px   0.55269     2 2py  -0.32573     2 2px  -0.97489     2 2py   0.50329
                                    3 1s    0.61907     3 1s   -1.26251     6 1s   -0.48868     6 1s    1.09881
   22.1     0.00000     1.04324     1 1s   -0.69973     1 1s    1.06927     2 1s   -0.75030     2 1s    1.09252     2 2px   0.28339
                                    3 1s    0.69595     3 1s   -0.86905     6 1s    0.79491     6 1s   -1.08458
   23.1     0.00000     1.13688     1 1s   -0.40623     1 1s    0.78624     1 2px   0.26865     1 2py   0.41592     1 2px  -0.28639
                                    1 2py  -0.43040     2 1s   -0.41260     2 1s    0.81367     2 2px  -0.26676     2 2py  -0.41882
                                    2 2px   0.27399     2 2py   0.43914     4 1s    0.71719     4 1s   -1.09940     5 1s    0.71451
                                    5 1s   -1.10252
   24.1     0.00000     1.18535     1 1s   -0.38013     1 1s    0.39014     1 2py   0.42470     1 2px  -0.28153     1 2py  -0.43814
                                    2 1s    0.38973     2 1s   -0.40441     2 2py   0.42199     2 2px  -0.28590     2 2py  -0.43529
                                    4 1s    0.78773     4 1s   -1.13981     5 1s   -0.78753     5 1s    1.14340
   25.1     0.00000     1.25225     1 1s   -1.18024     1 1s    1.80477     1 2px  -0.52160     1 2py   0.45152     1 2pz  -0.92846
                                    2 1s   -1.19652     2 1s    1.87991     2 2px   0.50428     2 2py  -0.45046     2 2pz   0.94709
                                    3 1s   -0.48069     3 1s   -0.47643     4 1s   -0.27458     4 1s   -0.51367     5 1s   -0.28189
                                    5 1s   -0.51394     6 1s   -0.47801     6 1s   -0.49721
   26.1     0.00000     1.31154     1 1s   -1.53576     1 1s    5.04448     1 2px   1.40805     1 2py  -0.84662     1 2pz  -1.24349
                                    2 1s    1.52622     2 1s   -5.03237     2 2px   1.41404     2 2py  -0.84986     2 2pz  -1.23512
                                    4 1s   -0.27342     4 1s   -0.66328     5 1s    0.27466     5 1s    0.65494
   27.1     0.00000     1.69362     1 1s   -0.60630     1 3d0  -0.36222     1 3d2-  0.29446     1 3d2+  0.31320     2 1s    0.60805
                                    2 3d0   0.36230     2 3d2- -0.29424     2 3d2+ -0.31318
   28.1     0.00000     1.87475     1 1s    0.44505     1 1s   -1.61703     1 2px  -0.35712     1 2pz   0.43230     1 3d2-  0.38344
                                    1 3d1+ -0.33043     2 1s   -0.41368     2 1s    1.56342     2 2px  -0.37853     2 2pz   0.40048
                                    2 3d2- -0.37888     2 3d1+  0.37433     2 3d1-  0.30002     3 1s    0.35716     6 1s   -0.33385
   29.1     0.00000     1.89269     1 1s   -0.32887     1 3d0   0.33895     1 3d1+  0.34382     1 3d2+  0.36555     1 3d1-  0.35644
                                    2 1s    0.28907     2 1s   -0.57083     2 2pz  -0.29337     2 3d0   0.36364     2 3d1+  0.29165
                                    2 3d2+  0.34696     2 3d1-  0.31257
   30.1     0.00000     2.13365     1 1s   -0.25916     1 1s    1.02651     1 2pz  -0.27725     1 3d0  -0.46858     1 3d2+ -0.38136
                                    1 3d1- -0.26211     2 1s    0.27073     2 1s   -1.04423     2 2pz  -0.28611     2 3d0   0.47623
                                    2 3d2+  0.38173     2 3d1-  0.25841
   31.1     0.00000     2.27435     1 1s    0.52568     1 1s   -0.40214     1 2px   0.28298     1 2px  -0.32265     1 2py   0.26389
                                    1 3d1+  0.41218     1 3d2+ -0.37905     1 3d1- -0.26180     2 1s    0.51981     2 1s   -0.37204
                                    2 2px  -0.28327     2 2px   0.31404     2 2py  -0.25781     2 3d1+  0.41021     2 3d2+ -0.38378
                                    2 3d1- -0.25950
   32.1     0.00000     2.32318     1 2py  -0.25943     1 3d0  -0.39660     1 3d2-  0.53217     1 3d1-  0.29925     2 3d0  -0.38547
                                    2 3d2-  0.53125     2 3d1-  0.29243     4 1s   -0.47921     5 1s   -0.46765
   33.1     0.00000     2.48734     1 1s   -1.04274     1 2px  -0.36185     1 2py   0.38716     1 2pz   0.29784     1 3d0   0.25690
                                    1 3d2- -0.37277     1 3d1- -0.58930     2 1s    1.03802     2 2px  -0.36872     2 2py   0.39786
                                    2 2pz   0.28902     2 3d0  -0.27406     2 3d2-  0.37013     2 3d1-  0.59724     4 1s    0.52062
                                    5 1s   -0.52567
   34.1     0.00000     2.61440     1 3d0   0.48030     1 3d2-  0.51058     1 3d1+ -0.46582     2 3d0   0.47779     2 3d2-  0.52152
                                    2 3d1+ -0.46881
   35.1     0.00000     2.66619     1 2py  -0.34413     1 3d2- -0.26266     1 3d2+ -0.54019     1 3d1-  0.55629     2 2py   0.34462
                                    2 3d2- -0.26051     2 3d2+ -0.54024     2 3d1-  0.55862     4 1s   -0.40344     5 1s   -0.40483
   36.1     0.00000     2.97584     1 1s   -1.75474     1 2px  -0.45641     1 2px  -0.86960     1 2pz   0.45672     1 3d2-  0.34737
                                    1 3d1+  0.71280     1 3d2+ -0.65329     2 1s    1.75458     2 2px  -0.45648     2 2px  -0.86960
                                    2 2pz   0.45662     2 3d2- -0.34672     2 3d1+ -0.71319     2 3d2+  0.65307


 HOMO      8.1    -0.391607 =     -10.6562eV
 LUMO      9.1     0.054761 =       1.4901eV
 LUMO-HOMO         0.446369 =      12.1463eV


 **********************************************************************************************************************************
 DATASETS  * FILE   NREC   LENGTH (MB)   RECORD NAMES
              1      19       31.12       500      610      700      900      950      970     1000      129      960     1100   
                                          VAR    BASINP    GEOM    SYMINP    ZMAT    AOBASIS   BASIS     P2S    ABASIS      S 
                                         1400     1410     1200     1210     1080     1600     1650     1300     1700   
                                           T        V       H0       H01     AOSYM     SMH    MOLCAS    ERIS     OPER   

              2       4        2.86       700     1000      520     2100   
                                         GEOM     BASIS   MCVARS     RHF  

 PROGRAMS   *        TOTAL    HF-SCF       INT
 CPU TIMES  *         0.42      0.12      0.19
 REAL TIME  *         0.73 SEC
 DISK USED  *        36.24 MB
 **********************************************************************************************************************************


 PROGRAM * MULTI (Direct Multiconfiguration SCF)       Authors: P.J. Knowles, H.-J. Werner (1984)


 Number of closed-shell orbitals:   7 (   7 )
 Number of active  orbitals:        2 (   2 )
 Number of external orbitals:      27 (  27 )

 State symmetry 1

 Number of electrons:     2    Spin symmetry=Singlet   Space symmetry=1
 Number of states:        3
 Number of CSFs:          3   (4 determinants, 4 intermediate states)

 Molecular orbitals read from record     2100.2  Type=RHF/CANONICAL (state 1.1)

 Wavefunction dump at record             2140.2

 Convergence thresholds  0.10E-01 (gradient)  0.10E-05 (energy)  0.10E-02 (step length)

 Weight factors for state symmetry  1:    0.33333   0.33333   0.33333

 Number of orbital rotations:      257   (    14 Core/Active    189 Core/Virtual   0 Active/Active     54 Active/Virtual)
 Total number of variables:        269

 Micro-Iterations solved by the two-step solver

 ITER. MIC  NCI  NEG     ENERGY(VAR)     ENERGY(PROJ)   ENERGY CHANGE     GRAD(0)  GRAD(ORB)   GRAD(CI)     STEP       TIME

   1   10    6    0     -77.64326084     -77.66403863   -0.02077779    0.16241991 0.00178309 0.00000000  0.17D+00      0.14
   2    5    4    0     -77.66354320     -77.66359891   -0.00005572    0.01118163 0.00002252 0.00000000  0.71D-02      0.22
   3    7    5    0     -77.66359906     -77.66359906   -0.00000000    0.00004159 0.00000000 0.00000000  0.49D-04      0.32
   4    3    3    0     -77.66359906     -77.66359906    0.00000000    0.00000000 0.00000000 0.00000000  0.15D-08      0.38

 ** WVFN ****  CONVERGENCE REACHED, FINAL GRADIENT:  0.55D-13



 Results for state 1.1
 =====================

 !MCSCF STATE  1.1 Energy             -77.797270971581
 Nuclear energy                        31.40384609
 Kinetic energy                        77.43428153
 One electron energy                 -166.04614795
 Two electron energy                   56.84503089
 Virial ratio                           2.00468771

 !MCSCF STATE  1.1 Dipole moment        0.00111394    -0.00199056    -0.00045556
 Dipole moment /Debye                   0.00283117    -0.00505917    -0.00115784

 Results for state 2.1
 =====================

 !MCSCF STATE  2.1 Energy             -77.690664276117
 Nuclear energy                        31.40384609
 Kinetic energy                        77.50051029
 One electron energy                 -165.69100730
 Two electron energy                   56.59649693
 Virial ratio                           2.00245358

 !MCSCF STATE  2.1 Dipole moment        0.00216965    -0.00352070     0.00074406
 Dipole moment /Debye                   0.00551433    -0.00894815     0.00189108

 Results for state 3.1
 =====================

 !MCSCF STATE  3.1 Energy             -77.502861933045
 Nuclear energy                        31.40384609
 Kinetic energy                        77.54330857
 One electron energy                 -165.36147563
 Two electron energy                   56.45476761
 Virial ratio                           1.99947840

 !MCSCF STATE  3.1 Dipole moment        0.00506326    -0.00604578     0.00190040
 Dipole moment /Debye                   0.01286868    -0.01536583     0.00483003

 State-averaged charge density matrix saved on record  2140.2 (density set 1)

 !MCSCF expec         <1.1|DMX|1.1>     0.001113942270 au =     0.002831173393 Debye
 !MCSCF trans         <2.1|DMX|1.1>     0.003647211098 au =     0.009269678781 Debye
 !MCSCF expec         <2.1|DMX|2.1>     0.002169645963 au =     0.005514328787 Debye
 !MCSCF trans         <3.1|DMX|1.1>     0.000120023984 au =     0.000305050558 Debye
 !MCSCF trans         <3.1|DMX|2.1>     0.003842854850 au =     0.009766923031 Debye
 !MCSCF expec         <3.1|DMX|3.1>     0.005063258646 au =     0.012868676910 Debye

 !MCSCF expec         <1.1|DMY|1.1>    -0.001990561883 au =    -0.005059172270 Debye
 !MCSCF trans         <2.1|DMY|1.1>    -0.002015437807 au =    -0.005122396422 Debye
 !MCSCF expec         <2.1|DMY|2.1>    -0.003520704599 au =    -0.008948152394 Debye
 !MCSCF trans         <3.1|DMY|1.1>     0.000026137901 au =     0.000066431565 Debye
 !MCSCF trans         <3.1|DMY|2.1>    -0.002042941757 au =    -0.005192299911 Debye
 !MCSCF expec         <3.1|DMY|3.1>    -0.006045778451 au =    -0.015365829596 Debye

 !MCSCF expec         <1.1|DMZ|1.1>    -0.000455560773 au =    -0.001157844150 Debye
 !MCSCF trans         <2.1|DMZ|1.1>    -0.000033415360 au =    -0.000084927811 Debye
 !MCSCF expec         <2.1|DMZ|2.1>     0.000744056052 au =     0.001891077982 Debye
 !MCSCF trans         <3.1|DMZ|1.1>    -0.000119201134 au =    -0.000302959217 Debye
 !MCSCF trans         <3.1|DMZ|2.1>    -0.000138167598 au =    -0.000351164003 Debye
 !MCSCF expec         <3.1|DMZ|3.1>     0.001900404785 au =     0.004830030795 Debye


 NATURAL ORBITALS (state averaged)
 =================================

  Orbital  Occupation    Energy     Coefficients
    1.1     2.00000   -11.27576     1 1s    0.92703     2 1s    0.36494
    2.1     2.00000   -11.27456     1 1s   -0.36507     2 1s    0.92708
    3.1     2.00000    -1.05205     1 1s    0.27817     2 1s    0.27865
    4.1     2.00000    -0.74725     1 1s   -0.34158     2 1s    0.34108
    5.1     2.00000    -0.60495     1 2py   0.28582     2 2py   0.29134
    6.1     2.00000    -0.50997     1 2px   0.25681     2 2px  -0.25622
    7.1     2.00000    -0.42482     1 2pz   0.32271     1 2pz   0.27301     2 2pz   0.32330     2 2pz   0.27349
    8.1     1.00000    -0.09226     1 1s   -0.30117     1 2pz  -0.39334     1 2pz  -0.40386     2 1s   -0.29821     2 2pz   0.39398
                                    2 2pz   0.40515
    9.1     1.00000    -0.23844     1 2px   0.30303     2 2px  -0.30331     4 1s   -0.28944     5 1s   -0.28920
   10.1    -0.00000     0.20717     1 1s   -1.04432     1 2py  -0.29296     1 2pz   0.33878     2 1s    0.97760     2 2py  -0.29580
                                    2 2pz   0.30115     3 1s    1.08545     6 1s   -1.03508
   11.1    -0.00000     0.21952     1 1s   -1.00444     1 2px   0.49021     1 2py   0.32531     1 2pz   0.41067     2 1s   -1.08202
                                    2 2px  -0.49646     2 2py  -0.30321     2 2pz  -0.43456     3 1s    0.48731     4 1s    1.08073
                                    5 1s    1.08519     6 1s    0.56792
   12.1    -0.00000     0.28815     1 1s   -0.26736     1 2px   0.25122     1 2py  -0.92358     1 2pz   0.32302     2 1s   -0.32073
                                    2 2px  -0.25021     2 2py   0.93295     2 2pz  -0.33878     3 1s    1.06870     4 1s   -0.51158
                                    5 1s   -0.50584     6 1s    1.11344
   13.1    -0.00000     0.32030     1 1s   -1.29601     1 2py   0.82359     1 2pz   0.40333     2 1s    1.29469     2 2py   0.82678
                                    2 2pz   0.40258     4 1s    1.76012     5 1s   -1.76147
   14.1    -0.00000     0.42801     1 1s    2.23830     1 2px   1.77342     1 2py  -0.38662     1 2pz  -0.83768     2 1s   -2.23420
                                    2 2px   1.77661     2 2py  -0.39252     2 2pz  -0.83534     3 1s    0.29811     6 1s   -0.30456
   15.1    -0.00000     0.68932     1 2px   0.51626     1 2px  -0.83963     2 2px  -0.51738     2 2px   0.83922     4 1s   -0.26948
                                    4 1s    0.49639     5 1s   -0.26829     5 1s    0.49663
   16.1    -0.00000     0.78891     1 1s    0.74571     1 2pz   0.59702     1 2py  -0.45053     1 2pz  -0.75951     2 1s   -0.74099
                                    2 2pz   0.63592     2 2py  -0.58857     2 2pz  -0.81864     4 1s   -0.26141     5 1s    0.29477
   17.1    -0.00000     0.79252     1 2py   0.54153     1 2pz   0.41583     1 2py  -1.09599     1 2pz  -0.62479     2 2py  -0.53591
                                    2 2pz  -0.31780     2 2py   1.06781     2 2pz   0.51836     4 1s   -0.27360     5 1s   -0.25044
   18.1    -0.00000     0.81777     1 1s   -0.84671     1 2py  -0.37213     1 2pz   0.36947     1 2px  -0.59659     1 2py   0.68119
                                    2 1s    0.84394     2 2py  -0.34724     2 2pz   0.41634     2 2px  -0.61180     2 2py   0.64712
                                    3 1s   -0.46947     6 1s    0.46518
   19.1    -0.00000     0.86452     1 1s    0.34919     1 1s   -0.26347     1 2px   0.33636     1 2py  -0.30791     1 2pz   0.60787
                                    1 2px  -0.53028     1 2py   0.72247     1 2pz  -0.81487     2 1s    0.34540     2 2px  -0.32765
                                    2 2py   0.28633     2 2pz  -0.59635     2 2px   0.49471     2 2py  -0.67836     2 2pz   0.82155
                                    3 1s   -0.40179     6 1s   -0.39100
   20.1    -0.00000     0.97636     1 1s    0.28821     1 1s   -0.34214     1 2px   0.58727     1 2py   0.45363     1 2px  -0.87073
                                    1 2py  -0.93114     2 1s   -0.26974     2 1s    0.31829     2 2px   0.58639     2 2py   0.45664
                                    2 2px  -0.87031     2 2py  -0.93972     3 1s   -0.30123     3 1s    0.47317     4 1s   -1.03357
                                    5 1s    1.04142     6 1s    0.29020     6 1s   -0.46047
   21.1    -0.00000     1.02872     1 1s   -0.35824     1 1s    0.34336     1 2px   0.62203     1 2py  -0.29764     1 2px  -1.05577
                                    1 2py   0.42845     2 2px   0.59586     2 2py  -0.29028     2 2px  -1.02694     2 2py   0.44349
                                    3 1s    0.59912     3 1s   -1.22870     4 1s   -0.25320     6 1s   -0.47828     6 1s    1.07649
   22.1    -0.00000     1.04785     1 1s   -0.74510     1 1s    1.14977     2 1s   -0.79047     2 1s    1.16585     2 2px   0.30135
                                    3 1s    0.67598     3 1s   -0.84489     4 1s   -0.32436     5 1s   -0.33063     6 1s    0.76828
                                    6 1s   -1.04687
   23.1    -0.00000     1.10899     1 1s   -0.31599     1 1s    0.64535     1 2px   0.26434     1 2py   0.45239     1 2px  -0.27536
                                    1 2py  -0.46924     2 1s   -0.31964     2 1s    0.66936     2 2px  -0.25987     2 2py  -0.45702
                                    2 2px   0.25807     2 2py   0.48099     3 1s    0.29968     4 1s    0.70984     4 1s   -1.05278
                                    5 1s    0.70640     5 1s   -1.05458     6 1s    0.30943
   24.1    -0.00000     1.14464     1 1s   -0.39123     1 1s    0.43578     1 2py   0.44576     1 2px  -0.27770     1 2py  -0.47101
                                    2 1s    0.40038     2 1s   -0.44943     2 2py   0.44393     2 2px  -0.28187     2 2py  -0.46977
                                    4 1s    0.78442     4 1s   -1.16803     5 1s   -0.78614     5 1s    1.17269
   25.1    -0.00000     1.24642     1 1s   -1.18774     1 1s    1.81890     1 2px  -0.52749     1 2py   0.46184     1 2pz  -0.91512
                                    2 1s   -1.20757     2 1s    1.90349     2 2px   0.50813     2 2py  -0.45909     2 2pz   0.93592
                                    3 1s   -0.48771     3 1s   -0.47029     4 1s   -0.25312     4 1s   -0.53762     5 1s   -0.25919
                                    5 1s   -0.54080     6 1s   -0.48460     6 1s   -0.49208
   26.1    -0.00000     1.30424     1 1s   -1.53968     1 1s    5.04722     1 2px   1.42744     1 2py  -0.82225     1 2pz  -1.23063
                                    2 1s    1.52905     2 1s   -5.03345     2 2px   1.43399     2 2py  -0.82645     2 2pz  -1.22118
                                    4 1s   -0.27488     4 1s   -0.63582     5 1s    0.27554     5 1s    0.62730
   27.1    -0.00000     1.68680     1 1s   -0.64976     1 3d0  -0.35376     1 3d2-  0.30254     1 3d2+  0.31476     2 1s    0.65172
                                    2 3d0   0.35389     2 3d2- -0.30223     2 3d2+ -0.31465
   28.1    -0.00000     1.86987     1 1s    0.43559     1 1s   -1.57483     1 2px  -0.34271     1 2pz   0.41894     1 3d2-  0.37699
                                    1 3d1+ -0.33727     2 1s   -0.40510     2 1s    1.52238     2 2px  -0.36445     2 2pz   0.38774
                                    2 3d2- -0.37294     2 3d1+  0.38056     2 3d1-  0.29745     3 1s    0.35844     6 1s   -0.33517
   29.1    -0.00000     1.88776     1 1s   -0.32634     1 3d0   0.33672     1 3d1+  0.34168     1 3d2+  0.37079     1 3d1-  0.35569
                                    2 1s    0.28254     2 1s   -0.56041     2 2pz  -0.28882     2 3d0   0.36137     2 3d1+  0.28905
                                    2 3d2+  0.35163     2 3d1-  0.31235
   30.1    -0.00000     2.13158     1 1s   -0.26472     1 1s    1.02880     1 2pz  -0.27506     1 3d0  -0.47304     1 3d2+ -0.38144
                                    1 3d1- -0.26140     2 1s    0.27596     2 1s   -1.04631     2 2pz  -0.28373     2 3d0   0.48087
                                    2 3d2+  0.38218     2 3d1-  0.25761     6 1s    0.25039
   31.1    -0.00000     2.27105     1 1s    0.51983     1 1s   -0.38932     1 2px   0.28709     1 2px  -0.31794     1 3d1+  0.42138
                                    1 3d2+ -0.38733     2 1s    0.51497     2 1s   -0.36470     2 2px  -0.28719     2 2px   0.31087
                                    2 3d1+  0.41987     2 3d2+ -0.39137
   32.1    -0.00000     2.31019     1 2py  -0.28658     1 3d0  -0.40700     1 3d2-  0.52385     1 3d1-  0.32577     2 2py   0.27619
                                    2 3d0  -0.39471     2 3d2-  0.52299     2 3d1-  0.31875     4 1s   -0.46990     5 1s   -0.45773
   33.1    -0.00000     2.47930     1 1s   -1.03165     1 2px  -0.35422     1 2py   0.38938     1 2pz   0.29502     1 3d0   0.25516
                                    1 3d2- -0.37508     1 3d1- -0.59060     2 1s    1.02725     2 2px  -0.36111     2 2py   0.40024
                                    2 2pz   0.28650     2 3d0  -0.27151     2 3d2-  0.37371     2 3d1-  0.59880     4 1s    0.51020
                                    5 1s   -0.51554
   34.1    -0.00000     2.61592     1 3d0   0.46221     1 3d2-  0.52941     1 3d1+ -0.44815     2 3d0   0.46029     2 3d2-  0.53941
                                    2 3d1+ -0.45057
   35.1    -0.00000     2.65888     1 2py  -0.33230     1 3d2+ -0.53268     1 3d1-  0.54609     2 2py   0.33318     2 3d2+ -0.53290
                                    2 3d1-  0.54957     4 1s   -0.38769     5 1s   -0.38979
   36.1    -0.00000     2.97018     1 1s   -1.78602     1 2px  -0.45011     1 2px  -0.88198     1 2pz   0.46518     1 3d2-  0.34536
                                    1 3d1+  0.71568     1 3d2+ -0.65077     2 1s    1.78586     2 2px  -0.45019     2 2px  -0.88198
                                    2 2pz   0.46509     2 3d2- -0.34467     2 3d1+ -0.71614     2 3d2+  0.65053


 Natural orbital dump (state averaged) at molpro section  2140.2    (Orbital set 2)



 **********************************************************************************************************************************
 DATASETS  * FILE   NREC   LENGTH (MB)   RECORD NAMES
              1      20       31.85       500      610      700      900      950      970     1000      129      960     1100   
                                          VAR    BASINP    GEOM    SYMINP    ZMAT    AOBASIS   BASIS     P2S    ABASIS      S 
                                         1400     1410     1200     1210     1080     1600     1650     1300     1700     1380   
                                           T        V       H0       H01     AOSYM     SMH    MOLCAS    ERIS     OPER     JKOP   

              2       5        5.42       700     1000      520     2100     2140   
                                         GEOM     BASIS   MCVARS     RHF     MCSCF   

 PROGRAMS   *        TOTAL     MULTI    HF-SCF       INT
 CPU TIMES  *         0.85      0.44      0.12      0.19
 REAL TIME  *         1.25 SEC
 DISK USED  *        39.04 MB
 **********************************************************************************************************************************
 Molecular orbitals read from record     2140.2  Type=MCSCF/NATURAL (state averaged)
 Occupation numbers read from record     2140.2  Type=MCSCF/NATURAL (state averaged)
 Orbital energies read from record       2140.2  Type=MCSCF/NATURAL (state averaged)
 Redundancy group numbers read from rec  2140.2  Type=MCSCF/NATURAL (state averaged)

 MULTI/6-31G* energy=    -77.502861933045

           MULTI          HF-SCF
    -77.50286193    -77.80360027
 **********************************************************************************************************************************
 Molpro calculation terminated
