
 Primary working directories    : /scratch.local/johan406.molpro_temp/molpro.nCaU55deVf
 Secondary working directories  : /scratch.local/johan406.molpro_temp/molpro.nCaU55deVf
 Wavefunction directory         : /home/goodpast/johan406/wfu/
 Main file repository           : /scratch.local/johan406.molpro_temp/molpro.nCaU55deVf/

 id        : roweumn

 Nodes     nprocs
 acn09        1

 Using customized tuning parameters: mindgm=1; mindgv=20; mindgc=4; mindgr=1; noblas=0; minvec=7
 default implementation of scratch files=df  


 Variables initialized (934), CPU time= 0.00 sec
                                                                                 !leave this line blank
 
 gprint, orbitals=30
 memory, 125., m
 symmetry, nosym
 nelect=16
 basis=6-31g*
 
 geometry={
 C -0.614 0.1252 0.3049
 C 0.626 -0.1751 -0.3653
 H -1.3982 1.0555 -0.2423
 H -0.9497 -0.8568 -0.1312
 H 0.9617 0.8069 0.0708
 H 1.4008 -1.0992 0.1787
 }
 
 hf
 {multi,
 closed 7
 occ 9
 wf,spin=0;STATE,3
 }
 
 Commands  initialized (763), CPU time= 0.01 sec, 617 directives.
 Default parameters read. Elapsed time= 0.08 sec

 Checking input...
 Passed
1


                                         ***  PROGRAM SYSTEM MOLPRO  ***
                                       Copyright, TTI GmbH Stuttgart, 2015
                                    Version 2019.2 linked Oct 25 2019 22:50:27


 **********************************************************************************************************************************
 LABEL *                                                                                 
  64 bit serial version                                                                  DATE: 07-Feb-23          TIME: 16:06:40  
 **********************************************************************************************************************************

 SHA1:             8dbd9ae1082e4ce945b0f27595c9eb2d4aa09004
 **********************************************************************************************************************************


 Variable memory set to  125000000 words,  buffer space 

 SETTING NELECT         =        16.00000000                                  
 SETTING BASIS          =    6-31G*
 ZSYMEL=NOSYM


Geometry recognized as XYZ



 Recomputing integrals since basis changed


 Using spherical harmonics

 Library entry C      S 6-31G                selected for orbital group  1
 Library entry C      P 6-31G                selected for orbital group  1
 Library entry C      D 6-31G*               selected for orbital group  1
 Library entry H      S 6-31G                selected for orbital group  2


 PROGRAM * SEWARD (Integral evaluation for generally contracted gaussian basis sets)     Author: Roland Lindh, 1990

 Geometry written to block  1 of record 700


 Point group  C1  



 ATOMIC COORDINATES

 NR  ATOM    CHARGE       X              Y              Z

   1  C       6.00   -1.160291840    0.236593711    0.576177495
   2  C       6.00    1.182968554   -0.330891044   -0.690316953
   3  H       1.00   -2.642215067    1.994605924   -0.457880640
   4  H       1.00   -1.794672900   -1.619117344   -0.247932068
   5  H       1.00    1.817349614    1.524820010    0.133792610
   6  H       1.00    2.647128355   -2.077186956    0.337694058

 Bond lengths in Bohr (Angstrom)

 1-2  2.723401625  1-3  2.521106825  1-4  2.127265714  2-5  2.127265714  2-6  2.500023995
     ( 1.441162076)     ( 1.334112278)     ( 1.125700537)     ( 1.125700537)     ( 1.322955725)

 Bond angles

  1-2-5   83.95303274   1-2-6  117.27335842   2-1-3  117.40773379   2-1-4   83.95303274

  3-1-4  105.90911598   5-2-6  105.98535060

 NUCLEAR CHARGE:                   16
 NUMBER OF PRIMITIVE AOS:          72
 NUMBER OF SYMMETRY AOS:           70
 NUMBER OF CONTRACTIONS:           36   (   36A   )
 NUMBER OF CORE ORBITALS:           2   (    2A   )
 NUMBER OF VALENCE ORBITALS:       12   (   12A   )


 NUCLEAR REPULSION ENERGY   31.32694414

 Eigenvalues of metric

         1 0.890E-02 0.395E-01 0.597E-01 0.896E-01 0.101E+00 0.230E+00 0.236E+00 0.268E+00


 Contracted 2-electron integrals neglected if value below      1.0D-11
 AO integral compression algorithm  1   Integral accuracy      1.0D-11

     1.573 MB (compressed) written to integral file ( 58.4%)


 NUMBER OF SORTED TWO-ELECTRON INTEGRALS:     222111.     BUFFER LENGTH:  32768
 NUMBER OF SEGMENTS:   1  SEGMENT LENGTH:     222111      RECORD LENGTH: 524288

 Memory used in sort:       0.78 MW

 SORT1 READ      284735. AND WROTE      212526. INTEGRALS IN      1 RECORDS. CPU TIME:     0.01 SEC, REAL TIME:     0.01 SEC
 SORT2 READ      212526. AND WROTE      222111. INTEGRALS IN      6 RECORDS. CPU TIME:     0.02 SEC, REAL TIME:     0.02 SEC

 FILE SIZES:   FILE 1:    31.7 MBYTE,  FILE 4:     4.2 MBYTE,   TOTAL:     35.9 MBYTE

 OPERATOR DM      FOR CENTER  0  COORDINATES:    0.000000    0.000000    0.000000


 **********************************************************************************************************************************
 DATASETS  * FILE   NREC   LENGTH (MB)   RECORD NAMES
              1      19       31.12       500      610      700      900      950      970     1000      129      960     1100   
                                          VAR    BASINP    GEOM    SYMINP    ZMAT    AOBASIS   BASIS     P2S    ABASIS      S 
                                         1400     1410     1200     1210     1080     1600     1650     1300     1700   
                                           T        V       H0       H01     AOSYM     SMH    MOLCAS    ERIS     OPER   

 PROGRAMS   *        TOTAL       INT
 CPU TIMES  *         0.29      0.18
 REAL TIME  *         0.64 SEC
 DISK USED  *        36.24 MB
 **********************************************************************************************************************************


 PROGRAM * RHF-SCF (CLOSED SHELL)       Authors: W. Meyer, H.-J. Werner


 NUMBER OF ELECTRONS:       8+    8-    SPACE SYMMETRY=1    SPIN SYMMETRY: Singlet 
 CONVERGENCE THRESHOLDS:    1.00E-05 (Density)    1.00E-07 (Energy)
 MAX. NUMBER OF ITERATIONS:       60
 INTERPOLATION TYPE:            DIIS
 INTERPOLATION STEPS:              2 (START)      1 (STEP)
 LEVEL SHIFTS:                  0.00 (CLOSED)  0.00 (OPEN) 



 Orbital guess generated from atomic densities. Full valence occupancy:    8

 Molecular orbital dump at record        2100.2

 Initial occupancy:   8

 ITERATION    DDIFF          GRAD             ENERGY        2-EL.EN.            DIPOLE MOMENTS         DIIS   ORB.
    1      0.000D+00      0.000D+00       -77.77567253    114.172521   -0.00605    0.00334    0.00161    0    start
    2      0.000D+00      0.690D-02       -77.79361514    112.949214    0.00112   -0.00232   -0.00222    1    diag
    3      0.698D-02      0.244D-02       -77.79578351    113.456652   -0.00057   -0.00147    0.00117    2    diag
    4      0.310D-02      0.870D-03       -77.79626406    113.300489    0.00196   -0.00308   -0.00149    3    diag
    5      0.165D-02      0.268D-03       -77.79636962    113.308655    0.00045   -0.00218    0.00154    4    diag
    6      0.896D-03      0.125D-03       -77.79639800    113.310274    0.00331   -0.00380   -0.00324    5    diag
    7      0.364D-03      0.835D-04       -77.79641016    113.311345    0.00139   -0.00267    0.00004    6    diag
    8      0.292D-03      0.279D-04       -77.79641193    113.312409    0.00169   -0.00284   -0.00051    7    diag
    9      0.135D-03      0.610D-05       -77.79641200    113.312443    0.00166   -0.00283   -0.00049    8    diag
   10      0.281D-04      0.124D-05       -77.79641200    113.312447    0.00166   -0.00283   -0.00049    9    orth
   11      0.335D-05      0.370D-06       -77.79641200    113.312445    0.00166   -0.00283   -0.00049    0    orth

 Final occupancy:   8

 !RHF STATE  1.1 Energy               -77.796411999424
 Nuclear energy                        31.32694414
 One-electron energy                 -165.77957849
 Two-electron energy                   56.65622235
 Virial quotient                       -1.00585490
 !RHF STATE  1.1 Dipole moment          0.00165534    -0.00283182    -0.00048765
 Dipole moment /Debye                   0.00420718    -0.00719729    -0.00123939

 ELECTRON ORBITALS
 =================

  Orbital  Occupation    Energy     Coefficients
    1.1     2.00000   -11.28009     1 1s    0.91063     2 1s    0.40417
    2.1     2.00000   -11.27885     1 1s    0.40435     2 1s   -0.91071
    3.1     2.00000    -1.03540     1 1s    0.28243     2 1s    0.28309
    4.1     2.00000    -0.73995     1 1s   -0.32023     2 1s    0.31955
    5.1     2.00000    -0.60056     1 2py   0.29214     2 2py   0.29750
    6.1     2.00000    -0.50924     1 2px   0.31166     2 2px  -0.31125
    7.1     2.00000    -0.39753     1 2pz   0.30522     1 2pz   0.27528     2 2pz   0.30903     2 2pz   0.27803
    8.1     2.00000    -0.39196     4 1s   -0.27754     5 1s   -0.27789
    9.1     0.00000     0.05352     1 1s   -0.44333     1 2pz  -0.31243     1 2pz  -0.41219     2 1s   -0.43633     2 2pz   0.31362
                                    2 2pz   0.41506     3 1s    0.26944     6 1s    0.26116
   10.1     0.00000     0.20236     1 1s   -0.95584     1 2py  -0.30882     1 2pz   0.32458     2 1s    0.93700     2 2py  -0.29923
                                    2 2pz   0.29755     3 1s    1.04817     6 1s   -1.02162
   11.1     0.00000     0.23341     1 1s   -0.98659     1 2px   0.50260     1 2py   0.27965     1 2pz   0.50090     2 1s   -1.02585
                                    2 2px  -0.50528     2 2py  -0.26849     2 2pz  -0.51304     3 1s    0.54047     4 1s    1.04713
                                    5 1s    1.04821     6 1s    0.58133
   12.1     0.00000     0.28602     1 2py  -0.92642     1 2pz   0.33410     2 2py   0.93795     2 2pz  -0.34916     3 1s    0.98805
                                    4 1s   -0.59438     5 1s   -0.59346     6 1s    1.03284
   13.1     0.00000     0.33870     1 1s   -1.16834     1 2py   0.78254     1 2pz   0.35780     2 1s    1.16816     2 2py   0.78301
                                    2 2pz   0.35763     4 1s    1.75433     5 1s   -1.75425
   14.1     0.00000     0.42269     1 1s    2.41388     1 2px   1.76610     1 2py  -0.47923     1 2pz  -0.90986     2 1s   -2.40976
                                    2 2px   1.76947     2 2py  -0.48525     2 2pz  -0.90736     3 1s    0.27567     6 1s   -0.28200
   15.1     0.00000     0.69412     1 2px   0.52982     1 2px  -0.85354     2 2px  -0.53115     2 2px   0.85290     4 1s    0.44795
                                    5 1s    0.44805
   16.1     0.00000     0.79165     1 1s    0.41560     1 2pz   0.65087     1 2py  -0.36646     1 2pz  -0.70820     2 1s   -0.40875
                                    2 2pz   0.67964     2 2py  -0.46572     2 2pz  -0.74623     5 1s    0.26178
   17.1     0.00000     0.79483     1 2py   0.56133     1 2pz   0.41928     1 2py  -1.09314     1 2pz  -0.55643     2 2py  -0.56410
                                    2 2pz  -0.34592     2 2py   1.08995     2 2pz   0.48942     4 1s   -0.26712     5 1s   -0.25576
   18.1     0.00000     0.82541     1 1s   -0.96653     1 2py  -0.40079     1 2pz   0.28342     1 2px  -0.59716     1 2py   0.72732
                                    2 1s    0.97115     2 2py  -0.38148     2 2pz   0.33542     2 2px  -0.61638     2 2py   0.70768
                                    3 1s   -0.49979     6 1s    0.49659
   19.1     0.00000     0.86798     1 1s   -0.37801     1 1s    0.31116     1 2px  -0.33291     1 2py   0.32155     1 2pz  -0.62715
                                    1 2px   0.50826     1 2py  -0.73565     1 2pz   0.76151     2 1s   -0.37326     2 2px   0.32192
                                    2 2py  -0.29446     2 2pz   0.61465     2 2px  -0.46834     2 2py   0.68231     2 2pz  -0.76971
                                    3 1s    0.39473     6 1s    0.38369
   20.1     0.00000     0.97142     1 1s    0.29856     1 1s   -0.41756     1 2px   0.58788     1 2py   0.45072     1 2px  -0.93249
                                    1 2py  -0.92267     2 1s   -0.27801     2 1s    0.39137     2 2px   0.58655     2 2py   0.45455
                                    2 2px  -0.93154     2 2py  -0.93322     3 1s   -0.29204     3 1s    0.45657     4 1s   -1.06583
                                    5 1s    1.07477     6 1s    0.27961     6 1s   -0.44284
   21.1     0.00000     1.01651     1 1s   -0.35970     1 1s    0.35331     1 2px   0.60633     1 2py  -0.30224     1 2px  -1.03933
                                    1 2py   0.41915     2 2px   0.58546     2 2py  -0.29604     2 2px  -1.01507     2 2py   0.43846
                                    3 1s    0.60220     3 1s   -1.22105     4 1s   -0.26180     6 1s   -0.47948     6 1s    1.06813
   22.1     0.00000     1.03606     1 1s   -0.72313     1 1s    1.09584     2 1s   -0.77068     2 1s    1.11515     2 2px   0.27048
                                    3 1s    0.69279     3 1s   -0.86481     5 1s   -0.25271     6 1s    0.78562     6 1s   -1.06731
   23.1     0.00000     1.13830     1 1s   -0.37739     1 1s    0.74345     1 2px   0.27004     1 2py   0.41831     1 2px  -0.27835
                                    1 2py  -0.43485     2 1s   -0.38398     2 1s    0.77219     2 2px  -0.26818     2 2py  -0.42102
                                    2 2px   0.26510     2 2py   0.44383     4 1s    0.72399     4 1s   -1.08631     5 1s    0.72063
                                    5 1s   -1.08889
   24.1     0.00000     1.18641     1 1s   -0.37936     1 1s    0.39343     1 2py   0.42872     1 2px  -0.27383     1 2py  -0.44312
                                    2 1s    0.39009     2 1s   -0.40941     2 2py   0.42619     2 2pz   0.25011     2 2px  -0.27871
                                    2 2py  -0.44041     4 1s    0.78724     4 1s   -1.13971     5 1s   -0.78731     5 1s    1.14458
   25.1     0.00000     1.25145     1 1s   -1.17439     1 1s    1.77658     1 2px  -0.52114     1 2py   0.43990     1 2pz  -0.92047
                                    2 1s   -1.19095     2 1s    1.85449     2 2px   0.50262     2 2py  -0.43933     2 2pz   0.93986
                                    3 1s   -0.49156     3 1s   -0.43469     4 1s   -0.25434     4 1s   -0.53288     5 1s   -0.26258
                                    5 1s   -0.53210     6 1s   -0.48842     6 1s   -0.45643
   26.1     0.00000     1.31453     1 1s   -1.53232     1 1s    5.03865     1 2px   1.41252     1 2py  -0.84751     1 2pz  -1.24507
                                    2 1s    1.52300     2 1s   -5.02714     2 2px   1.41873     2 2py  -0.85065     2 2pz  -1.23685
                                    3 1s   -0.25387     4 1s   -0.27191     4 1s   -0.66536     5 1s    0.27356     5 1s    0.65686
   27.1     0.00000     1.69320     1 1s   -0.61035     1 3d0  -0.36308     1 3d2-  0.29448     1 3d2+  0.31215     2 1s    0.61227
                                    2 3d0   0.36326     2 3d2- -0.29427     2 3d2+ -0.31204
   28.1     0.00000     1.86616     1 1s    0.44555     1 1s   -1.60722     1 2px  -0.35825     1 2pz   0.42785     1 3d2-  0.39026
                                    1 3d1+ -0.32876     2 1s   -0.42144     2 1s    1.56679     2 2px  -0.37572     2 2pz   0.40350
                                    2 3d2- -0.38486     2 3d1+  0.36594     2 3d1-  0.28534     3 1s    0.35213     6 1s   -0.33407
   29.1     0.00000     1.88929     1 1s   -0.32234     1 3d0   0.34012     1 3d1+  0.33772     1 3d2+  0.36561     1 3d1-  0.35511
                                    2 1s    0.27639     2 1s   -0.53497     2 2pz  -0.27919     2 3d0   0.36189     2 3d1+  0.29298
                                    2 3d2+  0.34982     2 3d1-  0.31772
   30.1     0.00000     2.12926     1 1s    0.95584     1 2pz  -0.25824     1 3d0  -0.45846     1 3d2+ -0.38275     1 3d1- -0.27612
                                    2 1s    0.25708     2 1s   -0.97478     2 2pz  -0.26791     2 3d0   0.46645     2 3d2+  0.38343
                                    2 3d1-  0.27251
   31.1     0.00000     2.27501     1 1s    0.52998     1 1s   -0.41783     1 2px   0.28431     1 2px  -0.32347     1 2py   0.27493
                                    1 3d0   0.25383     1 3d1+  0.41059     1 3d2+ -0.37238     1 3d1- -0.27686     2 1s    0.52329
                                    2 1s   -0.38397     2 2px  -0.28470     2 2px   0.31375     2 2py  -0.26816     2 3d1+  0.40832
                                    2 3d2+ -0.37765     2 3d1- -0.27430
   32.1     0.00000     2.32083     1 3d0  -0.37675     1 3d2-  0.54638     1 3d1-  0.28071     2 3d0  -0.36553     2 3d2-  0.54557
                                    2 3d1-  0.27409     4 1s   -0.48322     5 1s   -0.47169
   33.1     0.00000     2.48287     1 1s   -1.10124     1 2px  -0.37495     1 2py   0.39403     1 2pz   0.31428     1 3d0   0.26629
                                    1 3d2- -0.36455     1 3d1- -0.58768     2 1s    1.09654     2 2px  -0.38220     2 2py   0.40499
                                    2 2pz   0.30538     2 3d0  -0.28330     2 3d2-  0.36294     2 3d1-  0.59586     4 1s    0.52788
                                    5 1s   -0.53331
   34.1     0.00000     2.61024     1 3d0   0.49322     1 3d2-  0.49566     1 3d1+ -0.46807     2 3d0   0.49070     2 3d2-  0.50613
                                    2 3d1+ -0.47096
   35.1     0.00000     2.66720     1 2py  -0.34690     1 3d2- -0.27762     1 3d2+ -0.54004     1 3d1-  0.55780     2 2py   0.34734
                                    2 3d2- -0.27574     2 3d2+ -0.54008     2 3d1-  0.55991     4 1s   -0.40378     5 1s   -0.40508
   36.1     0.00000     2.97703     1 1s   -1.75693     1 2px  -0.45861     1 2px  -0.86913     1 2pz   0.45812     1 3d2-  0.34649
                                    1 3d1+  0.71480     1 3d2+ -0.65403     2 1s    1.75680     2 2px  -0.45869     2 2px  -0.86909
                                    2 2pz   0.45802     2 3d2- -0.34590     2 3d1+ -0.71513     2 3d2+  0.65382


 HOMO      8.1    -0.391956 =     -10.6657eV
 LUMO      9.1     0.053520 =       1.4563eV
 LUMO-HOMO         0.445476 =      12.1220eV


 **********************************************************************************************************************************
 DATASETS  * FILE   NREC   LENGTH (MB)   RECORD NAMES
              1      19       31.12       500      610      700      900      950      970     1000      129      960     1100   
                                          VAR    BASINP    GEOM    SYMINP    ZMAT    AOBASIS   BASIS     P2S    ABASIS      S 
                                         1400     1410     1200     1210     1080     1600     1650     1300     1700   
                                           T        V       H0       H01     AOSYM     SMH    MOLCAS    ERIS     OPER   

              2       4        2.86       700     1000      520     2100   
                                         GEOM     BASIS   MCVARS     RHF  

 PROGRAMS   *        TOTAL    HF-SCF       INT
 CPU TIMES  *         0.40      0.11      0.18
 REAL TIME  *         0.82 SEC
 DISK USED  *        36.24 MB
 **********************************************************************************************************************************


 PROGRAM * MULTI (Direct Multiconfiguration SCF)       Authors: P.J. Knowles, H.-J. Werner (1984)


 Number of closed-shell orbitals:   7 (   7 )
 Number of active  orbitals:        2 (   2 )
 Number of external orbitals:      27 (  27 )

 State symmetry 1

 Number of electrons:     2    Spin symmetry=Singlet   Space symmetry=1
 Number of states:        3
 Number of CSFs:          3   (4 determinants, 4 intermediate states)

 Molecular orbitals read from record     2100.2  Type=RHF/CANONICAL (state 1.1)

 Wavefunction dump at record             2140.2

 Convergence thresholds  0.10E-01 (gradient)  0.10E-05 (energy)  0.10E-02 (step length)

 Weight factors for state symmetry  1:    0.33333   0.33333   0.33333

 Number of orbital rotations:      257   (    14 Core/Active    189 Core/Virtual   0 Active/Active     54 Active/Virtual)
 Total number of variables:        269

 Micro-Iterations solved by the two-step solver

 ITER. MIC  NCI  NEG     ENERGY(VAR)     ENERGY(PROJ)   ENERGY CHANGE     GRAD(0)  GRAD(ORB)   GRAD(CI)     STEP       TIME

   1    8    6    0     -77.63587368     -77.65680267   -0.02092899    0.16131289 0.00166173 0.00000000  0.17D+00      0.12
   2    5    4    0     -77.65626830     -77.65633446   -0.00006617    0.01227651 0.00002829 0.00000000  0.75D-02      0.20
   3    7    5    0     -77.65633465     -77.65633465   -0.00000000    0.00005036 0.00000000 0.00000000  0.58D-04      0.30
   4    2    3    0     -77.65633465     -77.65633465   -0.00000000    0.00000000 0.00000000 0.00000000  0.22D-08      0.35

 ** WVFN ****  CONVERGENCE REACHED, FINAL GRADIENT:  0.18D-12



 Results for state 1.1
 =====================

 !MCSCF STATE  1.1 Energy             -77.790094348091
 Nuclear energy                        31.32694414
 Kinetic energy                        77.40962260
 One electron energy                 -165.88906492
 Two electron energy                   56.77202643
 Virial ratio                           2.00491504

 !MCSCF STATE  1.1 Dipole moment        0.00138501    -0.00229904    -0.00047282
 Dipole moment /Debye                   0.00352010    -0.00584320    -0.00120171

 Results for state 2.1
 =====================

 !MCSCF STATE  2.1 Energy             -77.683267874016
 Nuclear energy                        31.32694414
 Kinetic energy                        77.47548608
 One electron energy                 -165.53033163
 Two electron energy                   56.52011961
 Virial ratio                           2.00268190

 !MCSCF STATE  2.1 Dipole moment        0.00255801    -0.00407852     0.00086075
 Dipole moment /Debye                   0.00650140    -0.01036589     0.00218767

 Results for state 3.1
 =====================

 !MCSCF STATE  3.1 Energy             -77.495641721916
 Nuclear energy                        31.32694414
 Kinetic energy                        77.51643713
 One electron energy                 -165.19328149
 Two electron energy                   56.37069563
 Virial ratio                           1.99973173

 !MCSCF STATE  3.1 Dipole moment        0.00589957    -0.00706612     0.00217672
 Dipole moment /Debye                   0.01499423    -0.01795912     0.00553230

 State-averaged charge density matrix saved on record  2140.2 (density set 1)

 !MCSCF expec         <1.1|DMX|1.1>     0.001385006008 au =     0.003520103571 Debye
 !MCSCF trans         <2.1|DMX|1.1>     0.004249196900 au =     0.010799673857 Debye
 !MCSCF expec         <2.1|DMX|2.1>     0.002558013490 au =     0.006501395927 Debye
 !MCSCF trans         <3.1|DMX|1.1>     0.000147850317 au =     0.000375773410 Debye
 !MCSCF trans         <3.1|DMX|2.1>     0.004479907072 au =     0.011386042216 Debye
 !MCSCF expec         <3.1|DMX|3.1>     0.005899571651 au =     0.014994233318 Debye

 !MCSCF expec         <1.1|DMY|1.1>    -0.002299043606 au =    -0.005843203248 Debye
 !MCSCF trans         <2.1|DMY|1.1>    -0.002416105665 au =    -0.006140725836 Debye
 !MCSCF expec         <2.1|DMY|2.1>    -0.004078521320 au =    -0.010365888216 Debye
 !MCSCF trans         <3.1|DMY|1.1>     0.000024984329 au =     0.000063499670 Debye
 !MCSCF trans         <3.1|DMY|2.1>    -0.002451408377 au =    -0.006230450504 Debye
 !MCSCF expec         <3.1|DMY|3.1>    -0.007066122462 au =    -0.017959115527 Debye

 !MCSCF expec         <1.1|DMZ|1.1>    -0.000472818699 au =    -0.001201706549 Debye
 !MCSCF trans         <2.1|DMZ|1.1>     0.000023752634 au =     0.000060369219 Debye
 !MCSCF expec         <2.1|DMZ|2.1>     0.000860751176 au =     0.002187667973 Debye
 !MCSCF trans         <3.1|DMZ|1.1>    -0.000129253266 au =    -0.000328507516 Debye
 !MCSCF trans         <3.1|DMZ|2.1>    -0.000089324833 au =    -0.000227026208 Debye
 !MCSCF expec         <3.1|DMZ|3.1>     0.002176717110 au =     0.005532300674 Debye


 NATURAL ORBITALS (state averaged)
 =================================

  Orbital  Occupation    Energy     Coefficients
    1.1     2.00000   -11.27771     1 1s    0.93230     2 1s    0.35127
    2.1     2.00000   -11.27646     1 1s    0.35140     2 1s   -0.93234
    3.1     2.00000    -1.05286     1 1s    0.27842     2 1s    0.27888
    4.1     2.00000    -0.74552     1 1s   -0.34058     2 1s    0.34013
    5.1     2.00000    -0.60215     1 2py   0.28296     2 2py   0.28891
    6.1     2.00000    -0.50564     1 2px   0.25710     2 2px  -0.25651
    7.1     2.00000    -0.42535     1 2pz   0.32240     1 2pz   0.27214     2 2pz   0.32308     2 2pz   0.27266
    8.1     1.00000    -0.09311     1 1s   -0.30403     1 2pz  -0.39197     1 2pz  -0.40082     2 1s   -0.30070     2 2pz   0.39271
                                    2 2pz   0.40229
    9.1     1.00000    -0.23930     1 2px   0.30209     2 2px  -0.30241     4 1s   -0.28876     5 1s   -0.28850
   10.1    -0.00000     0.19943     1 1s   -0.98870     1 2py  -0.29202     1 2pz   0.32408     2 1s    0.94548     2 2py  -0.28777
                                    2 2pz   0.29474     3 1s    1.04941     6 1s   -1.01097
   11.1    -0.00000     0.21933     1 1s   -1.00971     1 2px   0.49290     1 2py   0.31070     1 2pz   0.42041     2 1s   -1.06501
                                    2 2px  -0.49760     2 2py  -0.29465     2 2pz  -0.43738     3 1s    0.50145     4 1s    1.07654
                                    5 1s    1.07930     6 1s    0.55955
   12.1    -0.00000     0.28531     1 2py  -0.91841     1 2pz   0.31175     2 1s   -0.27430     2 2py   0.25168     2 2py   0.92822
                                    2 2pz  -0.32768     3 1s    1.02642     4 1s   -0.53063     5 1s   -0.52510     6 1s    1.07194
   13.1    -0.00000     0.32031     1 1s   -1.30937     1 2py   0.82299     1 2pz   0.40755     2 1s    1.30839     2 2py   0.82620
                                    2 2pz   0.40690     4 1s    1.76429     5 1s   -1.76589
   14.1    -0.00000     0.42806     1 1s    2.25790     1 2px   1.77178     1 2py  -0.37638     1 2pz  -0.84477     2 1s   -2.25397
                                    2 2px   1.77513     2 2py  -0.38247     2 2pz  -0.84242     3 1s    0.27954     6 1s   -0.28585
   15.1    -0.00000     0.68832     1 2px   0.51460     1 2px  -0.83554     2 2px  -0.51580     2 2px   0.83475     4 1s   -0.27061
                                    4 1s    0.49666     5 1s   -0.26941     5 1s    0.49694
   16.1    -0.00000     0.78880     1 1s    0.71028     1 2pz   0.62079     1 2py  -0.42237     1 2pz  -0.77278     2 1s   -0.70735
                                    2 2pz   0.65622     2 2py  -0.54517     2 2pz  -0.82752     4 1s   -0.25275     5 1s    0.28248
   17.1    -0.00000     0.79236     1 2py   0.53908     1 2pz   0.41417     1 2py  -1.08756     1 2pz  -0.63111     2 2py  -0.53662
                                    2 2pz  -0.32629     2 2py   1.06671     2 2pz   0.53755     4 1s   -0.27057     5 1s   -0.25176
   18.1    -0.00000     0.82291     1 1s   -0.94835     1 2py  -0.38909     1 2pz   0.33265     1 2px  -0.61241     1 2py   0.71642
                                    2 1s    0.94714     2 2py  -0.37031     2 2pz   0.38180     2 2px  -0.63270     2 2py   0.69649
                                    3 1s   -0.47662     6 1s    0.47264
   19.1    -0.00000     0.86307     1 1s   -0.34262     1 1s    0.26388     1 2px  -0.34187     1 2py   0.31200     1 2pz  -0.60471
                                    1 2px   0.53426     1 2py  -0.72475     1 2pz   0.80134     2 1s   -0.33803     2 2px   0.33156
                                    2 2py  -0.28650     2 2pz   0.59108     2 2px  -0.49308     2 2py   0.67312     2 2pz  -0.80926
                                    3 1s    0.42424     6 1s    0.41276
   20.1    -0.00000     0.97517     1 1s    0.31221     1 1s   -0.38250     1 2px   0.55328     1 2py   0.46368     1 2px  -0.82084
                                    1 2py  -0.94370     2 1s   -0.28994     2 1s    0.35391     2 2px   0.55174     2 2py   0.46772
                                    2 2px  -0.81988     2 2py  -0.95461     3 1s   -0.33861     3 1s    0.54088     4 1s   -1.01564
                                    5 1s    1.02575     6 1s    0.32635     6 1s   -0.52692
   21.1    -0.00000     1.02176     1 1s   -0.34851     1 1s    0.34418     1 2px   0.65095     1 2py  -0.25958     1 2px  -1.08971
                                    1 2py   0.35021     2 2px   0.62913     2 2py  -0.25608     2 2px  -1.06472     2 2py   0.37066
                                    3 1s    0.57916     3 1s   -1.18163     4 1s   -0.33284     5 1s    0.27922     6 1s   -0.46497
                                    6 1s    1.03840
   22.1    -0.00000     1.04073     1 1s   -0.76341     1 1s    1.16791     2 1s   -0.80621     2 1s    1.18074     2 2px   0.28692
                                    3 1s    0.67423     3 1s   -0.84412     4 1s   -0.32711     5 1s   -0.34231     6 1s    0.76086
                                    6 1s   -1.03408
   23.1    -0.00000     1.11010     1 1s   -0.29896     1 1s    0.62165     1 2px   0.26859     1 2py   0.45247     1 2px  -0.27200
                                    1 2py  -0.47105     2 1s   -0.30273     2 1s    0.64659     2 2px  -0.26469     2 2py  -0.45599
                                    2 2px   0.25459     2 2py   0.48173     3 1s    0.29781     4 1s    0.71735     4 1s   -1.04447
                                    5 1s    0.71247     5 1s   -1.04441     6 1s    0.30625
   24.1    -0.00000     1.14562     1 1s   -0.39150     1 1s    0.44323     1 2py   0.44962     1 2px  -0.26669     1 2py  -0.47640
                                    2 1s    0.40116     2 1s   -0.45782     2 2py   0.44855     2 2px  -0.27123     2 2py  -0.47594
                                    4 1s    0.78342     4 1s   -1.16723     5 1s   -0.78604     5 1s    1.17364
   25.1    -0.00000     1.24592     1 1s   -1.17837     1 1s    1.78455     1 2px  -0.52592     1 2py   0.45125     1 2pz  -0.90604
                                    2 1s   -1.19886     2 1s    1.87277     2 2px   0.50522     2 2py  -0.44869     2 2pz   0.92784
                                    3 1s   -0.49922     3 1s   -0.42719     4 1s   -0.55187     5 1s   -0.55457     6 1s   -0.49562
                                    6 1s   -0.44994
   26.1    -0.00000     1.30715     1 1s   -1.53562     1 1s    5.04021     1 2px   1.43183     1 2py  -0.82323     1 2pz  -1.23218
                                    2 1s    1.52513     2 1s   -5.02695     2 2px   1.43864     2 2py  -0.82739     2 2pz  -1.22278
                                    3 1s   -0.25793     4 1s   -0.27374     4 1s   -0.63756     5 1s    0.27478     5 1s    0.62887
   27.1    -0.00000     1.68622     1 1s   -0.65531     1 3d0  -0.35430     1 3d2-  0.30311     1 3d2+  0.31367     2 1s    0.65749
                                    2 3d0   0.35455     2 3d2- -0.30279     2 3d2+ -0.31345
   28.1    -0.00000     1.86112     1 1s    0.43609     1 1s   -1.56455     1 2px  -0.34356     1 2pz   0.41429     1 3d2-  0.38348
                                    1 3d1+ -0.33582     2 1s   -0.41253     2 1s    1.52481     2 2px  -0.36139     2 2pz   0.39029
                                    2 3d2- -0.37845     2 3d1+  0.37266     2 3d1-  0.28264     3 1s    0.35352     6 1s   -0.33537
   29.1    -0.00000     1.88411     1 1s   -0.31921     1 3d0   0.33780     1 3d1+  0.33578     1 3d2+  0.37068     1 3d1-  0.35452
                                    2 1s    0.27038     2 1s   -0.52570     2 2pz  -0.27504     2 3d0   0.35964     2 3d1+  0.29043
                                    2 3d2+  0.35429     2 3d1-  0.31745
   30.1    -0.00000     2.12688     1 1s   -0.25033     1 1s    0.95888     1 2pz  -0.25627     1 3d0  -0.46292     1 3d2+ -0.38267
                                    1 3d1- -0.27570     2 1s    0.26241     2 1s   -0.97765     2 2pz  -0.26576     2 3d0   0.47111
                                    2 3d2+  0.38374     2 3d1-  0.27199
   31.1    -0.00000     2.27209     1 1s    0.52658     1 1s   -0.40656     1 2px   0.28945     1 2px  -0.32169     1 2py   0.25331
                                    1 3d1+  0.41991     1 3d2+ -0.38240     2 1s    0.52082     2 1s   -0.37768     2 2px  -0.28964
                                    2 2px   0.31338     2 3d1+  0.41807     2 3d2+ -0.38708
   32.1    -0.00000     2.30699     1 2py  -0.26358     1 3d0  -0.38636     1 3d2-  0.54193     1 3d1-  0.30693     2 2py   0.25313
                                    2 3d0  -0.37395     2 3d2-  0.54121     2 3d1-  0.30016     4 1s   -0.47660     5 1s   -0.46446
   33.1    -0.00000     2.47460     1 1s   -1.09051     1 2px  -0.36738     1 2py   0.39639     1 2pz   0.31151     1 3d0   0.26484
                                    1 3d2- -0.36684     1 3d1- -0.58895     2 1s    1.08617     2 2px  -0.37464     2 2py   0.40748
                                    2 2pz   0.30293     2 3d0  -0.28104     2 3d2-  0.36646     2 3d1-  0.59734     4 1s    0.51743
                                    5 1s   -0.52310
   34.1    -0.00000     2.61195     1 3d0   0.47970     1 3d2-  0.51224     1 3d1+ -0.45534     2 3d0   0.47779     2 3d2-  0.52186
                                    2 3d1+ -0.45769
   35.1    -0.00000     2.65941     1 2py  -0.33782     1 3d2+ -0.53513     1 3d1-  0.55038     2 2py   0.33857     2 3d2+ -0.53531
                                    2 3d1-  0.55346     4 1s   -0.38962     5 1s   -0.39153
   36.1    -0.00000     2.97126     1 1s   -1.78820     1 2px  -0.45231     1 2px  -0.88150     1 2pz   0.46659     1 3d2-  0.34449
                                    1 3d1+  0.71768     1 3d2+ -0.65154     2 1s    1.78808     2 2px  -0.45240     2 2px  -0.88146
                                    2 2pz   0.46651     2 3d2- -0.34386     2 3d1+ -0.71809     2 3d2+  0.65130


 Natural orbital dump (state averaged) at molpro section  2140.2    (Orbital set 2)



 **********************************************************************************************************************************
 DATASETS  * FILE   NREC   LENGTH (MB)   RECORD NAMES
              1      20       31.85       500      610      700      900      950      970     1000      129      960     1100   
                                          VAR    BASINP    GEOM    SYMINP    ZMAT    AOBASIS   BASIS     P2S    ABASIS      S 
                                         1400     1410     1200     1210     1080     1600     1650     1300     1700     1380   
                                           T        V       H0       H01     AOSYM     SMH    MOLCAS    ERIS     OPER     JKOP   

              2       5        5.42       700     1000      520     2100     2140   
                                         GEOM     BASIS   MCVARS     RHF     MCSCF   

 PROGRAMS   *        TOTAL     MULTI    HF-SCF       INT
 CPU TIMES  *         0.80      0.40      0.11      0.18
 REAL TIME  *         1.42 SEC
 DISK USED  *        39.04 MB
 **********************************************************************************************************************************
 Molecular orbitals read from record     2140.2  Type=MCSCF/NATURAL (state averaged)
 Occupation numbers read from record     2140.2  Type=MCSCF/NATURAL (state averaged)
 Orbital energies read from record       2140.2  Type=MCSCF/NATURAL (state averaged)
 Redundancy group numbers read from rec  2140.2  Type=MCSCF/NATURAL (state averaged)

 MULTI/6-31G* energy=    -77.495641721916

           MULTI          HF-SCF
    -77.49564172    -77.79641200
 **********************************************************************************************************************************
 Molpro calculation terminated
