
 Primary working directories    : /scratch.local/johan406.molpro_temp/molpro.BV9TcCt0gs
 Secondary working directories  : /scratch.local/johan406.molpro_temp/molpro.BV9TcCt0gs
 Wavefunction directory         : /home/goodpast/johan406/wfu/
 Main file repository           : /scratch.local/johan406.molpro_temp/molpro.BV9TcCt0gs/

 id        : roweumn

 Nodes     nprocs
 acn09        1

 Using customized tuning parameters: mindgm=1; mindgv=20; mindgc=4; mindgr=1; noblas=0; minvec=7
 default implementation of scratch files=df  


 Variables initialized (934), CPU time= 0.00 sec
                                                                                 !leave this line blank
 
 gprint, orbitals=30
 memory, 125., m
 symmetry, nosym
 nelect=16
 basis=6-31g*
 
 geometry={
 C -0.6132 0.1244 0.3053
 C 0.6254 -0.1743 -0.3657
 H -1.4066 1.0657 -0.2479
 H -0.9489 -0.8562 -0.1308
 H 0.9611 0.8063 0.0704
 H 1.4088 -1.109 0.1841
 }
 
 hf
 {multi,
 closed 7
 occ 9
 wf,spin=0;STATE,3
 }
 
 Commands  initialized (763), CPU time= 0.01 sec, 617 directives.
 Default parameters read. Elapsed time= 0.09 sec

 Checking input...
 Passed
1


                                         ***  PROGRAM SYSTEM MOLPRO  ***
                                       Copyright, TTI GmbH Stuttgart, 2015
                                    Version 2019.2 linked Oct 25 2019 22:50:27


 **********************************************************************************************************************************
 LABEL *                                                                                 
  64 bit serial version                                                                  DATE: 07-Feb-23          TIME: 16:07:09  
 **********************************************************************************************************************************

 SHA1:             8dbd9ae1082e4ce945b0f27595c9eb2d4aa09004
 **********************************************************************************************************************************


 Variable memory set to  125000000 words,  buffer space 

 SETTING NELECT         =        16.00000000                                  
 SETTING BASIS          =    6-31G*
 ZSYMEL=NOSYM


Geometry recognized as XYZ



 Recomputing integrals since basis changed


 Using spherical harmonics

 Library entry C      S 6-31G                selected for orbital group  1
 Library entry C      P 6-31G                selected for orbital group  1
 Library entry C      D 6-31G*               selected for orbital group  1
 Library entry H      S 6-31G                selected for orbital group  2


 PROGRAM * SEWARD (Integral evaluation for generally contracted gaussian basis sets)     Author: Roland Lindh, 1990

 Geometry written to block  1 of record 700


 Point group  C1  



 ATOMIC COORDINATES

 NR  ATOM    CHARGE       X              Y              Z

   1  C       6.00   -1.158780060    0.235081930    0.576933386
   2  C       6.00    1.181834718   -0.329379264   -0.691072844
   3  H       1.00   -2.658088767    2.013881131   -0.468463106
   4  H       1.00   -1.793161120   -1.617983508   -0.247176177
   5  H       1.00    1.816215778    1.523686174    0.133036719
   6  H       1.00    2.662246164   -2.095706272    0.347898580

 Bond lengths in Bohr (Angstrom)

 1-2  2.721200797  1-3  2.550471922  1-4  2.124958215  2-5  2.124958215  2-6  2.528040895
     ( 1.439997448)     ( 1.349651618)     ( 1.124479462)     ( 1.124479462)     ( 1.337781630)

 Bond angles

  1-2-5   83.98317647   1-2-6  117.20146831   2-1-3  117.34284805   2-1-4   83.98317647

  3-1-4  105.88697408   5-2-6  105.96704413

 NUCLEAR CHARGE:                   16
 NUMBER OF PRIMITIVE AOS:          72
 NUMBER OF SYMMETRY AOS:           70
 NUMBER OF CONTRACTIONS:           36   (   36A   )
 NUMBER OF CORE ORBITALS:           2   (    2A   )
 NUMBER OF VALENCE ORBITALS:       12   (   12A   )


 NUCLEAR REPULSION ENERGY   31.27397229

 Eigenvalues of metric

         1 0.887E-02 0.401E-01 0.595E-01 0.906E-01 0.103E+00 0.230E+00 0.236E+00 0.268E+00


 Contracted 2-electron integrals neglected if value below      1.0D-11
 AO integral compression algorithm  1   Integral accuracy      1.0D-11

     1.573 MB (compressed) written to integral file ( 58.3%)


 NUMBER OF SORTED TWO-ELECTRON INTEGRALS:     222111.     BUFFER LENGTH:  32768
 NUMBER OF SEGMENTS:   1  SEGMENT LENGTH:     222111      RECORD LENGTH: 524288

 Memory used in sort:       0.78 MW

 SORT1 READ      284735. AND WROTE      212525. INTEGRALS IN      1 RECORDS. CPU TIME:     0.00 SEC, REAL TIME:     0.01 SEC
 SORT2 READ      212525. AND WROTE      222111. INTEGRALS IN      6 RECORDS. CPU TIME:     0.03 SEC, REAL TIME:     0.02 SEC

 FILE SIZES:   FILE 1:    31.7 MBYTE,  FILE 4:     4.2 MBYTE,   TOTAL:     35.9 MBYTE

 OPERATOR DM      FOR CENTER  0  COORDINATES:    0.000000    0.000000    0.000000


 **********************************************************************************************************************************
 DATASETS  * FILE   NREC   LENGTH (MB)   RECORD NAMES
              1      19       31.12       500      610      700      900      950      970     1000      129      960     1100   
                                          VAR    BASINP    GEOM    SYMINP    ZMAT    AOBASIS   BASIS     P2S    ABASIS      S 
                                         1400     1410     1200     1210     1080     1600     1650     1300     1700   
                                           T        V       H0       H01     AOSYM     SMH    MOLCAS    ERIS     OPER   

 PROGRAMS   *        TOTAL       INT
 CPU TIMES  *         0.31      0.19
 REAL TIME  *         0.51 SEC
 DISK USED  *        36.24 MB
 **********************************************************************************************************************************


 PROGRAM * RHF-SCF (CLOSED SHELL)       Authors: W. Meyer, H.-J. Werner


 NUMBER OF ELECTRONS:       8+    8-    SPACE SYMMETRY=1    SPIN SYMMETRY: Singlet 
 CONVERGENCE THRESHOLDS:    1.00E-05 (Density)    1.00E-07 (Energy)
 MAX. NUMBER OF ITERATIONS:       60
 INTERPOLATION TYPE:            DIIS
 INTERPOLATION STEPS:              2 (START)      1 (STEP)
 LEVEL SHIFTS:                  0.00 (CLOSED)  0.00 (OPEN) 



 Orbital guess generated from atomic densities. Full valence occupancy:    8

 Molecular orbital dump at record        2100.2

 Initial occupancy:   8

 ITERATION    DDIFF          GRAD             ENERGY        2-EL.EN.            DIPOLE MOMENTS         DIIS   ORB.
    1      0.000D+00      0.000D+00       -77.77022317    114.086304   -0.00625    0.00344    0.00154    0    start
    2      0.000D+00      0.691D-02       -77.78829004    112.836920    0.00119   -0.00247   -0.00216    1    diag
    3      0.699D-02      0.247D-02       -77.79049180    113.353789   -0.00041   -0.00170    0.00111    2    diag
    4      0.313D-02      0.877D-03       -77.79098257    113.195294    0.00212   -0.00331   -0.00144    3    diag
    5      0.167D-02      0.268D-03       -77.79108720    113.203501    0.00073   -0.00250    0.00145    4    diag
    6      0.897D-03      0.124D-03       -77.79111537    113.205138    0.00350   -0.00405   -0.00322    5    diag
    7      0.366D-03      0.821D-04       -77.79112693    113.206209    0.00160   -0.00294    0.00007    6    diag
    8      0.281D-03      0.282D-04       -77.79112874    113.207277    0.00191   -0.00312   -0.00051    7    diag
    9      0.135D-03      0.617D-05       -77.79112880    113.207309    0.00188   -0.00310   -0.00049    8    diag
   10      0.286D-04      0.116D-05       -77.79112881    113.207313    0.00188   -0.00310   -0.00049    9    orth
   11      0.315D-05      0.354D-06       -77.79112881    113.207311    0.00188   -0.00310   -0.00049    0    orth

 Final occupancy:   8

 !RHF STATE  1.1 Energy               -77.791128806633
 Nuclear energy                        31.27397229
 One-electron energy                 -165.66875637
 Two-electron energy                   56.60365527
 Virial quotient                       -1.00600738
 !RHF STATE  1.1 Dipole moment          0.00187989    -0.00310481    -0.00048564
 Dipole moment /Debye                   0.00477789    -0.00789113    -0.00123430

 ELECTRON ORBITALS
 =================

  Orbital  Occupation    Energy     Coefficients
    1.1     2.00000   -11.28128     1 1s    0.91407     2 1s    0.39635
    2.1     2.00000   -11.28002     1 1s    0.39653     2 1s   -0.91415
    3.1     2.00000    -1.03576     1 1s    0.28257     2 1s    0.28321
    4.1     2.00000    -0.73859     1 1s   -0.31963     2 1s    0.31901
    5.1     2.00000    -0.59856     1 2py   0.29012     2 2py   0.29572
    6.1     2.00000    -0.50641     1 2px   0.31349     2 2px  -0.31308
    7.1     2.00000    -0.39792     1 2pz   0.30497     1 2pz   0.27446     2 2pz   0.30902     2 2pz   0.27739
    8.1     2.00000    -0.39218     1 2py   0.25015     4 1s   -0.27661     5 1s   -0.27698
    9.1     0.00000     0.05260     1 1s   -0.44508     1 2pz  -0.31103     1 2pz  -0.40822     2 1s   -0.43750     2 2pz   0.31235
                                    2 2pz   0.41135     3 1s    0.27434     6 1s    0.26534
   10.1     0.00000     0.19697     1 1s   -0.92541     1 2py  -0.30484     1 2pz   0.31734     2 1s    0.91048     2 2py  -0.29466
                                    2 2pz   0.29100     3 1s    1.02579     6 1s   -1.00173
   11.1     0.00000     0.23336     1 1s   -0.98061     1 2px   0.50417     1 2py   0.26851     1 2pz   0.50719     2 1s   -1.01785
                                    2 2px  -0.50675     2 2py  -0.25795     2 2pz  -0.51870     3 1s    0.54406     4 1s    1.03994
                                    5 1s    1.04100     6 1s    0.58288
   12.1     0.00000     0.28430     1 2py  -0.92340     1 2pz   0.32431     2 2py   0.93501     2 2pz  -0.33941     3 1s    0.95641
                                    4 1s   -0.61154     5 1s   -0.61062     6 1s    1.00127
   13.1     0.00000     0.33881     1 1s   -1.17634     1 2py   0.78355     1 2pz   0.36041     2 1s    1.17615     2 2py   0.78405
                                    2 2pz   0.36024     4 1s    1.75772     5 1s   -1.75763
   14.1     0.00000     0.42285     1 1s    2.42780     1 2px   1.76570     1 2py  -0.47186     1 2pz  -0.91499     2 1s   -2.42379
                                    2 2px   1.76917     2 2py  -0.47798     2 2pz  -0.91249     3 1s    0.26346     6 1s   -0.26969
   15.1     0.00000     0.69352     1 2px   0.52862     1 2px  -0.85058     2 2px  -0.52997     2 2px   0.84972     4 1s    0.44856
                                    5 1s    0.44866
   16.1     0.00000     0.79146     1 1s    0.39662     1 2pz   0.66086     1 2py  -0.35675     1 2pz  -0.71341     2 1s   -0.39130
                                    2 2pz   0.68556     2 2py  -0.44206     2 2pz  -0.74640     5 1s    0.25511
   17.1     0.00000     0.79476     1 2py   0.56005     1 2pz   0.41642     1 2py  -1.08825     1 2pz  -0.55957     2 2py  -0.56433
                                    2 2pz  -0.35283     2 2py   1.08850     2 2pz   0.50264     4 1s   -0.26527     5 1s   -0.25674
   18.1     0.00000     0.82939     1 1s   -1.01853     1 2py  -0.40924     1 2pz   0.26520     1 2px  -0.60070     1 2py   0.74255
                                    2 1s    1.02498     2 2py  -0.39467     2 2pz   0.31984     2 2px  -0.62399     2 2py   0.73350
                                    3 1s   -0.50090     6 1s    0.49749
   19.1     0.00000     0.86691     1 1s   -0.37155     1 1s    0.30928     1 2px  -0.33699     1 2py   0.32397     1 2pz  -0.62518
                                    1 2px   0.51202     1 2py  -0.73659     1 2pz   0.75333     2 1s   -0.36599     2 2px   0.32447
                                    2 2py  -0.29324     2 2pz   0.61099     2 2px  -0.46732     2 2py   0.67645     2 2pz  -0.76273
                                    3 1s    0.41286     6 1s    0.40160
   20.1     0.00000     0.97074     1 1s    0.31615     1 1s   -0.44537     1 2px   0.56217     1 2py   0.45921     1 2px  -0.89277
                                    1 2py  -0.93335     2 1s   -0.29270     2 1s    0.41568     2 2px   0.56030     2 2py   0.46399
                                    2 2px  -0.89138     2 2py  -0.94599     3 1s   -0.32094     3 1s    0.50896     4 1s   -1.05184
                                    5 1s    1.06251     6 1s    0.30748     6 1s   -0.49429
   21.1     0.00000     1.01190     1 1s   -0.34889     1 1s    0.34558     1 2px   0.62910     1 2py  -0.27403     1 2px  -1.06911
                                    1 2py   0.36115     2 2px   0.61179     2 2py  -0.27142     2 2px  -1.04823     2 2py   0.38491
                                    3 1s    0.58601     3 1s   -1.18476     4 1s   -0.32173     5 1s    0.27493     6 1s   -0.47147
                                    6 1s    1.04292
   22.1     0.00000     1.03161     1 1s   -0.74130     1 1s    1.11675     2 1s   -0.78533     2 1s    1.13163     2 2px   0.25992
                                    3 1s    0.69087     3 1s   -0.86321     4 1s   -0.25747     5 1s   -0.27078     6 1s    0.77722
                                    6 1s   -1.05229
   23.1     0.00000     1.13924     1 1s   -0.35588     1 1s    0.71185     1 2px   0.27066     1 2py   0.42034     1 2px  -0.27227
                                    1 2py  -0.43815     2 1s   -0.36288     2 1s    0.74208     2 2px  -0.26882     2 2py  -0.42298
                                    2 2px   0.25838     2 2py   0.44745     4 1s    0.72858     4 1s   -1.07611     5 1s    0.72490
                                    5 1s   -1.07862
   24.1     0.00000     1.18714     1 1s   -0.37849     1 1s    0.39413     1 2py   0.43124     1 2px  -0.26925     1 2py  -0.44586
                                    2 1s    0.39022     2 1s   -0.41156     2 2py   0.42866     2 2pz   0.25037     2 2px  -0.27457
                                    2 2py  -0.44302     4 1s    0.78706     4 1s   -1.13924     5 1s   -0.78715     5 1s    1.14492
   25.1     0.00000     1.25079     1 1s   -1.17016     1 1s    1.75833     1 2px  -0.52032     1 2py   0.43110     1 2pz  -0.91480
                                    2 1s   -1.18571     2 1s    1.83436     2 2px   0.50203     2 2py  -0.43155     2 2pz   0.93381
                                    3 1s   -0.49941     3 1s   -0.40526     4 1s   -0.54702     5 1s   -0.54479     6 1s   -0.49580
                                    6 1s   -0.42756
   26.1     0.00000     1.31667     1 1s   -1.52966     1 1s    5.03466     1 2px   1.41578     1 2py  -0.84804     1 2pz  -1.24593
                                    2 1s    1.52136     2 1s   -5.02483     2 2px   1.42170     2 2py  -0.85080     2 2pz  -1.23855
                                    3 1s   -0.26161     4 1s   -0.27042     4 1s   -0.66682     5 1s    0.27267     5 1s    0.65851
                                    6 1s    0.25219
   27.1     0.00000     1.69287     1 1s   -0.61359     1 3d0  -0.36362     1 3d2-  0.29458     1 3d2+  0.31139     2 1s    0.61557
                                    2 3d0   0.36382     2 3d2- -0.29436     2 3d2+ -0.31125
   28.1     0.00000     1.85984     1 1s    0.44520     1 1s   -1.59766     1 2px  -0.35801     1 2pz   0.42421     1 3d2-  0.39478
                                    1 3d1+ -0.32695     2 1s   -0.42533     2 1s    1.56480     2 2px  -0.37318     2 2pz   0.40419
                                    2 3d2- -0.38887     2 3d1+  0.36049     2 3d1-  0.27549     3 1s    0.34812     6 1s   -0.33317
   29.1     0.00000     1.88680     1 1s   -0.31503     1 3d0   0.34061     1 3d1+  0.33396     1 3d2+  0.36584     1 3d1-  0.35462
                                    2 1s    0.26768     2 1s   -0.51192     2 2pz  -0.26957     2 3d0   0.36087     2 3d1+  0.29323
                                    2 3d2+  0.35155     2 3d1-  0.32075
   30.1     0.00000     2.12628     1 1s    0.90627     1 3d0  -0.45149     1 3d2+ -0.38367     1 3d1- -0.28536     2 1s   -0.92588
                                    2 2pz  -0.25504     2 3d0   0.45963     2 3d2+  0.38455     2 3d1-  0.28180
   31.1     0.00000     2.27530     1 1s    0.53239     1 1s   -0.42963     1 2px   0.28463     1 2px  -0.32307     1 2py   0.28286
                                    1 3d0   0.26720     1 3d1+  0.40818     1 3d2+ -0.36605     1 3d1- -0.28808     2 1s    0.52509
                                    2 1s   -0.39302     2 2px  -0.28509     2 2px   0.31256     2 2py  -0.27560     2 3d0   0.25785
                                    2 3d1+  0.40571     2 3d2+ -0.37169     2 3d1- -0.28538
   32.1     0.00000     2.31938     1 3d0  -0.36102     1 3d2-  0.55492     1 3d1-  0.26562     2 3d0  -0.34995     2 3d2-  0.55424
                                    2 3d1-  0.25925     4 1s   -0.48460     5 1s   -0.47329
   33.1     0.00000     2.48006     1 1s   -1.14106     1 2px  -0.38397     1 2py   0.39870     1 2pz   0.32544     1 3d0   0.27254
                                    1 3d2- -0.35914     1 3d1- -0.58658     2 1s    1.13639     2 2px  -0.39134     2 2py   0.40974
                                    2 2pz   0.31657     2 3d0  -0.28924     2 3d2-  0.35818     2 3d1-  0.59483     4 1s    0.53272
                                    5 1s   -0.53834
   34.1     0.00000     2.60776     1 3d0   0.50125     1 3d2-  0.48628     1 3d1+ -0.46883     2 3d0   0.49875     2 3d2-  0.49633
                                    2 3d1+ -0.47164
   35.1     0.00000     2.66797     1 2py  -0.34860     1 3d2- -0.28612     1 3d2+ -0.53969     1 3d1-  0.55873     2 2py   0.34896
                                    2 3d2- -0.28439     2 3d2+ -0.53971     2 3d1-  0.56067     4 1s   -0.40393     5 1s   -0.40514
   36.1     0.00000     2.97790     1 1s   -1.75852     1 2px  -0.46033     1 2px  -0.86883     1 2pz   0.45908     1 3d2-  0.34579
                                    1 3d1+  0.71627     1 3d2+ -0.65460     2 1s    1.75841     2 2px  -0.46041     2 2px  -0.86877
                                    2 2pz   0.45899     2 3d2- -0.34525     2 3d1+ -0.71655     2 3d2+  0.65438


 HOMO      8.1    -0.392181 =     -10.6718eV
 LUMO      9.1     0.052605 =       1.4314eV
 LUMO-HOMO         0.444785 =      12.1032eV


 **********************************************************************************************************************************
 DATASETS  * FILE   NREC   LENGTH (MB)   RECORD NAMES
              1      19       31.12       500      610      700      900      950      970     1000      129      960     1100   
                                          VAR    BASINP    GEOM    SYMINP    ZMAT    AOBASIS   BASIS     P2S    ABASIS      S 
                                         1400     1410     1200     1210     1080     1600     1650     1300     1700   
                                           T        V       H0       H01     AOSYM     SMH    MOLCAS    ERIS     OPER   

              2       4        2.86       700     1000      520     2100   
                                         GEOM     BASIS   MCVARS     RHF  

 PROGRAMS   *        TOTAL    HF-SCF       INT
 CPU TIMES  *         0.42      0.11      0.19
 REAL TIME  *         0.67 SEC
 DISK USED  *        36.24 MB
 **********************************************************************************************************************************


 PROGRAM * MULTI (Direct Multiconfiguration SCF)       Authors: P.J. Knowles, H.-J. Werner (1984)


 Number of closed-shell orbitals:   7 (   7 )
 Number of active  orbitals:        2 (   2 )
 Number of external orbitals:      27 (  27 )

 State symmetry 1

 Number of electrons:     2    Spin symmetry=Singlet   Space symmetry=1
 Number of states:        3
 Number of CSFs:          3   (4 determinants, 4 intermediate states)

 Molecular orbitals read from record     2100.2  Type=RHF/CANONICAL (state 1.1)

 Wavefunction dump at record             2140.2

 Convergence thresholds  0.10E-01 (gradient)  0.10E-05 (energy)  0.10E-02 (step length)

 Weight factors for state symmetry  1:    0.33333   0.33333   0.33333

 Number of orbital rotations:      257   (    14 Core/Active    189 Core/Virtual   0 Active/Active     54 Active/Virtual)
 Total number of variables:        269

 Micro-Iterations solved by the two-step solver

 ITER. MIC  NCI  NEG     ENERGY(VAR)     ENERGY(PROJ)   ENERGY CHANGE     GRAD(0)  GRAD(ORB)   GRAD(CI)     STEP       TIME

   1    8    6    0     -77.63044374     -77.65148237   -0.02103863    0.16040246 0.00156579 0.00000000  0.18D+00      0.12
   2    6    5    0     -77.65091651     -77.65099139   -0.00007488    0.01313134 0.00003312 0.00000000  0.78D-02      0.21
   3    8    5    0     -77.65099161     -77.65099161   -0.00000000    0.00005780 0.00000000 0.00000000  0.64D-04      0.31
   4    2    3    0     -77.65099161     -77.65099161    0.00000000    0.00000000 0.00000000 0.00000000  0.28D-08      0.37

 ** WVFN ****  CONVERGENCE REACHED, FINAL GRADIENT:  0.20D-12



 Results for state 1.1
 =====================

 !MCSCF STATE  1.1 Energy             -77.784821631751
 Nuclear energy                        31.27397229
 Kinetic energy                        77.39296975
 One electron energy                 -165.77988158
 Two electron energy                   56.72108766
 Virial ratio                           2.00506315

 !MCSCF STATE  1.1 Dipole moment        0.00157676    -0.00251881    -0.00047074
 Dipole moment /Debye                   0.00400746    -0.00640177    -0.00119642

 Results for state 2.1
 =====================

 !MCSCF STATE  2.1 Energy             -77.677820012606
 Nuclear energy                        31.27397229
 Kinetic energy                        77.45871252
 One electron energy                 -165.41898056
 Two electron energy                   56.46718826
 Virial ratio                           2.00282870

 !MCSCF STATE  2.1 Dipole moment        0.00286853    -0.00448271     0.00096132
 Dipole moment /Debye                   0.00729061    -0.01139317     0.00244327

 Results for state 3.1
 =====================

 !MCSCF STATE  3.1 Energy             -77.490333174541
 Nuclear energy                        31.27397229
 Kinetic energy                        77.49839724
 One electron energy                 -165.07668836
 Two electron energy                   56.31238289
 Virial ratio                           1.99989595

 !MCSCF STATE  3.1 Dipole moment        0.00658932    -0.00781927     0.00240105
 Dipole moment /Debye                   0.01674728    -0.01987330     0.00610245

 State-averaged charge density matrix saved on record  2140.2 (density set 1)

 !MCSCF expec         <1.1|DMX|1.1>     0.001576758371 au =     0.004007457541 Debye
 !MCSCF trans         <2.1|DMX|1.1>     0.004715760638 au =     0.011985482923 Debye
 !MCSCF expec         <2.1|DMX|2.1>     0.002868534477 au =     0.007290609857 Debye
 !MCSCF trans         <3.1|DMX|1.1>     0.000167122085 au =     0.000424754149 Debye
 !MCSCF trans         <3.1|DMX|2.1>     0.004970949696 au =     0.012634066328 Debye
 !MCSCF expec         <3.1|DMX|3.1>     0.006589317289 au =     0.016747277035 Debye

 !MCSCF expec         <1.1|DMY|1.1>    -0.002518814447 au =    -0.006401768423 Debye
 !MCSCF trans         <2.1|DMY|1.1>    -0.002718945331 au =    -0.006910417074 Debye
 !MCSCF expec         <2.1|DMY|2.1>    -0.004482712747 au =    -0.011393173065 Debye
 !MCSCF trans         <3.1|DMY|1.1>     0.000023497355 au =     0.000059720408 Debye
 !MCSCF trans         <3.1|DMY|2.1>    -0.002760037958 au =    -0.007014857272 Debye
 !MCSCF expec         <3.1|DMY|3.1>    -0.007819269404 au =    -0.019873298733 Debye

 !MCSCF expec         <1.1|DMZ|1.1>    -0.000470738437 au =    -0.001196419397 Debye
 !MCSCF trans         <2.1|DMZ|1.1>     0.000077399408 au =     0.000196716788 Debye
 !MCSCF expec         <2.1|DMZ|2.1>     0.000961320415 au =     0.002443272740 Debye
 !MCSCF trans         <3.1|DMZ|1.1>    -0.000135963048 au =    -0.000345560963 Debye
 !MCSCF trans         <3.1|DMZ|2.1>    -0.000041131874 au =    -0.000104539947 Debye
 !MCSCF expec         <3.1|DMZ|3.1>     0.002401046707 au =     0.006102452290 Debye


 NATURAL ORBITALS (state averaged)
 =================================

  Orbital  Occupation    Energy     Coefficients
    1.1     2.00000   -11.27907     1 1s    0.93528     2 1s    0.34324
    2.1     2.00000   -11.27778     1 1s    0.34338     2 1s   -0.93533
    3.1     2.00000    -1.05349     1 1s    0.27862     2 1s    0.27906
    4.1     2.00000    -0.74446     1 1s   -0.33960     2 1s    0.33921
    5.1     2.00000    -0.60008     1 2py   0.28083     2 2py   0.28707
    6.1     2.00000    -0.50261     1 2px   0.25740     2 2px  -0.25683
    7.1     2.00000    -0.42572     1 2pz   0.32216     1 2pz   0.27150     2 2pz   0.32293     2 2pz   0.27207
    8.1     1.00000    -0.09373     1 1s   -0.30606     1 2pz  -0.39094     1 2pz  -0.39862     2 1s   -0.30249     2 2pz   0.39175
                                    2 2pz   0.40021
    9.1     1.00000    -0.23993     1 2px   0.30135     2 2px  -0.30169     4 1s   -0.28827     5 1s   -0.28799
   10.1    -0.00000     0.19388     1 1s   -0.95436     1 2py  -0.28985     1 2pz   0.31546     2 1s    0.91971     2 2py  -0.28324
                                    2 2pz   0.28886     3 1s    1.02625     6 1s   -0.99236
   11.1    -0.00000     0.21916     1 1s   -1.00867     1 2px   0.49446     1 2py   0.30074     1 2pz   0.42613     2 1s   -1.05666
                                    2 2px  -0.49867     2 2py  -0.28666     2 2pz  -0.44083     3 1s    0.50744     4 1s    1.07234
                                    5 1s    1.07451     6 1s    0.55819
   12.1    -0.00000     0.28330     1 2py  -0.25060     1 2py  -0.91511     1 2pz   0.30346     2 2py   0.25438     2 2py   0.92515
                                    2 2pz  -0.31943     3 1s    0.99672     4 1s   -0.54512     5 1s   -0.53977     6 1s    1.04249
   13.1    -0.00000     0.32030     1 1s   -1.31845     1 2py   0.82253     1 2pz   0.41038     2 1s    1.31760     2 2py   0.82571
                                    2 2pz   0.40981     4 1s    1.76719     5 1s   -1.76882
   14.1    -0.00000     0.42815     1 1s    2.27165     1 2px   1.77091     1 2py  -0.36944     1 2pz  -0.84975     2 1s   -2.26784
                                    2 2px   1.77438     2 2py  -0.37565     2 2pz  -0.84740     3 1s    0.26718     6 1s   -0.27340
   15.1    -0.00000     0.68759     1 2px   0.51345     1 2px  -0.83282     2 2px  -0.51468     2 2px   0.83181     4 1s   -0.27133
                                    4 1s    0.49684     5 1s   -0.27010     5 1s    0.49712
   16.1    -0.00000     0.78862     1 1s    0.68890     1 2pz   0.63343     1 2py  -0.40823     1 2pz  -0.77964     2 1s   -0.68700
                                    2 2pz   0.66581     2 2py  -0.51936     2 2pz  -0.83017     5 1s    0.27492
   17.1    -0.00000     0.79222     1 2py   0.53778     1 2pz   0.41186     1 2py  -1.08289     1 2pz  -0.63403     2 2py  -0.53718
                                    2 2pz  -0.33181     2 2py   1.06654     2 2pz   0.54997     4 1s   -0.26872     5 1s   -0.25282
   18.1    -0.00000     0.82667     1 1s   -1.01180     1 2py  -0.39925     1 2pz   0.31170     1 2px  -0.62071     1 2py   0.73724
                                    2 1s    1.01232     2 2py  -0.38474     2 2pz   0.36341     2 2px  -0.64513     2 2py   0.72716
                                    3 1s   -0.47854     6 1s    0.47433
   19.1    -0.00000     0.86186     1 1s   -0.33709     1 1s    0.26359     1 2px  -0.34533     1 2py   0.31384     1 2pz  -0.60294
                                    1 2px   0.53727     1 2py  -0.72484     1 2pz   0.79278     2 1s   -0.33169     2 2px   0.33363
                                    2 2py  -0.28499     2 2pz   0.58746     2 2px  -0.49126     2 2py   0.66680     2 2pz  -0.80180
                                    3 1s    0.44019     6 1s    0.42847
   20.1    -0.00000     0.97420     1 1s    0.33078     1 1s   -0.41483     1 2px   0.52441     1 2py   0.47022     1 2px  -0.77893
                                    1 2py  -0.95016     2 1s   -0.30585     2 1s    0.38301     2 2px   0.52231     2 2py   0.47519
                                    2 2px  -0.77758     2 2py  -0.96299     3 1s   -0.36798     3 1s    0.59330     4 1s   -0.99740
                                    5 1s    1.00924     6 1s    0.35507     6 1s   -0.57876
   21.1    -0.00000     1.01734     1 1s   -0.33717     1 1s    0.33898     1 2px   0.67328     1 2px  -1.11626     1 2py   0.28895
                                    2 2px   0.65474     2 2px  -1.09431     2 2py   0.31269     3 1s    0.56074     3 1s   -1.14129
                                    4 1s   -0.39340     5 1s    0.33996     6 1s   -0.45356     6 1s    1.00734
   22.1    -0.00000     1.03628     1 1s   -0.77862     1 1s    1.18423     2 1s   -0.81834     2 1s    1.19328     2 2px   0.27611
                                    3 1s    0.67270     3 1s   -0.84409     4 1s   -0.33297     5 1s   -0.35349     6 1s    0.75343
                                    6 1s   -1.02191
   23.1    -0.00000     1.11086     1 1s   -0.28451     1 1s    0.60142     1 2px   0.27072     1 2py   0.45302     1 2px  -0.26878
                                    1 2py  -0.47252     2 1s   -0.28863     2 1s    0.62765     2 2px  -0.26714     2 2py  -0.45600
                                    2 2px   0.25113     2 2py   0.48281     3 1s    0.29837     4 1s    0.72205     4 1s   -1.03708
                                    5 1s    0.71647     5 1s   -1.03629     6 1s    0.30605
   24.1    -0.00000     1.14629     1 1s   -0.39163     1 1s    0.44736     1 2py   0.45195     1 2px  -0.26000     1 2py  -0.47929
                                    2 1s    0.40170     2 1s   -0.46260     2 2py   0.45116     2 2px  -0.26479     2 2py  -0.47911
                                    4 1s    0.78291     4 1s   -1.16642     5 1s   -0.78590     5 1s    1.17370
   25.1    -0.00000     1.24547     1 1s   -1.17166     1 1s    1.76194     1 2px  -0.52429     1 2py   0.44336     1 2pz  -0.89964
                                    2 1s   -1.19145     2 1s    1.84894     2 2px   0.50375     2 2py  -0.44152     2 2pz   0.92124
                                    3 1s   -0.50746     3 1s   -0.39696     4 1s   -0.56219     5 1s   -0.56398     6 1s   -0.50334
                                    6 1s   -0.42030
   26.1    -0.00000     1.30925     1 1s   -1.53250     1 1s    5.03533     1 2px   1.43500     1 2py  -0.82378     1 2pz  -1.23300
                                    2 1s    1.52299     2 1s   -5.02372     2 2px   1.44154     2 2py  -0.82762     2 2pz  -1.22438
                                    3 1s   -0.26606     4 1s   -0.27257     4 1s   -0.63871     5 1s    0.27416     5 1s    0.63023
                                    6 1s    0.25546
   27.1    -0.00000     1.68579     1 1s   -0.65961     1 3d0  -0.35460     1 3d2-  0.30362     1 3d2+  0.31288     2 1s    0.66189
                                    2 3d0   0.35487     2 3d2- -0.30329     2 3d2+ -0.31262
   28.1    -0.00000     1.85471     1 1s    0.43570     1 1s   -1.55458     1 2px  -0.34312     1 2pz   0.41046     1 3d2-  0.38774
                                    1 3d1+ -0.33419     2 1s   -0.41622     2 1s    1.52217     2 2px  -0.35866     2 2pz   0.39066
                                    2 3d2- -0.38212     2 3d1+  0.36753     2 3d1-  0.27265     3 1s    0.34958     6 1s   -0.33448
   29.1    -0.00000     1.88144     1 1s   -0.31163     1 3d0   0.33825     1 3d1+  0.33215     1 3d2+  0.37078     1 3d1-  0.35412
                                    2 1s    0.26198     2 1s   -0.50325     2 2pz  -0.26563     2 3d0   0.35862     2 3d1+  0.29074
                                    2 3d2+  0.35588     2 3d1-  0.32047
   30.1    -0.00000     2.12370     1 1s    0.90974     1 3d0  -0.45593     1 3d2+ -0.38348     1 3d1- -0.28515     2 1s    0.25248
                                    2 1s   -0.92923     2 2pz  -0.25304     2 3d0   0.46429     2 3d2+  0.38475     2 3d1-  0.28148
   31.1    -0.00000     2.27264     1 1s    0.53079     1 1s   -0.42042     1 2px   0.29041     1 2px  -0.32350     1 2py   0.26580
                                    1 3d0   0.25152     1 3d1+  0.41679     1 3d2+ -0.37658     1 3d1- -0.26014     2 1s    0.52428
                                    2 1s   -0.38806     2 2px  -0.29068     2 2px   0.31420     2 2py  -0.25920     2 3d1+  0.41470
                                    2 3d2+ -0.38175     2 3d1- -0.25757
   32.1    -0.00000     2.30497     1 3d0  -0.36845     1 3d2-  0.55367     1 3d1-  0.29002     2 3d0  -0.35623     2 3d2-  0.55310
                                    2 3d1-  0.28355     4 1s   -0.47973     5 1s   -0.46787
   33.1    -0.00000     2.47165     1 1s   -1.13056     1 2px  -0.37643     1 2py   0.40116     1 2pz   0.32271     1 3d0   0.27128
                                    1 3d2- -0.36141     1 3d1- -0.58783     2 1s    1.12626     2 2px  -0.38381     2 2py   0.41229
                                    2 2pz   0.31417     2 3d0  -0.28716     2 3d2-  0.36164     2 3d1-  0.59626     4 1s    0.52224
                                    5 1s   -0.52808
   34.1    -0.00000     2.60955     1 3d0   0.48994     1 3d2-  0.50147     1 3d1+ -0.45856     2 3d0   0.48804     2 3d2-  0.51074
                                    2 3d1+ -0.46084
   35.1    -0.00000     2.65990     1 2py  -0.34085     1 3d2- -0.25087     1 3d2+ -0.53594     1 3d1-  0.55258     2 2py   0.34149
                                    2 3d2+ -0.53608     2 3d1-  0.55538     4 1s   -0.39048     5 1s   -0.39222
   36.1    -0.00000     2.97206     1 1s   -1.78978     1 2px  -0.45403     1 2px  -0.88119     1 2pz   0.46757     1 3d2-  0.34380
                                    1 3d1+  0.71915     1 3d2+ -0.65212     2 1s    1.78967     2 2px  -0.45412     2 2px  -0.88112
                                    2 2pz   0.46750     2 3d2- -0.34322     2 3d1+ -0.71951     2 3d2+  0.65188


 Natural orbital dump (state averaged) at molpro section  2140.2    (Orbital set 2)



 **********************************************************************************************************************************
 DATASETS  * FILE   NREC   LENGTH (MB)   RECORD NAMES
              1      20       31.85       500      610      700      900      950      970     1000      129      960     1100   
                                          VAR    BASINP    GEOM    SYMINP    ZMAT    AOBASIS   BASIS     P2S    ABASIS      S 
                                         1400     1410     1200     1210     1080     1600     1650     1300     1700     1380   
                                           T        V       H0       H01     AOSYM     SMH    MOLCAS    ERIS     OPER     JKOP   

              2       5        5.42       700     1000      520     2100     2140   
                                         GEOM     BASIS   MCVARS     RHF     MCSCF   

 PROGRAMS   *        TOTAL     MULTI    HF-SCF       INT
 CPU TIMES  *         0.85      0.43      0.11      0.19
 REAL TIME  *         2.87 SEC
 DISK USED  *        39.04 MB
 **********************************************************************************************************************************
 Molecular orbitals read from record     2140.2  Type=MCSCF/NATURAL (state averaged)
 Occupation numbers read from record     2140.2  Type=MCSCF/NATURAL (state averaged)
 Orbital energies read from record       2140.2  Type=MCSCF/NATURAL (state averaged)
 Redundancy group numbers read from rec  2140.2  Type=MCSCF/NATURAL (state averaged)

 MULTI/6-31G* energy=    -77.490333174541

           MULTI          HF-SCF
    -77.49033317    -77.79112881
 **********************************************************************************************************************************
 Molpro calculation terminated
