
 Primary working directories    : /scratch.local/johan406.molpro_temp/molpro.RKdQcfzzA3
 Secondary working directories  : /scratch.local/johan406.molpro_temp/molpro.RKdQcfzzA3
 Wavefunction directory         : /home/goodpast/johan406/wfu/
 Main file repository           : /scratch.local/johan406.molpro_temp/molpro.RKdQcfzzA3/

 id        : roweumn

 Nodes     nprocs
 cn0117       1

 Using customized tuning parameters: mindgm=1; mindgv=20; mindgc=4; mindgr=1; noblas=0; minvec=7
 default implementation of scratch files=df  


 Variables initialized (934), CPU time= 0.01 sec
                                                                                 !leave this line blank
 
 gprint, orbitals=30
 memory, 125., m
 symmetry, nosym
 nelect=16
 basis=6-31g*
 
 geometry={
 C 0.0 -0.0188 0.6691
 C 0.0 0.0188 -0.6691
 H 0.0 1.0275 1.3045
 H -0.0 -0.8023 1.1651
 H 0.0 0.8023 -1.1651
 H 0.0 -1.0275 -1.3045
 }
 
 hf
 {multi,
 closed 7
 occ 9
 wf,spin=0;STATE,3
 }
 
 Commands  initialized (763), CPU time= 0.00 sec, 617 directives.
 Default parameters read. Elapsed time= 0.08 sec

 Checking input...
 Passed
1


                                         ***  PROGRAM SYSTEM MOLPRO  ***
                                       Copyright, TTI GmbH Stuttgart, 2015
                                    Version 2019.2 linked Oct 25 2019 22:50:27


 **********************************************************************************************************************************
 LABEL *                                                                                 
  64 bit serial version                                                                  DATE: 26-Jan-23          TIME: 21:06:18  
 **********************************************************************************************************************************

 SHA1:             8dbd9ae1082e4ce945b0f27595c9eb2d4aa09004
 **********************************************************************************************************************************


 Variable memory set to  125000000 words,  buffer space 

 SETTING NELECT         =        16.00000000                                  
 SETTING BASIS          =    6-31G*
 ZSYMEL=NOSYM


Geometry recognized as XYZ



 Recomputing integrals since basis changed


 Using spherical harmonics

 Library entry C      S 6-31G                selected for orbital group  1
 Library entry C      P 6-31G                selected for orbital group  1
 Library entry C      D 6-31G*               selected for orbital group  1
 Library entry H      S 6-31G                selected for orbital group  2


 PROGRAM * SEWARD (Integral evaluation for generally contracted gaussian basis sets)     Author: Roland Lindh, 1990

 Geometry written to block  1 of record 700


 Point group  C1  



 ATOMIC COORDINATES

 NR  ATOM    CHARGE       X              Y              Z

   1  C       6.00    0.000000000   -0.035526851    1.264415750
   2  C       6.00    0.000000000    0.035526851   -1.264415750
   3  H       1.00    0.000000000    1.941693593    2.465147729
   4  H       1.00    0.000000000   -1.516127270    2.201719908
   5  H       1.00    0.000000000    1.516127270   -2.201719908
   6  H       1.00    0.000000000   -1.941693593   -2.465147729

 Bond lengths in Bohr (Angstrom)

 1-2  2.529829517  1-3  2.313257005  1-4  1.752346051  2-5  1.752346051  2-6  2.313257005
     ( 1.338728128)     ( 1.224122890)     ( 0.927301596)     ( 0.927301596)     ( 1.224122890)

 Bond angles

  1-2-5  123.94557516   1-2-6  119.66014860   2-1-3  119.66014860   2-1-4  123.94557516

  3-1-4  116.39427624   5-2-6  116.39427624

 NUCLEAR CHARGE:                   16
 NUMBER OF PRIMITIVE AOS:          72
 NUMBER OF SYMMETRY AOS:           70
 NUMBER OF CONTRACTIONS:           36   (   36A   )
 NUMBER OF CORE ORBITALS:           2   (    2A   )
 NUMBER OF VALENCE ORBITALS:       12   (   12A   )


 NUCLEAR REPULSION ENERGY   33.64046304

 EXTRA SYMMETRY OF AOS IN SYMMETRY 1:   1 1 1 2 1 1 2 1 1 1   2 2 1 1 1 1 1 2 1 1   2 1 1 1 2 2 1 1 1 1   1 1 1 1 1 1

 Eigenvalues of metric

         1 0.831E-02 0.134E-01 0.346E-01 0.446E-01 0.862E-01 0.181E+00 0.194E+00 0.231E+00


 Contracted 2-electron integrals neglected if value below      1.0D-11
 AO integral compression algorithm  1   Integral accuracy      1.0D-11

     1.049 MB (compressed) written to integral file ( 36.6%)


 NUMBER OF SORTED TWO-ELECTRON INTEGRALS:     222111.     BUFFER LENGTH:  32768
 NUMBER OF SEGMENTS:   1  SEGMENT LENGTH:     222111      RECORD LENGTH: 524288

 Memory used in sort:       0.78 MW

 SORT1 READ      284735. AND WROTE      118722. INTEGRALS IN      1 RECORDS. CPU TIME:     0.00 SEC, REAL TIME:     0.01 SEC
 SORT2 READ      118722. AND WROTE      222111. INTEGRALS IN      4 RECORDS. CPU TIME:     0.02 SEC, REAL TIME:     0.02 SEC

 FILE SIZES:   FILE 1:    31.1 MBYTE,  FILE 4:     4.2 MBYTE,   TOTAL:     35.4 MBYTE

 OPERATOR DM      FOR CENTER  0  COORDINATES:    0.000000    0.000000    0.000000


 **********************************************************************************************************************************
 DATASETS  * FILE   NREC   LENGTH (MB)   RECORD NAMES
              1      19       30.72       500      610      700      900      950      970     1000      129      960     1100   
                                          VAR    BASINP    GEOM    SYMINP    ZMAT    AOBASIS   BASIS     P2S    ABASIS      S 
                                         1400     1410     1200     1210     1080     1600     1650     1300     1700   
                                           T        V       H0       H01     AOSYM     SMH    MOLCAS    ERIS     OPER   

 PROGRAMS   *        TOTAL       INT
 CPU TIMES  *         0.35      0.26
 REAL TIME  *         0.56 SEC
 DISK USED  *        35.71 MB
 **********************************************************************************************************************************


 PROGRAM * RHF-SCF (CLOSED SHELL)       Authors: W. Meyer, H.-J. Werner


 NUMBER OF ELECTRONS:       8+    8-    SPACE SYMMETRY=1    SPIN SYMMETRY: Singlet 
 CONVERGENCE THRESHOLDS:    1.00E-05 (Density)    1.00E-07 (Energy)
 MAX. NUMBER OF ITERATIONS:       60
 INTERPOLATION TYPE:            DIIS
 INTERPOLATION STEPS:              2 (START)      1 (STEP)
 LEVEL SHIFTS:                  0.00 (CLOSED)  0.00 (OPEN) 



 Orbital guess generated from atomic densities. Full valence occupancy:    8

 Molecular orbital dump at record        2100.2

 Initial occupancy:   8

 ITERATION    DDIFF          GRAD             ENERGY        2-EL.EN.            DIPOLE MOMENTS         DIIS   ORB.
    1      0.000D+00      0.000D+00       -77.93721559    119.100404    0.00000    0.00000    0.00000    0    start
    2      0.000D+00      0.903D-02       -77.96248787    117.039046    0.00000   -0.00000   -0.00000    1    diag
    3      0.889D-02      0.321D-02       -77.96507306    117.715007    0.00000   -0.00000    0.00000    2    diag
    4      0.287D-02      0.783D-03       -77.96535203    117.608020   -0.00000    0.00000    0.00000    3    diag
    5      0.122D-02      0.857D-04       -77.96535575    117.609881    0.00000   -0.00000   -0.00000    4    diag
    6      0.183D-03      0.106D-04       -77.96535582    117.609401   -0.00000   -0.00000    0.00000    5    diag
    7      0.240D-04      0.204D-05       -77.96535582    117.609406    0.00000    0.00000   -0.00000    6    diag
    8      0.561D-05      0.284D-06       -77.96535582    117.609394    0.00000   -0.00000    0.00000    0    orth

 Final occupancy:   8

 !RHF STATE  1.1 Energy               -77.965355823073
 Nuclear energy                        33.64046304
 One-electron energy                 -170.41051586
 Two-electron energy                   58.80469700
 Virial quotient                       -0.99717439
 !RHF STATE  1.1 Dipole moment          0.00000000    -0.00000000     0.00000000
 Dipole moment /Debye                   0.00000000    -0.00000000     0.00000000

 ELECTRON ORBITALS
 =================

  Orbital  Occupation    Energy     Coefficients
    1.1     2.00000   -11.22800     1 1s    0.70417     2 1s    0.70417
    2.1     2.00000   -11.22640     1 1s    0.70453     2 1s   -0.70453
    3.1     2.00000    -1.03494     1 1s    0.30351     2 1s    0.30351
    4.1     2.00000    -0.82218     2 1s   -0.23353
    5.1     2.00000    -0.62096     1 2py   0.30057     2 2py   0.30057
    6.1     2.00000    -0.61007     1 2pz   0.38432     2 2pz  -0.38432
    7.1     2.00000    -0.48614     1 2py   0.26722     2 2py  -0.26722
    8.1     2.00000    -0.37186     1 2px   0.37541     1 2px   0.30626     2 2px   0.37541     2 2px   0.30626
    9.1     0.00000     0.17628     1 2px   0.34579     1 2px   0.72833     2 2px  -0.34579     2 2px  -0.72833
   10.1     0.00000     0.25445     1 1s   -0.79055     1 2py  -0.55065     2 1s    0.79055     2 2py  -0.55065     3 1s    1.22521
                                    6 1s   -1.22521
   11.1     0.00000     0.26251     1 1s   -1.48914     1 2pz  -0.63916     2 1s   -1.48914     2 2pz   0.63916     3 1s    0.98738
                                    4 1s    1.06299     5 1s    1.06299     6 1s    0.98738
   12.1     0.00000     0.33795     1 1s   -1.98815     1 2py   0.58676     2 1s    1.98815     2 2py   0.58676     4 1s    1.91736
                                    5 1s   -1.91736
   13.1     0.00000     0.38571     1 1s   -0.89021     1 2py   1.86633     2 1s   -0.89021     2 2py  -1.86633     3 1s   -1.17195
                                    4 1s    2.21483     5 1s    2.21483     6 1s   -1.17195
   14.1     0.00000     0.49414     1 1s   -2.83022     1 2py  -0.32211     1 2pz   2.99082     2 1s    2.83022     2 2py  -0.32211
                                    2 2pz   2.99082     3 1s   -0.33533     4 1s   -1.03184     5 1s    1.03184     6 1s    0.33533
   15.1     0.00000     0.66968     1 1s    0.34059     1 2pz  -0.55312     1 2py  -0.31061     1 2pz   1.06154     2 1s    0.34059
                                    2 2pz   0.55312     2 2py   0.31061     2 2pz  -1.06154     4 1s   -0.31920     5 1s   -0.31920
   16.1     0.00000     0.75496     1 1s   -0.85014     1 2py  -0.38930     1 2py   0.84408     2 1s    0.85014     2 2py  -0.38930
                                    2 2py   0.84408     3 1s   -0.30168     4 1s    0.42245     4 1s    0.50853     5 1s   -0.42245
                                    5 1s   -0.50853     6 1s    0.30168
   17.1     0.00000     0.77482     1 2px  -0.74006     1 2px   0.64045     2 2px  -0.74006     2 2px   0.64045
   18.1     0.00000     0.86459     1 1s   -0.85598     1 1s    1.69821     1 2py  -0.91611     1 2pz   0.39590     2 1s   -0.85598
                                    2 1s    1.69821     2 2py   0.91611     2 2pz  -0.39590     3 1s   -0.43723     3 1s    0.29208
                                    4 1s   -0.36176     4 1s   -0.99287     5 1s   -0.36176     5 1s   -0.99287     6 1s   -0.43723
                                    6 1s    0.29208
   19.1     0.00000     0.88731     1 2px  -0.81672     1 2px   1.07735     2 2px   0.81672     2 2px  -1.07735
   20.1     0.00000     0.95968     1 1s   -0.62292     1 2pz   0.56931     1 2pz  -0.48452     2 1s    0.62292     2 2pz   0.56931
                                    2 2pz  -0.48452     3 1s    0.55425     4 1s    0.32810     5 1s   -0.32810     6 1s   -0.55425
   21.1     0.00000     1.06091     1 1s    0.31858     1 1s   -0.43920     1 2py   0.56303     1 2pz   0.39116     1 2py  -0.87893
                                    1 2pz  -0.58431     2 1s   -0.31858     2 1s    0.43920     2 2py   0.56303     2 2pz   0.39116
                                    2 2py  -0.87893     2 2pz  -0.58431     3 1s   -0.48591     3 1s    1.27641     4 1s   -0.35194
                                    5 1s    0.35194     6 1s    0.48591     6 1s   -1.27641
   22.1     0.00000     1.08060     1 1s    0.72472     1 1s   -0.90485     1 2py   0.64579     1 2py  -1.72094     1 2pz  -0.28284
                                    2 1s    0.72472     2 1s   -0.90485     2 2py  -0.64579     2 2py   1.72094     2 2pz   0.28284
                                    3 1s   -0.41574     3 1s    1.35817     4 1s   -0.52930     5 1s   -0.52930     6 1s   -0.41574
                                    6 1s    1.35817
   23.1     0.00000     1.28841     1 1s    0.62636     1 1s   -1.78485     1 2py  -0.63957     1 2py   2.98592     1 2pz  -0.46358
                                    2 1s    0.62636     2 1s   -1.78485     2 2py   0.63957     2 2py  -2.98592     2 2pz   0.46358
                                    3 1s   -0.53428     3 1s   -0.42003     4 1s    2.27686     5 1s    2.27686     6 1s   -0.53428
                                    6 1s   -0.42003
   24.1     0.00000     1.31759     1 1s    0.36458     1 1s   -2.20463     1 2py   0.36068     1 2pz  -0.57593     1 2py  -0.56029
                                    1 2pz   1.88338     2 1s   -0.36458     2 1s    2.20463     2 2py   0.36068     2 2pz  -0.57593
                                    2 2py  -0.56029     2 2pz   1.88338     3 1s    0.27247     4 1s    0.58115     4 1s   -1.11193
                                    5 1s   -0.58115     5 1s    1.11193     6 1s   -0.27247
   25.1     0.00000     1.34983     1 1s   -1.60550     1 1s    4.95283     1 2py  -0.34199     1 2pz  -1.13632     2 1s    1.60550
                                    2 1s   -4.95283     2 2py  -0.34199     2 2pz  -1.13632     4 1s   -1.19990     5 1s    1.19990
   26.1     0.00000     1.53992     1 1s   -0.50639     1 1s    0.31004     1 2py   1.62270     2 1s   -0.50639     2 1s    0.31004
                                    2 2py  -1.62270     3 1s   -0.47741     3 1s   -0.40567     4 1s    0.82398     5 1s    0.82398
                                    6 1s   -0.47741     6 1s   -0.40567
   27.1     0.00000     1.73254     1 3d1+  0.61762     2 3d1+ -0.61762
   28.1     0.00000     1.81702     1 3d2-  0.68124     2 3d2-  0.68124
   29.1     0.00000     2.12310     1 3d2-  0.73444     2 3d2- -0.73444
   30.1     0.00000     2.19749     1 1s   -0.65710     1 2py   0.40008     1 3d2+  0.69830     2 1s   -0.65710     2 2py  -0.40008
                                    2 3d2+  0.69830     3 1s    0.28638     4 1s    0.48146     4 1s    0.35182     5 1s    0.48146
                                    5 1s    0.35182     6 1s    0.28638
   31.1     0.00000     2.28038     1 1s   -0.27237     1 1s    0.60487     1 3d2+ -0.33236     1 3d1-  0.59904     2 1s    0.27237
                                    2 1s   -0.60487     2 3d2+  0.33236     2 3d1- -0.59904     3 1s   -0.49793     4 1s    0.39820
                                    5 1s   -0.39820     6 1s    0.49793
   32.1     0.00000     2.39193     1 1s   -0.52546     1 2pz   0.29155     1 2pz  -0.41938     1 3d0   0.69364     2 1s   -0.52546
                                    2 2pz  -0.29155     2 2pz   0.41938     2 3d0   0.69364
   33.1     0.00000     2.70180     1 2px  -0.26388     1 3d1+  0.90215     2 2px   0.26388     2 3d1+  0.90215
   34.1     0.00000     2.71781     1 1s   -1.08982     1 2py   0.27867     1 3d2+  0.73580     1 3d1-  0.36090     2 1s    1.08982
                                    2 2py   0.27867     2 3d2+ -0.73580     2 3d1- -0.36090     4 1s    0.84414     5 1s   -0.84414
   35.1     0.00000     3.05477     1 1s    0.31221     1 1s    2.05695     1 2pz  -0.78838     1 2pz  -1.19175     1 3d0   1.10938
                                    2 1s   -0.31221     2 1s   -2.05695     2 2pz  -0.78838     2 2pz  -1.19175     2 3d0  -1.10938
   36.1     0.00000     3.13340     1 1s   -0.26086     1 2py   0.61727     1 3d1-  0.97798     2 1s   -0.26086     2 2py  -0.61727
                                    2 3d1-  0.97798     3 1s   -0.28980     4 1s    0.78038     5 1s    0.78038     6 1s   -0.28980


 HOMO      8.1    -0.371865 =     -10.1190eV
 LUMO      9.1     0.176284 =       4.7969eV
 LUMO-HOMO         0.548148 =      14.9159eV


 **********************************************************************************************************************************
 DATASETS  * FILE   NREC   LENGTH (MB)   RECORD NAMES
              1      19       30.72       500      610      700      900      950      970     1000      129      960     1100   
                                          VAR    BASINP    GEOM    SYMINP    ZMAT    AOBASIS   BASIS     P2S    ABASIS      S 
                                         1400     1410     1200     1210     1080     1600     1650     1300     1700   
                                           T        V       H0       H01     AOSYM     SMH    MOLCAS    ERIS     OPER   

              2       4        2.86       700     1000      520     2100   
                                         GEOM     BASIS   MCVARS     RHF  

 PROGRAMS   *        TOTAL    HF-SCF       INT
 CPU TIMES  *         0.45      0.10      0.26
 REAL TIME  *         0.69 SEC
 DISK USED  *        35.71 MB
 **********************************************************************************************************************************


 PROGRAM * MULTI (Direct Multiconfiguration SCF)       Authors: P.J. Knowles, H.-J. Werner (1984)


 Number of closed-shell orbitals:   7 (   7 )
 Number of active  orbitals:        2 (   2 )
 Number of external orbitals:      27 (  27 )

 State symmetry 1

 Number of electrons:     2    Spin symmetry=Singlet   Space symmetry=1
 Number of states:        3
 Number of CSFs:          3   (4 determinants, 4 intermediate states)

 Molecular orbitals read from record     2100.2  Type=RHF/CANONICAL (state 1.1)

 EXTRA SYMMETRY OF MOS IN SYMMETRY 1:   1 1 1 1 1 1 1 2 2 1   1 1 1 1 1 1 2 1 2 1   1 1 1 1 1 1 2 2 2 1   1 1 2 1 1 1

 Wavefunction dump at record             2140.2

 Convergence thresholds  0.10E-01 (gradient)  0.10E-05 (energy)  0.10E-02 (step length)

 Weight factors for state symmetry  1:    0.33333   0.33333   0.33333

 Number of orbital rotations:      257   (    14 Core/Active    189 Core/Virtual   0 Active/Active     54 Active/Virtual)
 Total number of variables:        269

 Micro-Iterations solved by the two-step solver

 ITER. MIC  NCI  NEG     ENERGY(VAR)     ENERGY(PROJ)   ENERGY CHANGE     GRAD(0)  GRAD(ORB)   GRAD(CI)     STEP       TIME

   1    3    3    0     -77.66412914     -77.67032161   -0.00619247    0.13198241 0.00000152 0.00000000  0.63D-01      0.07
   2    2    3    0     -77.67022422     -77.67022795   -0.00000373    0.00301680 0.00000184 0.00000000  0.16D-02      0.10
   3    2    3    0     -77.67022795     -77.67022795   -0.00000000    0.00000215 0.00000000 0.00000000  0.13D-05      0.13

 ** WVFN ****  CONVERGENCE REACHED, FINAL GRADIENT:  0.13D-11



 Results for state 1.1
 =====================

 !MCSCF STATE  1.1 Energy             -77.983350297929
 Nuclear energy                        33.64046304
 Kinetic energy                        78.25119079
 One electron energy                 -170.53951590
 Two electron energy                   58.91570256
 Virial ratio                           1.99657717

 !MCSCF STATE  1.1 Dipole moment        0.00000000    -0.00000000    -0.00000000
 Dipole moment /Debye                   0.00000000    -0.00000000    -0.00000000

 Results for state 2.1
 =====================

 !MCSCF STATE  2.1 Energy             -77.606405132464
 Nuclear energy                        33.64046304
 Kinetic energy                        78.43557233
 One electron energy                 -169.97499602
 Two electron energy                   58.72812784
 Virial ratio                           1.98942868

 !MCSCF STATE  2.1 Dipole moment        0.00000000    -0.00000000    -0.00000000
 Dipole moment /Debye                   0.00000000    -0.00000000    -0.00000000

 Results for state 3.1
 =====================

 !MCSCF STATE  3.1 Energy             -77.420928418975
 Nuclear energy                        33.64046304
 Kinetic energy                        78.61995387
 One electron energy                 -169.41047613
 Two electron energy                   58.34908467
 Virial ratio                           1.98474909

 !MCSCF STATE  3.1 Dipole moment        0.00000000    -0.00000000    -0.00000000
 Dipole moment /Debye                   0.00000000    -0.00000000    -0.00000000

 State-averaged charge density matrix saved on record  2140.2 (density set 1)

 !MCSCF trans         <2.1|DMY|1.1>     0.050858185763 au =     0.129260147772 Debye
 !MCSCF trans         <3.1|DMY|2.1>     0.076774134266 au =     0.195127604167 Debye

 !MCSCF trans         <2.1|DMZ|1.1>    -1.506484620503 au =    -3.828851181779 Debye
 !MCSCF trans         <3.1|DMZ|2.1>    -2.274148217998 au =    -5.779929627899 Debye


 NATURAL ORBITALS (state averaged)
 =================================

  Orbital  Occupation    Energy     Coefficients
    1.1     2.00000   -11.24323     1 1s    0.70419     2 1s    0.70419
    2.1     2.00000   -11.24191     1 1s    0.70449     2 1s   -0.70449
    3.1     2.00000    -1.04868     1 1s    0.31151     2 1s    0.31151
    4.1     2.00000    -0.82967     1 1s    0.25088     2 1s   -0.25088
    5.1     2.00000    -0.63351     1 2py   0.30542     2 2py   0.30542
    6.1     2.00000    -0.62474     1 2pz   0.38821     2 2pz  -0.38821
    7.1     2.00000    -0.49325     1 2py   0.27571     2 2py  -0.27571
    8.1     1.00000     0.03135     1 2px   0.38360     1 2px   0.68132     2 2px  -0.38360     2 2px  -0.68132
    9.1     1.00000    -0.22759     1 2px   0.35984     1 2px   0.31785     2 2px   0.35984     2 2px   0.31785
   10.1    -0.00000     0.24645     1 1s   -0.76666     1 2py  -0.55788     2 1s    0.76666     2 2py  -0.55788     3 1s    1.21408
                                    6 1s   -1.21408
   11.1    -0.00000     0.25938     1 1s   -1.47405     1 2pz  -0.64108     2 1s   -1.47405     2 2pz   0.64108     3 1s    1.00039
                                    4 1s    1.03634     5 1s    1.03634     6 1s    1.00039
   12.1    -0.00000     0.33517     1 1s   -2.01626     1 2py   0.56934     2 1s    2.01626     2 2py   0.56934     4 1s    1.90495
                                    5 1s   -1.90495
   13.1    -0.00000     0.38222     1 1s   -0.90877     1 2py   1.85360     2 1s   -0.90877     2 2py  -1.85360     3 1s   -1.15459
                                    4 1s    2.22225     5 1s    2.22225     6 1s   -1.15459
   14.1    -0.00000     0.49121     1 1s   -2.81425     1 2py  -0.31159     1 2pz   2.97021     2 1s    2.81425     2 2py  -0.31159
                                    2 2pz   2.97021     3 1s   -0.34779     4 1s   -1.03010     5 1s    1.03010     6 1s    0.34779
   15.1    -0.00000     0.65833     1 1s    0.26226     1 2pz  -0.54499     1 2py  -0.26732     1 2pz   1.03502     2 1s    0.26226
                                    2 2pz   0.54499     2 2py   0.26732     2 2pz  -1.03502     4 1s   -0.25138     5 1s   -0.25138
   16.1    -0.00000     0.74358     1 1s   -0.80672     1 2py  -0.39839     1 2py   0.85306     2 1s    0.80672     2 2py  -0.39839
                                    2 2py   0.85306     3 1s   -0.28900     4 1s    0.42338     4 1s    0.51696     5 1s   -0.42338
                                    5 1s   -0.51696     6 1s    0.28900
   17.1    -0.00000     0.76904     1 2px  -0.74684     1 2px   0.63513     2 2px  -0.74684     2 2px   0.63513
   18.1    -0.00000     0.86183     1 1s   -0.84807     1 1s    1.72523     1 2py  -0.93731     1 2pz   0.44098     2 1s   -0.84807
                                    2 1s    1.72523     2 2py   0.93731     2 2pz  -0.44098     3 1s   -0.43867     3 1s    0.29252
                                    4 1s   -0.36395     4 1s   -1.01888     5 1s   -0.36395     5 1s   -1.01888     6 1s   -0.43867
                                    6 1s    0.29252
   19.1    -0.00000     0.87003     1 2px  -0.80102     1 2px   1.10750     2 2px   0.80102     2 2px  -1.10750
   20.1    -0.00000     0.94231     1 1s   -0.46809     1 2pz   0.57846     1 2pz  -0.57274     2 1s    0.46809     2 2pz   0.57846
                                    2 2pz  -0.57274     3 1s    0.54845     4 1s    0.31167     5 1s   -0.31167     6 1s   -0.54845
   21.1    -0.00000     1.04975     1 1s    0.29980     1 1s   -0.38131     1 2py   0.56247     1 2pz   0.37281     1 2py  -0.89563
                                    1 2pz  -0.56780     2 1s   -0.29980     2 1s    0.38131     2 2py   0.56247     2 2pz   0.37281
                                    2 2py  -0.89563     2 2pz  -0.56780     3 1s   -0.49168     3 1s    1.28055     4 1s   -0.40413
                                    5 1s    0.40413     6 1s    0.49168     6 1s   -1.28055
   22.1    -0.00000     1.07178     1 1s    0.70948     1 1s   -0.87344     1 2py   0.65507     1 2py  -1.77137     1 2pz  -0.28245
                                    2 1s    0.70948     2 1s   -0.87344     2 2py  -0.65507     2 2py   1.77137     2 2pz   0.28245
                                    3 1s   -0.40852     3 1s    1.37008     4 1s   -0.57440     5 1s   -0.57440     6 1s   -0.40852
                                    6 1s    1.37008
   23.1    -0.00000     1.28128     1 1s    0.63416     1 1s   -1.79606     1 2py  -0.62719     1 2py   2.96151     1 2pz  -0.47015
                                    2 1s    0.63416     2 1s   -1.79606     2 2py   0.62719     2 2py  -2.96151     2 2pz   0.47015
                                    3 1s   -0.54337     3 1s   -0.39987     4 1s    2.26940     5 1s    2.26940     6 1s   -0.54337
                                    6 1s   -0.39987
   24.1    -0.00000     1.30318     1 1s    0.68016     1 1s   -3.15941     1 2py   0.30610     1 2pz  -0.56614     1 2py  -0.46715
                                    1 2pz   2.08244     2 1s   -0.68016     2 1s    3.15941     2 2py   0.30610     2 2pz  -0.56614
                                    2 2py  -0.46715     2 2pz   2.08244     3 1s    0.28971     4 1s    0.51749     4 1s   -0.83981
                                    5 1s   -0.51749     5 1s    0.83981     6 1s   -0.28971
   25.1    -0.00000     1.33745     1 1s   -1.50435     1 1s    4.42355     1 2py  -0.43520     1 2pz  -0.71619     2 1s    1.50435
                                    2 1s   -4.42355     2 2py  -0.43520     2 2pz  -0.71619     3 1s   -0.28892     4 1s    0.34135
                                    4 1s   -1.40171     5 1s   -0.34135     5 1s    1.40171     6 1s    0.28892
   26.1    -0.00000     1.53196     1 1s   -0.51004     1 1s    0.31949     1 2py   1.61977     2 1s   -0.51004     2 1s    0.31949
                                    2 2py  -1.61977     3 1s   -0.47366     3 1s   -0.40895     4 1s    0.82207     5 1s    0.82207
                                    6 1s   -0.47366     6 1s   -0.40895
   27.1    -0.00000     1.70716     1 3d1+  0.61736     2 3d1+ -0.61736
   28.1    -0.00000     1.80356     1 3d2-  0.68125     2 3d2-  0.68125
   29.1    -0.00000     2.10040     1 3d2-  0.73443     2 3d2- -0.73443
   30.1    -0.00000     2.18250     1 1s   -0.65258     1 2py   0.40200     1 3d2+  0.69795     2 1s   -0.65258     2 2py  -0.40200
                                    2 3d2+  0.69795     3 1s    0.28812     4 1s    0.48399     4 1s    0.35080     5 1s    0.48399
                                    5 1s    0.35080     6 1s    0.28812
   31.1    -0.00000     2.26352     1 1s   -0.27579     1 1s    0.62367     1 3d2+ -0.33591     1 3d1-  0.59544     2 1s    0.27579
                                    2 1s   -0.62367     2 3d2+  0.33591     2 3d1- -0.59544     3 1s   -0.50226     4 1s    0.39668
                                    5 1s   -0.39668     6 1s    0.50226
   32.1    -0.00000     2.37230     1 1s   -0.52340     1 2pz   0.29771     1 2pz  -0.42156     1 3d0   0.69375     2 1s   -0.52340
                                    2 2pz  -0.29771     2 2pz   0.42156     2 3d0   0.69375
   33.1    -0.00000     2.67958     1 2px  -0.26463     1 3d1+  0.90255     2 2px   0.26463     2 3d1+  0.90255
   34.1    -0.00000     2.69967     1 1s   -1.08552     1 2py   0.28287     1 3d2+  0.73333     1 3d1-  0.36254     2 1s    1.08552
                                    2 2py   0.28287     2 3d2+ -0.73333     2 3d1- -0.36254     4 1s    0.85046     5 1s   -0.85046
   35.1    -0.00000     3.03716     1 1s    0.30543     1 1s    2.08294     1 2pz  -0.78054     1 2pz  -1.20508     1 3d0   1.11091
                                    2 1s   -0.30543     2 1s   -2.08294     2 2pz  -0.78054     2 2pz  -1.20508     2 3d0  -1.11091
   36.1    -0.00000     3.12086     1 1s   -0.25991     1 2py   0.61705     1 3d1-  0.97766     2 1s   -0.25991     2 2py  -0.61705
                                    2 3d1-  0.97766     3 1s   -0.29142     4 1s    0.78340     5 1s    0.78340     6 1s   -0.29142


 Natural orbital dump (state averaged) at molpro section  2140.2    (Orbital set 2)



 **********************************************************************************************************************************
 DATASETS  * FILE   NREC   LENGTH (MB)   RECORD NAMES
              1      20       31.45       500      610      700      900      950      970     1000      129      960     1100   
                                          VAR    BASINP    GEOM    SYMINP    ZMAT    AOBASIS   BASIS     P2S    ABASIS      S 
                                         1400     1410     1200     1210     1080     1600     1650     1300     1700     1380   
                                           T        V       H0       H01     AOSYM     SMH    MOLCAS    ERIS     OPER     JKOP   

              2       5        5.42       700     1000      520     2100     2140   
                                         GEOM     BASIS   MCVARS     RHF     MCSCF   

 PROGRAMS   *        TOTAL     MULTI    HF-SCF       INT
 CPU TIMES  *         0.62      0.17      0.10      0.26
 REAL TIME  *         0.88 SEC
 DISK USED  *        38.63 MB
 **********************************************************************************************************************************
 Molecular orbitals read from record     2140.2  Type=MCSCF/NATURAL (state averaged)
 Occupation numbers read from record     2140.2  Type=MCSCF/NATURAL (state averaged)
 Orbital energies read from record       2140.2  Type=MCSCF/NATURAL (state averaged)
 Redundancy group numbers read from rec  2140.2  Type=MCSCF/NATURAL (state averaged)

 MULTI/6-31G* energy=    -77.420928418975

           MULTI          HF-SCF
    -77.42092842    -77.96535582
 **********************************************************************************************************************************
 Molpro calculation terminated
