
 Primary working directories    : /scratch.local/johan406.molpro_temp/molpro.qjyfJsB7xL
 Secondary working directories  : /scratch.local/johan406.molpro_temp/molpro.qjyfJsB7xL
 Wavefunction directory         : /home/goodpast/johan406/wfu/
 Main file repository           : /scratch.local/johan406.molpro_temp/molpro.qjyfJsB7xL/

 id        : roweumn

 Nodes     nprocs
 cn0117       1

 Using customized tuning parameters: mindgm=1; mindgv=20; mindgc=4; mindgr=1; noblas=0; minvec=7
 default implementation of scratch files=df  


 Variables initialized (934), CPU time= 0.00 sec
                                                                                 !leave this line blank
 
 gprint, orbitals=30
 memory, 125., m
 symmetry, nosym
 nelect=16
 basis=6-31g*
 
 geometry={
 C 0.0 -0.021 0.6691
 C 0.0 0.021 -0.6691
 H 0.0 1.0409 1.3128
 H -0.0 -0.7889 1.1568
 H 0.0 0.7889 -1.1568
 H 0.0 -1.0409 -1.3128
 }
 
 hf
 {multi,
 closed 7
 occ 9
 wf,spin=0;STATE,3
 }
 
 Commands  initialized (763), CPU time= 0.01 sec, 617 directives.
 Default parameters read. Elapsed time= 0.08 sec

 Checking input...
 Passed
1


                                         ***  PROGRAM SYSTEM MOLPRO  ***
                                       Copyright, TTI GmbH Stuttgart, 2015
                                    Version 2019.2 linked Oct 25 2019 22:50:27


 **********************************************************************************************************************************
 LABEL *                                                                                 
  64 bit serial version                                                                  DATE: 26-Jan-23          TIME: 21:07:04  
 **********************************************************************************************************************************

 SHA1:             8dbd9ae1082e4ce945b0f27595c9eb2d4aa09004
 **********************************************************************************************************************************


 Variable memory set to  125000000 words,  buffer space 

 SETTING NELECT         =        16.00000000                                  
 SETTING BASIS          =    6-31G*
 ZSYMEL=NOSYM


Geometry recognized as XYZ



 Recomputing integrals since basis changed


 Using spherical harmonics

 Library entry C      S 6-31G                selected for orbital group  1
 Library entry C      P 6-31G                selected for orbital group  1
 Library entry C      D 6-31G*               selected for orbital group  1
 Library entry H      S 6-31G                selected for orbital group  2


 PROGRAM * SEWARD (Integral evaluation for generally contracted gaussian basis sets)     Author: Roland Lindh, 1990

 Geometry written to block  1 of record 700


 Point group  C1  



 ATOMIC COORDINATES

 NR  ATOM    CHARGE       X              Y              Z

   1  C       6.00    0.000000000   -0.039684249    1.264415750
   2  C       6.00    0.000000000    0.039684249   -1.264415750
   3  H       1.00    0.000000000    1.967015923    2.480832456
   4  H       1.00    0.000000000   -1.490804940    2.186035181
   5  H       1.00    0.000000000    1.490804940   -2.186035181
   6  H       1.00    0.000000000   -1.967015923   -2.480832456

 Bond lengths in Bohr (Angstrom)

 1-2  2.530076701  1-3  2.346596510  1-4  1.719050213  2-5  1.719050213  2-6  2.346596510
     ( 1.338858932)     ( 1.241765397)     ( 0.909682197)     ( 0.909682197)     ( 1.241765397)

 Bond angles

  1-2-5  124.21765038   1-2-6  119.42564196   2-1-3  119.42564196   2-1-4  124.21765038

  3-1-4  116.35670766   5-2-6  116.35670766

 NUCLEAR CHARGE:                   16
 NUMBER OF PRIMITIVE AOS:          72
 NUMBER OF SYMMETRY AOS:           70
 NUMBER OF CONTRACTIONS:           36   (   36A   )
 NUMBER OF CORE ORBITALS:           2   (    2A   )
 NUMBER OF VALENCE ORBITALS:       12   (   12A   )


 NUCLEAR REPULSION ENERGY   33.70080426

 EXTRA SYMMETRY OF AOS IN SYMMETRY 1:   1 1 1 2 1 1 2 1 1 1   2 2 1 1 1 1 1 2 1 1   2 1 1 1 2 2 1 1 1 1   1 1 1 1 1 1

 Eigenvalues of metric

         1 0.830E-02 0.127E-01 0.328E-01 0.460E-01 0.891E-01 0.174E+00 0.194E+00 0.225E+00


 Contracted 2-electron integrals neglected if value below      1.0D-11
 AO integral compression algorithm  1   Integral accuracy      1.0D-11

     1.049 MB (compressed) written to integral file ( 36.6%)


 NUMBER OF SORTED TWO-ELECTRON INTEGRALS:     222111.     BUFFER LENGTH:  32768
 NUMBER OF SEGMENTS:   1  SEGMENT LENGTH:     222111      RECORD LENGTH: 524288

 Memory used in sort:       0.78 MW

 SORT1 READ      284735. AND WROTE      118722. INTEGRALS IN      1 RECORDS. CPU TIME:     0.01 SEC, REAL TIME:     0.00 SEC
 SORT2 READ      118722. AND WROTE      222111. INTEGRALS IN      4 RECORDS. CPU TIME:     0.02 SEC, REAL TIME:     0.03 SEC

 FILE SIZES:   FILE 1:    31.1 MBYTE,  FILE 4:     4.2 MBYTE,   TOTAL:     35.4 MBYTE

 OPERATOR DM      FOR CENTER  0  COORDINATES:    0.000000    0.000000    0.000000


 **********************************************************************************************************************************
 DATASETS  * FILE   NREC   LENGTH (MB)   RECORD NAMES
              1      19       30.72       500      610      700      900      950      970     1000      129      960     1100   
                                          VAR    BASINP    GEOM    SYMINP    ZMAT    AOBASIS   BASIS     P2S    ABASIS      S 
                                         1400     1410     1200     1210     1080     1600     1650     1300     1700   
                                           T        V       H0       H01     AOSYM     SMH    MOLCAS    ERIS     OPER   

 PROGRAMS   *        TOTAL       INT
 CPU TIMES  *         0.35      0.25
 REAL TIME  *         0.57 SEC
 DISK USED  *        35.71 MB
 **********************************************************************************************************************************


 PROGRAM * RHF-SCF (CLOSED SHELL)       Authors: W. Meyer, H.-J. Werner


 NUMBER OF ELECTRONS:       8+    8-    SPACE SYMMETRY=1    SPIN SYMMETRY: Singlet 
 CONVERGENCE THRESHOLDS:    1.00E-05 (Density)    1.00E-07 (Energy)
 MAX. NUMBER OF ITERATIONS:       60
 INTERPOLATION TYPE:            DIIS
 INTERPOLATION STEPS:              2 (START)      1 (STEP)
 LEVEL SHIFTS:                  0.00 (CLOSED)  0.00 (OPEN) 



 Orbital guess generated from atomic densities. Full valence occupancy:    8

 Molecular orbital dump at record        2100.2

 Initial occupancy:   8

 ITERATION    DDIFF          GRAD             ENERGY        2-EL.EN.            DIPOLE MOMENTS         DIIS   ORB.
    1      0.000D+00      0.000D+00       -77.91858032    119.196976   -0.00000   -0.00000   -0.00000    0    start
    2      0.000D+00      0.914D-02       -77.94471885    117.078213   -0.00000    0.00000    0.00000    1    diag
    3      0.907D-02      0.328D-02       -77.94742385    117.766029    0.00000    0.00000   -0.00000    2    diag
    4      0.293D-02      0.800D-03       -77.94772067    117.657093   -0.00000    0.00000   -0.00000    3    diag
    5      0.126D-02      0.890D-04       -77.94772474    117.658677    0.00000   -0.00000    0.00000    4    diag
    6      0.191D-03      0.110D-04       -77.94772481    117.658207    0.00000    0.00000    0.00000    5    diag
    7      0.256D-04      0.210D-05       -77.94772482    117.658211    0.00000    0.00000   -0.00000    6    diag
    8      0.591D-05      0.289D-06       -77.94772482    117.658198    0.00000    0.00000   -0.00000    0    orth

 Final occupancy:   8

 !RHF STATE  1.1 Energy               -77.947724815283
 Nuclear energy                        33.70080426
 One-electron energy                 -170.47762792
 Two-electron energy                   58.82909884
 Virial quotient                       -0.99641548
 !RHF STATE  1.1 Dipole moment          0.00000000     0.00000000    -0.00000000
 Dipole moment /Debye                   0.00000000     0.00000000    -0.00000000

 ELECTRON ORBITALS
 =================

  Orbital  Occupation    Energy     Coefficients
    1.1     2.00000   -11.22881     1 1s    0.70417     2 1s    0.70417
    2.1     2.00000   -11.22721     1 1s    0.70452     2 1s   -0.70452
    3.1     2.00000    -1.03694     1 1s    0.30383     2 1s    0.30383
    4.1     2.00000    -0.82882     2 1s   -0.23296
    5.1     2.00000    -0.61734     1 2py   0.29712     2 2py   0.29712
    6.1     2.00000    -0.61555     1 2pz   0.38267     2 2pz  -0.38267
    7.1     2.00000    -0.48252     1 2py   0.26223     2 2py  -0.26223
    8.1     2.00000    -0.37252     1 2px   0.37595     1 2px   0.30583     2 2px   0.37595     2 2px   0.30583
    9.1     0.00000     0.17571     1 2px   0.34674     1 2px   0.72691     2 2px  -0.34674     2 2px  -0.72691
   10.1     0.00000     0.24840     1 1s   -0.76428     1 2py  -0.53650     2 1s    0.76428     2 2py  -0.53650     3 1s    1.19386
                                    6 1s   -1.19386
   11.1     0.00000     0.26148     1 1s   -1.48605     1 2pz  -0.63674     2 1s   -1.48605     2 2pz   0.63674     3 1s    0.97975
                                    4 1s    1.06128     5 1s    1.06128     6 1s    0.97975
   12.1     0.00000     0.34108     1 1s   -2.04771     1 2py   0.59796     2 1s    2.04771     2 2py   0.59796     4 1s    1.96978
                                    5 1s   -1.96978
   13.1     0.00000     0.38437     1 1s   -1.00335     1 2py   1.86328     2 1s   -1.00335     2 2py  -1.86328     3 1s   -1.12269
                                    4 1s    2.29599     5 1s    2.29599     6 1s   -1.12269
   14.1     0.00000     0.49496     1 1s   -2.79065     1 2py  -0.36012     1 2pz   2.99935     2 1s    2.79065     2 2py  -0.36012
                                    2 2pz   2.99935     3 1s   -0.31363     4 1s   -1.09886     5 1s    1.09886     6 1s    0.31363
   15.1     0.00000     0.66976     1 1s    0.36398     1 2pz  -0.55238     1 2py  -0.34548     1 2pz   1.06713     2 1s    0.36398
                                    2 2pz   0.55238     2 2py   0.34548     2 2pz  -1.06713     4 1s   -0.35566     5 1s   -0.35566
   16.1     0.00000     0.75317     1 1s   -0.94749     1 2py  -0.38704     1 2py   0.86169     2 1s    0.94749     2 2py  -0.38704
                                    2 2py   0.86169     3 1s   -0.28961     4 1s    0.42352     4 1s    0.58230     5 1s   -0.42352
                                    5 1s   -0.58230     6 1s    0.28961
   17.1     0.00000     0.77420     1 2px  -0.73992     1 2px   0.64068     2 2px  -0.73992     2 2px   0.64068
   18.1     0.00000     0.86514     1 1s   -0.84771     1 1s    1.75807     1 2py  -1.02491     1 2pz   0.41024     2 1s   -0.84771
                                    2 1s    1.75807     2 2py   1.02491     2 2pz  -0.41024     3 1s   -0.44289     3 1s    0.34324
                                    4 1s   -0.35825     4 1s   -1.10494     5 1s   -0.35825     5 1s   -1.10494     6 1s   -0.44289
                                    6 1s    0.34324
   19.1     0.00000     0.88649     1 2px  -0.81624     1 2px   1.07824     2 2px   0.81624     2 2px  -1.07824
   20.1     0.00000     0.96092     1 1s   -0.56487     1 2pz   0.56085     1 2pz  -0.48762     2 1s    0.56487     2 2pz   0.56085
                                    2 2pz  -0.48762     3 1s    0.57378     3 1s   -0.29160     4 1s    0.34659     5 1s   -0.34659
                                    6 1s   -0.57378     6 1s    0.29160
   21.1     0.00000     1.05309     1 1s    0.32623     1 1s   -0.45298     1 2py   0.55361     1 2pz   0.41031     1 2py  -0.85852
                                    1 2pz  -0.60473     2 1s   -0.32623     2 1s    0.45298     2 2py   0.55361     2 2pz   0.41031
                                    2 2py  -0.85852     2 2pz  -0.60473     3 1s   -0.47589     3 1s    1.25915     4 1s   -0.31615
                                    5 1s    0.31615     6 1s    0.47589     6 1s   -1.25915
   22.1     0.00000     1.07042     1 1s    0.74384     1 1s   -0.92714     1 2py   0.62925     1 2py  -1.63267     1 2pz  -0.29012
                                    2 1s    0.74384     2 1s   -0.92714     2 2py  -0.62925     2 2py   1.63267     2 2pz   0.29012
                                    3 1s   -0.41722     3 1s    1.32018     4 1s   -0.47982     5 1s   -0.47982     6 1s   -0.41722
                                    6 1s    1.32018
   23.1     0.00000     1.29474     1 1s    0.58192     1 1s   -1.84326     1 2py  -0.64391     1 2py   3.10294     1 2pz  -0.47105
                                    2 1s    0.58192     2 1s   -1.84326     2 2py   0.64391     2 2py  -3.10294     2 2pz   0.47105
                                    3 1s   -0.55715     3 1s   -0.43494     4 1s    2.36028     5 1s    2.36028     6 1s   -0.55715
                                    6 1s   -0.43494
   24.1     0.00000     1.32717     1 1s    0.81426     1 1s   -3.53998     1 2py   0.30848     1 2pz  -0.53735     1 2py  -0.45427
                                    1 2pz   2.12649     2 1s   -0.81426     2 1s    3.53998     2 2py   0.30848     2 2pz  -0.53735
                                    2 2py  -0.45427     2 2pz   2.12649     3 1s    0.27899     4 1s    0.48558     4 1s   -0.72293
                                    5 1s   -0.48558     5 1s    0.72293     6 1s   -0.27899
   25.1     0.00000     1.36004     1 1s   -1.42854     1 1s    4.11434     1 2py   0.27043     1 2py  -0.50799     1 2pz  -0.54102
                                    2 1s    1.42854     2 1s   -4.11434     2 2py   0.27043     2 2py  -0.50799     2 2pz  -0.54102
                                    4 1s    0.39704     4 1s   -1.50850     5 1s   -0.39704     5 1s    1.50850
   26.1     0.00000     1.55742     1 1s   -0.55403     1 1s    0.38076     1 2py   1.43530     2 1s   -0.55403     2 1s    0.38076
                                    2 2py  -1.43530     3 1s   -0.44656     3 1s   -0.35867     4 1s    0.82650     5 1s    0.82650
                                    6 1s   -0.44656     6 1s   -0.35867
   27.1     0.00000     1.73091     1 3d1+  0.61727     2 3d1+ -0.61727
   28.1     0.00000     1.81590     1 3d2-  0.68125     2 3d2-  0.68125
   29.1     0.00000     2.12200     1 3d2-  0.73401     2 3d2- -0.73401
   30.1     0.00000     2.19560     1 1s   -0.66759     1 2py   0.44681     1 3d2+  0.69324     2 1s   -0.66759     2 2py  -0.44681
                                    2 3d2+  0.69324     3 1s    0.27465     4 1s    0.49802     4 1s    0.38533     5 1s    0.49802
                                    5 1s    0.38533     6 1s    0.27465
   31.1     0.00000     2.27039     1 1s   -0.29421     1 1s    0.64400     1 3d2+ -0.35611     1 3d1-  0.58362     2 1s    0.29421
                                    2 1s   -0.64400     2 3d2+  0.35611     2 3d1- -0.58362     3 1s   -0.48585     4 1s    0.38822
                                    5 1s   -0.38822     6 1s    0.48585
   32.1     0.00000     2.38861     1 1s   -0.52819     1 2pz   0.29375     1 2pz  -0.41267     1 3d0   0.69436     2 1s   -0.52819
                                    2 2pz  -0.29375     2 2pz   0.41267     2 3d0   0.69436
   33.1     0.00000     2.70024     1 2px  -0.26372     1 3d1+  0.90201     2 2px   0.26372     2 3d1+  0.90201
   34.1     0.00000     2.73884     1 1s   -1.03365     1 2py   0.31027     1 3d2+  0.72664     1 3d1-  0.38762     2 1s    1.03365
                                    2 2py   0.31027     2 3d2+ -0.72664     2 3d1- -0.38762     4 1s    0.89122     5 1s   -0.89122
   35.1     0.00000     3.05312     1 1s    0.31238     1 1s    2.06587     1 2pz  -0.78518     1 2pz  -1.19491     1 3d0   1.10843
                                    2 1s   -0.31238     2 1s   -2.06587     2 2pz  -0.78518     2 2pz  -1.19491     2 3d0  -1.10843
   36.1     0.00000     3.15098     1 1s   -0.29315     1 2py   0.62861     1 3d1-  0.98031     2 1s   -0.29315     2 2py  -0.62861
                                    2 3d1-  0.98031     3 1s   -0.27347     4 1s    0.82636     5 1s    0.82636     6 1s   -0.27347


 HOMO      8.1    -0.372518 =     -10.1367eV
 LUMO      9.1     0.175707 =       4.7812eV
 LUMO-HOMO         0.548225 =      14.9180eV


 **********************************************************************************************************************************
 DATASETS  * FILE   NREC   LENGTH (MB)   RECORD NAMES
              1      19       30.72       500      610      700      900      950      970     1000      129      960     1100   
                                          VAR    BASINP    GEOM    SYMINP    ZMAT    AOBASIS   BASIS     P2S    ABASIS      S 
                                         1400     1410     1200     1210     1080     1600     1650     1300     1700   
                                           T        V       H0       H01     AOSYM     SMH    MOLCAS    ERIS     OPER   

              2       4        2.86       700     1000      520     2100   
                                         GEOM     BASIS   MCVARS     RHF  

 PROGRAMS   *        TOTAL    HF-SCF       INT
 CPU TIMES  *         0.45      0.10      0.25
 REAL TIME  *         0.70 SEC
 DISK USED  *        35.71 MB
 **********************************************************************************************************************************


 PROGRAM * MULTI (Direct Multiconfiguration SCF)       Authors: P.J. Knowles, H.-J. Werner (1984)


 Number of closed-shell orbitals:   7 (   7 )
 Number of active  orbitals:        2 (   2 )
 Number of external orbitals:      27 (  27 )

 State symmetry 1

 Number of electrons:     2    Spin symmetry=Singlet   Space symmetry=1
 Number of states:        3
 Number of CSFs:          3   (4 determinants, 4 intermediate states)

 Molecular orbitals read from record     2100.2  Type=RHF/CANONICAL (state 1.1)

 EXTRA SYMMETRY OF MOS IN SYMMETRY 1:   1 1 1 1 1 1 1 2 2 1   1 1 1 1 1 1 2 1 2 1   1 1 1 1 1 1 2 2 2 1   1 1 2 1 1 1

 Wavefunction dump at record             2140.2

 Convergence thresholds  0.10E-01 (gradient)  0.10E-05 (energy)  0.10E-02 (step length)

 Weight factors for state symmetry  1:    0.33333   0.33333   0.33333

 Number of orbital rotations:      257   (    14 Core/Active    189 Core/Virtual   0 Active/Active     54 Active/Virtual)
 Total number of variables:        269

 Micro-Iterations solved by the two-step solver

 ITER. MIC  NCI  NEG     ENERGY(VAR)     ENERGY(PROJ)   ENERGY CHANGE     GRAD(0)  GRAD(ORB)   GRAD(CI)     STEP       TIME

   1    3    3    0     -77.64648455     -77.65266367   -0.00617912    0.13181844 0.00000152 0.00000000  0.63D-01      0.06
   2    2    3    0     -77.65256658     -77.65257030   -0.00000372    0.00300970 0.00000184 0.00000000  0.16D-02      0.09
   3    2    3    0     -77.65257030     -77.65257030   -0.00000000    0.00000215 0.00000000 0.00000000  0.13D-05      0.12

 ** WVFN ****  CONVERGENCE REACHED, FINAL GRADIENT:  0.13D-11



 Results for state 1.1
 =====================

 !MCSCF STATE  1.1 Energy             -77.965801636359
 Nuclear energy                        33.70080426
 Kinetic energy                        78.29218494
 One electron energy                 -170.60580896
 Two electron energy                   58.93920306
 Virial ratio                           1.99583121

 !MCSCF STATE  1.1 Dipole moment        0.00000000     0.00000000    -0.00000000
 Dipole moment /Debye                   0.00000000     0.00000000    -0.00000000

 Results for state 2.1
 =====================

 !MCSCF STATE  2.1 Energy             -77.588602521805
 Nuclear energy                        33.70080426
 Kinetic energy                        78.47763017
 One electron energy                 -170.04356969
 Two electron energy                   58.75416290
 Virial ratio                           1.98867158

 !MCSCF STATE  2.1 Dipole moment        0.00000000     0.00000000    -0.00000000
 Dipole moment /Debye                   0.00000000     0.00000000    -0.00000000

 Results for state 3.1
 =====================

 !MCSCF STATE  3.1 Energy             -77.403306742232
 Nuclear energy                        33.70080426
 Kinetic energy                        78.66307540
 One electron energy                 -169.48133042
 Two electron energy                   58.37721941
 Virial ratio                           1.98398526

 !MCSCF STATE  3.1 Dipole moment        0.00000000     0.00000000    -0.00000000
 Dipole moment /Debye                   0.00000000     0.00000000    -0.00000000

 State-averaged charge density matrix saved on record  2140.2 (density set 1)

 !MCSCF trans         <2.1|DMY|1.1>     0.056771950366 au =     0.144290453612 Debye
 !MCSCF trans         <3.1|DMY|2.1>     0.085764511216 au =     0.217977366417 Debye

 !MCSCF trans         <2.1|DMZ|1.1>    -1.505476135527 au =    -3.826288036534 Debye
 !MCSCF trans         <3.1|DMZ|2.1>    -2.274299615879 au =    -5.780314417725 Debye


 NATURAL ORBITALS (state averaged)
 =================================

  Orbital  Occupation    Energy     Coefficients
    1.1     2.00000   -11.24391     1 1s    0.70418     2 1s    0.70418
    2.1     2.00000   -11.24259     1 1s    0.70448     2 1s   -0.70448
    3.1     2.00000    -1.05043     1 1s    0.31182     2 1s    0.31182
    4.1     2.00000    -0.83621     1 1s    0.24399
    5.1     2.00000    -0.63021     1 2pz   0.38655     2 2pz  -0.38655
    6.1     2.00000    -0.62984     1 2py   0.30187     2 2py   0.30187
    7.1     2.00000    -0.48963     1 2py   0.27070     2 2py  -0.27070
    8.1     1.00000     0.03075     1 2px   0.38451     1 2px   0.67989     2 2px  -0.38451     2 2px  -0.67989
    9.1     1.00000    -0.22814     1 2px   0.36034     1 2px   0.31746     2 2px   0.36034     2 2px   0.31746
   10.1    -0.00000     0.24030     1 1s   -0.74496     1 2py  -0.54281     2 1s    0.74496     2 2py  -0.54281     3 1s    1.18369
                                    6 1s   -1.18369
   11.1    -0.00000     0.25826     1 1s   -1.46835     1 2pz  -0.63775     2 1s   -1.46835     2 2pz   0.63775     3 1s    0.99342
                                    4 1s    1.03100     5 1s    1.03100     6 1s    0.99342
   12.1    -0.00000     0.33859     1 1s   -2.07222     1 2py   0.58256     2 1s    2.07222     2 2py   0.58256     4 1s    1.95878
                                    5 1s   -1.95878
   13.1    -0.00000     0.38104     1 1s   -1.02375     1 2py   1.85094     1 2pz  -0.26601     2 1s   -1.02375     2 2py  -1.85094
                                    2 2pz   0.26601     3 1s   -1.10456     4 1s    2.30502     5 1s    2.30502     6 1s   -1.10456
   14.1    -0.00000     0.49200     1 1s   -2.77628     1 2py  -0.34829     1 2pz   2.97812     2 1s    2.77628     2 2py  -0.34829
                                    2 2pz   2.97812     3 1s   -0.32606     4 1s   -1.09517     5 1s    1.09517     6 1s    0.32606
   15.1    -0.00000     0.65843     1 1s    0.26388     1 1s    0.25993     1 2pz  -0.54422     1 2py  -0.29778     1 2pz   1.03991
                                    2 1s    0.26388     2 1s    0.25993     2 2pz   0.54422     2 2py   0.29778     2 2pz  -1.03991
                                    4 1s   -0.28200     5 1s   -0.28200
   16.1    -0.00000     0.74162     1 1s   -0.89857     1 2py  -0.39566     1 2py   0.87108     1 2pz  -0.25668     2 1s    0.89857
                                    2 2py  -0.39566     2 2py   0.87108     2 2pz  -0.25668     3 1s   -0.27635     4 1s    0.42471
                                    4 1s    0.59153     5 1s   -0.42471     5 1s   -0.59153     6 1s    0.27635
   17.1    -0.00000     0.76848     1 2px  -0.74675     1 2px   0.63535     2 2px  -0.74675     2 2px   0.63535
   18.1    -0.00000     0.86241     1 1s   -0.83943     1 1s    1.78558     1 2py  -1.04848     1 2pz   0.45475     2 1s   -0.83943
                                    2 1s    1.78558     2 2py   1.04848     2 2pz  -0.45475     3 1s   -0.44436     3 1s    0.34493
                                    4 1s   -0.36046     4 1s   -1.13286     5 1s   -0.36046     5 1s   -1.13286     6 1s   -0.44436
                                    6 1s    0.34493
   19.1    -0.00000     0.86929     1 2px  -0.80051     1 2px   1.10831     2 2px   0.80051     2 2px  -1.10831
   20.1    -0.00000     0.94392     1 1s   -0.41175     1 2pz   0.57160     1 2pz  -0.57729     2 1s    0.41175     2 2pz   0.57160
                                    2 2pz  -0.57729     3 1s    0.56618     3 1s   -0.27065     4 1s    0.32869     5 1s   -0.32869
                                    6 1s   -0.56618     6 1s    0.27065
   21.1    -0.00000     1.04220     1 1s    0.30876     1 1s   -0.39348     1 2py   0.55273     1 2pz   0.39116     1 2py  -0.87490
                                    1 2pz  -0.58936     2 1s   -0.30876     2 1s    0.39348     2 2py   0.55273     2 2pz   0.39116
                                    2 2py  -0.87490     2 2pz  -0.58936     3 1s   -0.48471     3 1s    1.26585     4 1s   -0.36751
                                    5 1s    0.36751     6 1s    0.48471     6 1s   -1.26585
   22.1    -0.00000     1.06177     1 1s    0.73056     1 1s   -0.89929     1 2py   0.63749     1 2py  -1.67857     1 2pz  -0.29136
                                    2 1s    0.73056     2 1s   -0.89929     2 2py  -0.63749     2 2py   1.67857     2 2pz   0.29136
                                    3 1s   -0.41039     3 1s    1.33126     4 1s   -0.52105     5 1s   -0.52105     6 1s   -0.41039
                                    6 1s    1.33126
   23.1    -0.00000     1.28746     1 1s    0.58867     1 1s   -1.85281     1 2py  -0.63317     1 2py   3.08225     1 2pz  -0.47674
                                    2 1s    0.58867     2 1s   -1.85281     2 2py   0.63317     2 2py  -3.08225     2 2pz   0.47674
                                    3 1s   -0.56533     3 1s   -0.41764     4 1s    2.35396     5 1s    2.35396     6 1s   -0.56533
                                    6 1s   -0.41764
   24.1    -0.00000     1.30945     1 1s    1.00070     1 1s   -4.06868     1 2py   0.26030     1 2pz  -0.51107     1 2py  -0.37289
                                    1 2pz   2.18404     2 1s   -1.00070     2 1s    4.06868     2 2py   0.26030     2 2pz  -0.51107
                                    2 2py  -0.37289     2 2pz   2.18404     3 1s    0.28346     4 1s    0.42502     4 1s   -0.50513
                                    5 1s   -0.42502     5 1s    0.50513     6 1s   -0.28346
   25.1    -0.00000     1.35061     1 1s   -1.31006     1 1s    3.61375     1 2py   0.29211     1 2pz  -0.26734     1 2py  -0.55161
                                    2 1s    1.31006     2 1s   -3.61375     2 2py   0.29211     2 2pz  -0.26734     2 2py  -0.55161
                                    3 1s   -0.26645     4 1s    0.45104     4 1s   -1.59473     5 1s   -0.45104     5 1s    1.59473
                                    6 1s    0.26645
   26.1    -0.00000     1.54956     1 1s   -0.55743     1 1s    0.39037     1 2py   1.43209     2 1s   -0.55743     2 1s    0.39037
                                    2 2py  -1.43209     3 1s   -0.44285     3 1s   -0.36187     4 1s    0.82411     5 1s    0.82411
                                    6 1s   -0.44285     6 1s   -0.36187
   27.1    -0.00000     1.70562     1 3d1+  0.61701     2 3d1+ -0.61701
   28.1    -0.00000     1.80254     1 3d2-  0.68126     2 3d2-  0.68126
   29.1    -0.00000     2.09940     1 3d2-  0.73400     2 3d2- -0.73400
   30.1    -0.00000     2.18072     1 1s   -0.66288     1 2py   0.44888     1 2pz  -0.25275     1 3d2+  0.69287     2 1s   -0.66288
                                    2 2py  -0.44888     2 2pz   0.25275     2 3d2+  0.69287     3 1s    0.27639     4 1s    0.50063
                                    4 1s    0.38429     5 1s    0.50063     5 1s    0.38429     6 1s    0.27639
   31.1    -0.00000     2.25348     1 1s   -0.29773     1 1s    0.66399     1 3d2+ -0.35966     1 3d1-  0.57984     2 1s    0.29773
                                    2 1s   -0.66399     2 3d2+  0.35966     2 3d1- -0.57984     3 1s   -0.49004     4 1s    0.38639
                                    5 1s   -0.38639     6 1s    0.49004
   32.1    -0.00000     2.36910     1 1s   -0.52605     1 2pz   0.29997     1 2pz  -0.41467     1 3d0   0.69452     2 1s   -0.52605
                                    2 2pz  -0.29997     2 2pz   0.41467     2 3d0   0.69452
   33.1    -0.00000     2.67810     1 2px  -0.26446     1 3d1+  0.90242     2 2px   0.26446     2 3d1+  0.90242
   34.1    -0.00000     2.72102     1 1s   -1.02738     1 2py   0.31462     1 3d2+  0.72401     1 3d1-  0.38903     2 1s    1.02738
                                    2 2py   0.31462     2 3d2+ -0.72401     2 3d1- -0.38903     4 1s    0.89752     5 1s   -0.89752
   35.1    -0.00000     3.03563     1 1s    0.30572     1 1s    2.09193     1 2pz  -0.77722     1 2pz  -1.20821     1 3d0   1.10991
                                    2 1s   -0.30572     2 1s   -2.09193     2 2pz  -0.77722     2 2pz  -1.20821     2 3d0  -1.10991
   36.1    -0.00000     3.13852     1 1s   -0.29206     1 2py   0.62832     1 3d1-  0.97998     2 1s   -0.29206     2 2py  -0.62832
                                    2 3d1-  0.97998     3 1s   -0.27500     4 1s    0.82948     5 1s    0.82948     6 1s   -0.27500


 Natural orbital dump (state averaged) at molpro section  2140.2    (Orbital set 2)



 **********************************************************************************************************************************
 DATASETS  * FILE   NREC   LENGTH (MB)   RECORD NAMES
              1      20       31.45       500      610      700      900      950      970     1000      129      960     1100   
                                          VAR    BASINP    GEOM    SYMINP    ZMAT    AOBASIS   BASIS     P2S    ABASIS      S 
                                         1400     1410     1200     1210     1080     1600     1650     1300     1700     1380   
                                           T        V       H0       H01     AOSYM     SMH    MOLCAS    ERIS     OPER     JKOP   

              2       5        5.42       700     1000      520     2100     2140   
                                         GEOM     BASIS   MCVARS     RHF     MCSCF   

 PROGRAMS   *        TOTAL     MULTI    HF-SCF       INT
 CPU TIMES  *         0.61      0.16      0.10      0.25
 REAL TIME  *         0.89 SEC
 DISK USED  *        38.63 MB
 **********************************************************************************************************************************
 Molecular orbitals read from record     2140.2  Type=MCSCF/NATURAL (state averaged)
 Occupation numbers read from record     2140.2  Type=MCSCF/NATURAL (state averaged)
 Orbital energies read from record       2140.2  Type=MCSCF/NATURAL (state averaged)
 Redundancy group numbers read from rec  2140.2  Type=MCSCF/NATURAL (state averaged)

 MULTI/6-31G* energy=    -77.403306742232

           MULTI          HF-SCF
    -77.40330674    -77.94772482
 **********************************************************************************************************************************
 Molpro calculation terminated
