
 Primary working directories    : /scratch.local/johan406.molpro_temp/molpro.FcarJxLj4N
 Secondary working directories  : /scratch.local/johan406.molpro_temp/molpro.FcarJxLj4N
 Wavefunction directory         : /home/goodpast/johan406/wfu/
 Main file repository           : /scratch.local/johan406.molpro_temp/molpro.FcarJxLj4N/

 id        : roweumn

 Nodes     nprocs
 cn0117       1

 Using customized tuning parameters: mindgm=1; mindgv=20; mindgc=4; mindgr=1; noblas=0; minvec=7
 default implementation of scratch files=df  


 Variables initialized (934), CPU time= 0.01 sec
                                                                                 !leave this line blank
 
 gprint, orbitals=30
 memory, 125., m
 symmetry, nosym
 nelect=16
 basis=6-31g*
 
 geometry={
 C 0.0 -0.0235 0.6691
 C 0.0 0.0235 -0.6691
 H 0.0 1.056 1.3221
 H -0.0 -0.7738 1.1474
 H 0.0 0.7738 -1.1474
 H 0.0 -1.056 -1.3221
 }
 
 hf
 {multi,
 closed 7
 occ 9
 wf,spin=0;STATE,3
 }
 
 Commands  initialized (763), CPU time= 0.01 sec, 617 directives.
 Default parameters read. Elapsed time= 0.08 sec

 Checking input...
 Passed
1


                                         ***  PROGRAM SYSTEM MOLPRO  ***
                                       Copyright, TTI GmbH Stuttgart, 2015
                                    Version 2019.2 linked Oct 25 2019 22:50:27


 **********************************************************************************************************************************
 LABEL *                                                                                 
  64 bit serial version                                                                  DATE: 26-Jan-23          TIME: 21:07:56  
 **********************************************************************************************************************************

 SHA1:             8dbd9ae1082e4ce945b0f27595c9eb2d4aa09004
 **********************************************************************************************************************************


 Variable memory set to  125000000 words,  buffer space 

 SETTING NELECT         =        16.00000000                                  
 SETTING BASIS          =    6-31G*
 ZSYMEL=NOSYM


Geometry recognized as XYZ



 Recomputing integrals since basis changed


 Using spherical harmonics

 Library entry C      S 6-31G                selected for orbital group  1
 Library entry C      P 6-31G                selected for orbital group  1
 Library entry C      D 6-31G*               selected for orbital group  1
 Library entry H      S 6-31G                selected for orbital group  2


 PROGRAM * SEWARD (Integral evaluation for generally contracted gaussian basis sets)     Author: Roland Lindh, 1990

 Geometry written to block  1 of record 700


 Point group  C1  



 ATOMIC COORDINATES

 NR  ATOM    CHARGE       X              Y              Z

   1  C       6.00    0.000000000   -0.044408564    1.264415750
   2  C       6.00    0.000000000    0.044408564   -1.264415750
   3  H       1.00    0.000000000    1.995550788    2.498406909
   4  H       1.00    0.000000000   -1.462270075    2.168271755
   5  H       1.00    0.000000000    1.462270075   -2.168271755
   6  H       1.00    0.000000000   -1.995550788   -2.498406909

 Bond lengths in Bohr (Angstrom)

 1-2  2.530390728  1-3  2.384149395  1-4  1.681453818  2-5  1.681453818  2-6  2.384149395
     ( 1.339025108)     ( 1.261637527)     ( 0.889787042)     ( 0.889787042)     ( 1.261637527)

 Bond angles

  1-2-5  124.52813268   1-2-6  119.15864533   2-1-3  119.15864533   2-1-4  124.52813268

  3-1-4  116.31322199   5-2-6  116.31322199

 NUCLEAR CHARGE:                   16
 NUMBER OF PRIMITIVE AOS:          72
 NUMBER OF SYMMETRY AOS:           70
 NUMBER OF CONTRACTIONS:           36   (   36A   )
 NUMBER OF CORE ORBITALS:           2   (    2A   )
 NUMBER OF VALENCE ORBITALS:       12   (   12A   )


 NUCLEAR REPULSION ENERGY   33.77826154

 EXTRA SYMMETRY OF AOS IN SYMMETRY 1:   1 1 1 2 1 1 2 1 1 1   2 2 1 1 1 1 1 2 1 1   2 1 1 1 2 2 1 1 1 1   1 1 1 1 1 1

 Eigenvalues of metric

         1 0.829E-02 0.119E-01 0.308E-01 0.477E-01 0.923E-01 0.166E+00 0.194E+00 0.211E+00


 Contracted 2-electron integrals neglected if value below      1.0D-11
 AO integral compression algorithm  1   Integral accuracy      1.0D-11

     1.049 MB (compressed) written to integral file ( 36.6%)


 NUMBER OF SORTED TWO-ELECTRON INTEGRALS:     222111.     BUFFER LENGTH:  32768
 NUMBER OF SEGMENTS:   1  SEGMENT LENGTH:     222111      RECORD LENGTH: 524288

 Memory used in sort:       0.78 MW

 SORT1 READ      284735. AND WROTE      118721. INTEGRALS IN      1 RECORDS. CPU TIME:     0.00 SEC, REAL TIME:     0.01 SEC
 SORT2 READ      118721. AND WROTE      222111. INTEGRALS IN      4 RECORDS. CPU TIME:     0.03 SEC, REAL TIME:     0.02 SEC

 FILE SIZES:   FILE 1:    31.1 MBYTE,  FILE 4:     4.2 MBYTE,   TOTAL:     35.4 MBYTE

 OPERATOR DM      FOR CENTER  0  COORDINATES:    0.000000    0.000000    0.000000


 **********************************************************************************************************************************
 DATASETS  * FILE   NREC   LENGTH (MB)   RECORD NAMES
              1      19       30.72       500      610      700      900      950      970     1000      129      960     1100   
                                          VAR    BASINP    GEOM    SYMINP    ZMAT    AOBASIS   BASIS     P2S    ABASIS      S 
                                         1400     1410     1200     1210     1080     1600     1650     1300     1700   
                                           T        V       H0       H01     AOSYM     SMH    MOLCAS    ERIS     OPER   

 PROGRAMS   *        TOTAL       INT
 CPU TIMES  *         0.34      0.25
 REAL TIME  *         0.56 SEC
 DISK USED  *        35.71 MB
 **********************************************************************************************************************************


 PROGRAM * RHF-SCF (CLOSED SHELL)       Authors: W. Meyer, H.-J. Werner


 NUMBER OF ELECTRONS:       8+    8-    SPACE SYMMETRY=1    SPIN SYMMETRY: Singlet 
 CONVERGENCE THRESHOLDS:    1.00E-05 (Density)    1.00E-07 (Energy)
 MAX. NUMBER OF ITERATIONS:       60
 INTERPOLATION TYPE:            DIIS
 INTERPOLATION STEPS:              2 (START)      1 (STEP)
 LEVEL SHIFTS:                  0.00 (CLOSED)  0.00 (OPEN) 



 Orbital guess generated from atomic densities. Full valence occupancy:    8

 Molecular orbital dump at record        2100.2

 Initial occupancy:   8

 ITERATION    DDIFF          GRAD             ENERGY        2-EL.EN.            DIPOLE MOMENTS         DIIS   ORB.
    1      0.000D+00      0.000D+00       -77.89433057    119.320508   -0.00000   -0.00000    0.00000    0    start
    2      0.000D+00      0.928D-02       -77.92158206    117.128431   -0.00000    0.00000   -0.00000    1    diag
    3      0.929D-02      0.338D-02       -77.92444094    117.831447   -0.00000    0.00000   -0.00000    2    diag
    4      0.301D-02      0.822D-03       -77.92476046    117.720130   -0.00000    0.00000    0.00000    3    diag
    5      0.130D-02      0.928D-04       -77.92476493    117.721362    0.00000    0.00000    0.00000    4    diag
    6      0.201D-03      0.114D-04       -77.92476501    117.720914    0.00000   -0.00000    0.00000    5    diag
    7      0.275D-04      0.216D-05       -77.92476501    117.720914    0.00000   -0.00000    0.00000    6    diag
    8      0.619D-05      0.291D-06       -77.92476501    117.720899    0.00000   -0.00000   -0.00000    0    orth

 Final occupancy:   8

 !RHF STATE  1.1 Energy               -77.924765012075
 Nuclear energy                        33.77826154
 One-electron energy                 -170.56347623
 Two-electron energy                   58.86044968
 Virial quotient                       -0.99544253
 !RHF STATE  1.1 Dipole moment          0.00000000    -0.00000000    -0.00000000
 Dipole moment /Debye                   0.00000000    -0.00000000    -0.00000000

 ELECTRON ORBITALS
 =================

  Orbital  Occupation    Energy     Coefficients
    1.1     2.00000   -11.22987     1 1s    0.70416     2 1s    0.70416
    2.1     2.00000   -11.22827     1 1s    0.70452     2 1s   -0.70452
    3.1     2.00000    -1.03947     1 1s    0.30421     2 1s    0.30421
    4.1     2.00000    -0.83684     2 1s   -0.23245
    5.1     2.00000    -0.62201     1 2pz   0.38140     2 2pz  -0.38140
    6.1     2.00000    -0.61311     1 2py   0.29339     2 2py   0.29339
    7.1     2.00000    -0.47838     1 2py   0.25698     2 2py  -0.25698
    8.1     2.00000    -0.37334     1 2px   0.37664     1 2px   0.30529     2 2px   0.37664     2 2px   0.30529
    9.1     0.00000     0.17498     1 2px   0.34795     1 2px   0.72510     2 2px  -0.34795     2 2px  -0.72510
   10.1     0.00000     0.24149     1 1s   -0.73382     1 2py  -0.52176     2 1s    0.73382     2 2py  -0.52176     3 1s    1.15954
                                    6 1s   -1.15954
   11.1     0.00000     0.26016     1 1s   -1.48163     1 2pz  -0.63352     2 1s   -1.48163     2 2pz   0.63352     3 1s    0.97089
                                    4 1s    1.05785     5 1s    1.05785     6 1s    0.97089
   12.1     0.00000     0.34438     1 1s   -2.11846     1 2py   0.60886     2 1s    2.11846     2 2py   0.60886     4 1s    2.03023
                                    5 1s   -2.03023
   13.1     0.00000     0.38272     1 1s   -1.13423     1 2py   1.85987     1 2pz  -0.27990     2 1s   -1.13423     2 2py  -1.85987
                                    2 2pz   0.27990     3 1s   -1.06848     4 1s    2.39179     5 1s    2.39179     6 1s   -1.06848
   14.1     0.00000     0.49597     1 1s   -2.74092     1 2py  -0.40299     1 2pz   3.01003     2 1s    2.74092     2 2py  -0.40299
                                    2 2pz   3.01003     3 1s   -0.29079     4 1s   -1.17853     5 1s    1.17853     6 1s    0.29079
   15.1     0.00000     0.66985     1 1s    0.39370     1 2pz  -0.55144     1 2py  -0.38410     1 2pz   1.07416     2 1s    0.39370
                                    2 2pz   0.55144     2 2py   0.38410     2 2pz  -1.07416     4 1s   -0.39897     5 1s   -0.39897
   16.1     0.00000     0.75096     1 1s   -1.05653     1 2py  -0.38420     1 2py   0.88382     2 1s    1.05653     2 2py  -0.38420
                                    2 2py   0.88382     3 1s   -0.27577     4 1s    0.42408     4 1s    0.67173     5 1s   -0.42408
                                    5 1s   -0.67173     6 1s    0.27577
   17.1     0.00000     0.77341     1 2px  -0.73975     1 2px   0.64098     2 2px  -0.73975     2 2px   0.64098
   18.1     0.00000     0.86586     1 1s   -0.83713     1 1s    1.83439     1 2py  -1.14757     1 2pz   0.42820     2 1s   -0.83713
                                    2 1s    1.83439     2 2py   1.14757     2 2pz  -0.42820     3 1s   -0.44948     3 1s    0.39867
                                    4 1s   -0.35438     4 1s   -1.23806     5 1s   -0.35438     5 1s   -1.23806     6 1s   -0.44948
                                    6 1s    0.39867
   19.1     0.00000     0.88545     1 2px  -0.81564     1 2px   1.07937     2 2px   0.81564     2 2px  -1.07937
   20.1     0.00000     0.96244     1 1s   -0.49363     1 2pz   0.55008     1 2pz  -0.49077     2 1s    0.49363     2 2pz   0.55008
                                    2 2pz  -0.49077     3 1s    0.59549     3 1s   -0.34038     4 1s    0.36466     5 1s   -0.36466
                                    6 1s   -0.59549     6 1s    0.34038
   21.1     0.00000     1.04461     1 1s    0.33201     1 1s   -0.46416     1 2py   0.54450     1 2pz   0.43050     1 2py  -0.83704
                                    1 2pz  -0.62558     2 1s   -0.33201     2 1s    0.46416     2 2py   0.54450     2 2pz   0.43050
                                    2 2py  -0.83704     2 2pz  -0.62558     3 1s   -0.46253     3 1s    1.23709     4 1s   -0.27984
                                    5 1s    0.27984     6 1s    0.46253     6 1s   -1.23709
   22.1     0.00000     1.05943     1 1s    0.76363     1 1s   -0.95448     1 2py   0.61252     1 2py  -1.53961     1 2pz  -0.29853
                                    2 1s    0.76363     2 1s   -0.95448     2 2py  -0.61252     2 2py   1.53961     2 2pz   0.29853
                                    3 1s   -0.41680     3 1s    1.27931     4 1s   -0.42464     5 1s   -0.42464     6 1s   -0.41680
                                    6 1s    1.27931
   23.1     0.00000     1.30047     1 1s    0.53345     1 1s   -1.91559     1 2py  -0.64423     1 2py   3.20779     1 2pz  -0.48069
                                    2 1s    0.53345     2 1s   -1.91559     2 2py   0.64423     2 2py  -3.20779     2 2pz   0.48069
                                    3 1s   -0.58029     3 1s   -0.44070     4 1s    2.44964     5 1s    2.44964     6 1s   -0.58029
                                    6 1s   -0.44070
   24.1     0.00000     1.33257     1 1s    1.12868     1 1s   -4.41138     1 2pz  -0.47170     1 2py  -0.33319     1 2pz   2.18877
                                    2 1s   -1.12868     2 1s    4.41138     2 2pz  -0.47170     2 2py  -0.33319     2 2pz   2.18877
                                    3 1s    0.27311     4 1s    0.37380     4 1s   -0.34058     5 1s   -0.37380     5 1s    0.34058
                                    6 1s   -0.27311
   25.1     0.00000     1.37786     1 1s   -1.19272     1 1s    3.17665     1 2py   0.34115     1 2pz  -0.30066     1 2py  -0.62291
                                    2 1s    1.19272     2 1s   -3.17665     2 2py   0.34115     2 2pz  -0.30066     2 2py  -0.62291
                                    4 1s    0.50108     4 1s   -1.68071     5 1s   -0.50108     5 1s    1.68071
   26.1     0.00000     1.57955     1 1s   -0.60182     1 1s    0.46607     1 2py   0.26012     1 2pz  -0.26144     1 2py   1.22513
                                    2 1s   -0.60182     2 1s    0.46607     2 2py  -0.26012     2 2pz   0.26144     2 2py  -1.22513
                                    3 1s   -0.41306     3 1s   -0.30817     4 1s    0.82471     5 1s    0.82471     6 1s   -0.41306
                                    6 1s   -0.30817
   27.1     0.00000     1.72888     1 3d1+  0.61683     2 3d1+ -0.61683
   28.1     0.00000     1.81452     1 3d2-  0.68125     2 3d2-  0.68125
   29.1     0.00000     2.12064     1 3d2-  0.73346     2 3d2- -0.73346
   30.1     0.00000     2.19373     1 1s   -0.67937     1 2py   0.49818     1 2pz  -0.25866     1 3d2+  0.68611     2 1s   -0.67937
                                    2 2py  -0.49818     2 2pz   0.25866     2 3d2+  0.68611     3 1s    0.26094     4 1s    0.51806
                                    4 1s    0.42312     5 1s    0.51806     5 1s    0.42312     6 1s    0.26094
   31.1     0.00000     2.25910     1 1s   -0.31700     1 1s    0.68315     1 3d2+ -0.38043     1 3d1-  0.56624     2 1s    0.31700
                                    2 1s   -0.68315     2 3d2+  0.38043     2 3d1- -0.56624     3 1s   -0.47142     4 1s    0.37850
                                    5 1s   -0.37850     6 1s    0.47142
   32.1     0.00000     2.38472     1 1s   -0.53079     1 1s    0.26710     1 2pz   0.29645     1 2pz  -0.40431     1 3d0   0.69511
                                    2 1s   -0.53079     2 1s    0.26710     2 2pz  -0.29645     2 2pz   0.40431     2 3d0   0.69511
   33.1     0.00000     2.69829     1 2px  -0.26351     1 3d1+  0.90184     2 2px   0.26351     2 3d1+  0.90184
   34.1     0.00000     2.76520     1 1s   -0.96170     1 2py   0.34670     1 3d2+  0.71665     1 3d1-  0.41460     2 1s    0.96170
                                    2 2py   0.34670     2 3d2+ -0.71665     2 3d1- -0.41460     4 1s    0.94579     5 1s   -0.94579
   35.1     0.00000     3.05120     1 1s    0.31346     1 1s    2.07781     1 2pz  -0.78014     1 2pz  -1.19879     1 3d0   1.10692
                                    2 1s   -0.31346     2 1s   -2.07781     2 2pz  -0.78014     2 2pz  -1.19879     2 3d0  -1.10692
   36.1     0.00000     3.17363     1 1s   -0.33018     1 2py   0.64260     1 3d2+  0.27381     1 3d1-  0.98348     2 1s   -0.33018
                                    2 2py  -0.64260     2 3d2+  0.27381     2 3d1-  0.98348     3 1s   -0.25635     4 1s    0.88196
                                    5 1s    0.88196     6 1s   -0.25635


 HOMO      8.1    -0.373337 =     -10.1590eV
 LUMO      9.1     0.174985 =       4.7616eV
 LUMO-HOMO         0.548322 =      14.9206eV


 **********************************************************************************************************************************
 DATASETS  * FILE   NREC   LENGTH (MB)   RECORD NAMES
              1      19       30.72       500      610      700      900      950      970     1000      129      960     1100   
                                          VAR    BASINP    GEOM    SYMINP    ZMAT    AOBASIS   BASIS     P2S    ABASIS      S 
                                         1400     1410     1200     1210     1080     1600     1650     1300     1700   
                                           T        V       H0       H01     AOSYM     SMH    MOLCAS    ERIS     OPER   

              2       4        2.86       700     1000      520     2100   
                                         GEOM     BASIS   MCVARS     RHF  

 PROGRAMS   *        TOTAL    HF-SCF       INT
 CPU TIMES  *         0.43      0.09      0.25
 REAL TIME  *         0.68 SEC
 DISK USED  *        35.71 MB
 **********************************************************************************************************************************


 PROGRAM * MULTI (Direct Multiconfiguration SCF)       Authors: P.J. Knowles, H.-J. Werner (1984)


 Number of closed-shell orbitals:   7 (   7 )
 Number of active  orbitals:        2 (   2 )
 Number of external orbitals:      27 (  27 )

 State symmetry 1

 Number of electrons:     2    Spin symmetry=Singlet   Space symmetry=1
 Number of states:        3
 Number of CSFs:          3   (4 determinants, 4 intermediate states)

 Molecular orbitals read from record     2100.2  Type=RHF/CANONICAL (state 1.1)

 EXTRA SYMMETRY OF MOS IN SYMMETRY 1:   1 1 1 1 1 1 1 2 2 1   1 1 1 1 1 1 2 1 2 1   1 1 1 1 1 1 2 2 2 1   1 1 2 1 1 1

 Wavefunction dump at record             2140.2

 Convergence thresholds  0.10E-01 (gradient)  0.10E-05 (energy)  0.10E-02 (step length)

 Weight factors for state symmetry  1:    0.33333   0.33333   0.33333

 Number of orbital rotations:      257   (    14 Core/Active    189 Core/Virtual   0 Active/Active     54 Active/Virtual)
 Total number of variables:        269

 Micro-Iterations solved by the two-step solver

 ITER. MIC  NCI  NEG     ENERGY(VAR)     ENERGY(PROJ)   ENERGY CHANGE     GRAD(0)  GRAD(ORB)   GRAD(CI)     STEP       TIME

   1    3    3    0     -77.62350792     -77.62967017   -0.00616225    0.13161161 0.00000152 0.00000000  0.63D-01      0.06
   2    2    3    0     -77.62957347     -77.62957718   -0.00000371    0.00300060 0.00000184 0.00000000  0.16D-02      0.09
   3    2    3    0     -77.62957718     -77.62957718   -0.00000000    0.00000215 0.00000000 0.00000000  0.13D-05      0.12

 ** WVFN ****  CONVERGENCE REACHED, FINAL GRADIENT:  0.13D-11



 Results for state 1.1
 =====================

 !MCSCF STATE  1.1 Energy             -77.942946515245
 Nuclear energy                        33.77826154
 Kinetic energy                        78.34449010
 One electron energy                 -170.69059975
 Two electron energy                   58.96939170
 Virial ratio                           1.99487464

 !MCSCF STATE  1.1 Dipole moment        0.00000000    -0.00000000    -0.00000000
 Dipole moment /Debye                   0.00000000    -0.00000000    -0.00000000

 Results for state 2.1
 =====================

 !MCSCF STATE  2.1 Energy             -77.565425545510
 Nuclear energy                        33.77826154
 Kinetic energy                        78.53128406
 One electron energy                 -170.13124466
 Two electron energy                   58.78755758
 Virial ratio                           1.98770097

 !MCSCF STATE  2.1 Dipole moment        0.00000000    -0.00000000    -0.00000000
 Dipole moment /Debye                   0.00000000    -0.00000000    -0.00000000

 Results for state 3.1
 =====================

 !MCSCF STATE  3.1 Energy             -77.380359476559
 Nuclear energy                        33.77826154
 Kinetic energy                        78.71807802
 One electron energy                 -169.57188957
 Two electron energy                   58.41326856
 Virial ratio                           1.98300621

 !MCSCF STATE  3.1 Dipole moment        0.00000000    -0.00000000    -0.00000000
 Dipole moment /Debye                   0.00000000    -0.00000000    -0.00000000

 State-averaged charge density matrix saved on record  2140.2 (density set 1)

 !MCSCF trans         <2.1|DMY|1.1>     0.063461328604 au =     0.161292043554 Debye
 !MCSCF trans         <3.1|DMY|2.1>     0.095959726540 au =     0.243889321780 Debye

 !MCSCF trans         <2.1|DMZ|1.1>    -1.504193962217 au =    -3.823029290492 Debye
 !MCSCF trans         <3.1|DMZ|2.1>    -2.274488171801 au =    -5.780793647687 Debye


 NATURAL ORBITALS (state averaged)
 =================================

  Orbital  Occupation    Energy     Coefficients
    1.1     2.00000   -11.24481     1 1s    0.70418     2 1s    0.70418
    2.1     2.00000   -11.24349     1 1s    0.70448     2 1s   -0.70448
    3.1     2.00000    -1.05264     1 1s    0.31220     2 1s    0.31220
    4.1     2.00000    -0.84410     2 1s   -0.23603
    5.1     2.00000    -0.63668     1 2pz   0.38523     2 2pz  -0.38523
    6.1     2.00000    -0.62554     1 2py   0.29804     2 2py   0.29804
    7.1     2.00000    -0.48547     1 2py   0.26538     2 2py  -0.26538
    8.1     1.00000    -0.22884     1 2px   0.36097     1 2px   0.31698     2 2px   0.36097     2 2px   0.31698
    9.1     1.00000     0.03001     1 2px   0.38566     1 2px   0.67808     2 2px  -0.38566     2 2px  -0.67808
   10.1    -0.00000     0.23328     1 1s   -0.71865     1 2py  -0.52723     2 1s    0.71865     2 2py  -0.52723     3 1s    1.15029
                                    6 1s   -1.15029
   11.1    -0.00000     0.25683     1 1s   -1.46073     1 2pz  -0.63341     2 1s   -1.46073     2 2pz   0.63341     3 1s    0.98509
                                    4 1s    1.02342     5 1s    1.02342     6 1s    0.98509
   12.1    -0.00000     0.34222     1 1s   -2.13956     1 2py   0.59539     2 1s    2.13956     2 2py   0.59539     4 1s    2.02064
                                    5 1s   -2.02064
   13.1    -0.00000     0.37960     1 1s   -1.15655     1 2py   1.84801     1 2pz  -0.29929     2 1s   -1.15655     2 2py  -1.84801
                                    2 2pz   0.29929     3 1s   -1.04963     4 1s    2.40255     5 1s    2.40255     6 1s   -1.04963
   14.1    -0.00000     0.49296     1 1s   -2.72856     1 2py  -0.38965     1 2pz   2.98797     2 1s    2.72856     2 2py  -0.38965
                                    2 2pz   2.98797     3 1s   -0.30312     4 1s   -1.17244     5 1s    1.17244     6 1s    0.30312
   15.1    -0.00000     0.65854     1 1s    0.26586     1 1s    0.28579     1 2pz  -0.54324     1 2py  -0.33169     1 2pz   1.04607
                                    2 1s    0.26586     2 1s    0.28579     2 2pz   0.54324     2 2py   0.33169     2 2pz  -1.04607
                                    4 1s   -0.31858     5 1s   -0.31858
   16.1    -0.00000     0.73922     1 1s   -1.00143     1 2py  -0.39228     1 2py   0.89372     1 2pz  -0.29368     2 1s    1.00143
                                    2 2py  -0.39228     2 2py   0.89372     2 2pz  -0.29368     3 1s   -0.26201     4 1s    0.42550
                                    4 1s    0.68204     5 1s   -0.42550     5 1s   -0.68204     6 1s    0.26201
   17.1    -0.00000     0.76777     1 2px  -0.74662     1 2px   0.63562     2 2px  -0.74662     2 2px   0.63562
   18.1    -0.00000     0.86314     1 1s   -0.82837     1 1s    1.86243     1 2py  -1.17372     1 2pz   0.47197     2 1s   -0.82837
                                    2 1s    1.86243     2 2py   1.17372     2 2pz  -0.47197     3 1s   -0.45103     3 1s    0.40176
                                    4 1s   -0.35659     4 1s   -1.26812     5 1s   -0.35659     5 1s   -1.26812     6 1s   -0.45103
                                    6 1s    0.40176
   19.1    -0.00000     0.86836     1 2px  -0.79987     1 2px   1.10933     2 2px   0.79987     2 2px  -1.10933
   20.1    -0.00000     0.94588     1 1s   -0.34309     1 2pz   0.56312     1 2pz  -0.58263     2 1s    0.34309     2 2pz   0.56312
                                    2 2pz  -0.58263     3 1s    0.58552     3 1s   -0.31344     4 1s    0.34512     5 1s   -0.34512
                                    6 1s   -0.58552     6 1s    0.31344
   21.1    -0.00000     1.03398     1 1s    0.31609     1 1s   -0.40286     1 2py   0.54319     1 2pz   0.40987     1 2py  -0.85322
                                    1 2pz  -0.61079     2 1s   -0.31609     2 1s    0.40286     2 2py   0.54319     2 2pz   0.40987
                                    2 2py  -0.85322     2 2pz  -0.61079     3 1s   -0.47528     3 1s    1.24703     4 1s   -0.33085
                                    5 1s    0.33085     6 1s    0.47528     6 1s   -1.24703
   22.1    -0.00000     1.05098     1 1s    0.75227     1 1s   -0.93048     1 2py   0.61969     1 2py  -1.58047     1 2pz  -0.30156
                                    2 1s    0.75227     2 1s   -0.93048     2 2py  -0.61969     2 2py   1.58047     2 2pz   0.30156
                                    3 1s   -0.41022     3 1s    1.28929     4 1s   -0.46159     5 1s   -0.46159     6 1s   -0.41022
                                    6 1s    1.28929
   23.1    -0.00000     1.29307     1 1s    0.53927     1 1s   -1.92353     1 2py  -0.63502     1 2py   3.19012     1 2pz  -0.48549
                                    2 1s    0.53927     2 1s   -1.92353     2 2py   0.63502     2 2py  -3.19012     2 2pz   0.48549
                                    3 1s   -0.58754     3 1s   -0.42592     4 1s    2.44419     5 1s    2.44419     6 1s   -0.58754
                                    6 1s   -0.42592
   24.1    -0.00000     1.31331     1 1s    1.19282     1 1s   -4.58280     1 2pz  -0.45615     1 2py  -0.29341     1 2pz   2.18696
                                    2 1s   -1.19282     2 1s    4.58280     2 2pz  -0.45615     2 2py  -0.29341     2 2pz   2.18696
                                    3 1s    0.27595     4 1s    0.34504     5 1s   -0.34504     6 1s   -0.27595
   25.1    -0.00000     1.36961     1 1s   -1.13406     1 1s    2.94911     1 2py   0.33599     1 2pz  -0.33766     1 2py  -0.62784
                                    2 1s    1.13406     2 1s   -2.94911     2 2py   0.33599     2 2pz  -0.33766     2 2py  -0.62784
                                    4 1s    0.51203     4 1s   -1.69950     5 1s   -0.51203     5 1s    1.69950
   26.1    -0.00000     1.57177     1 1s   -0.60484     1 1s    0.47566     1 2py   0.25360     1 2pz  -0.26281     1 2py   1.22185
                                    2 1s   -0.60484     2 1s    0.47566     2 2py  -0.25360     2 2pz   0.26281     2 2py  -1.22185
                                    3 1s   -0.40952     3 1s   -0.31123     4 1s    0.82172     5 1s    0.82172     6 1s   -0.40952
                                    6 1s   -0.31123
   27.1    -0.00000     1.70370     1 3d1+  0.61657     2 3d1+ -0.61657
   28.1    -0.00000     1.80130     1 3d2-  0.68126     2 3d2-  0.68126
   29.1    -0.00000     2.09818     1 3d2-  0.73345     2 3d2- -0.73345
   30.1    -0.00000     2.17898     1 1s   -0.67435     1 2py   0.50039     1 2pz  -0.26273     1 3d2+  0.68568     2 1s   -0.67435
                                    2 2py  -0.50039     2 2pz   0.26273     2 3d2+  0.68568     3 1s    0.26266     4 1s    0.52075
                                    4 1s    0.42201     5 1s    0.52075     5 1s    0.42201     6 1s    0.26266
   31.1    -0.00000     2.24215     1 1s   -0.32060     1 1s    0.70440     1 3d2+ -0.38395     1 3d1-  0.56228     2 1s    0.32060
                                    2 1s   -0.70440     2 3d2+  0.38395     2 3d1- -0.56228     3 1s   -0.47545     4 1s    0.37636
                                    5 1s   -0.37636     6 1s    0.47545
   32.1    -0.00000     2.36537     1 1s   -0.52850     1 1s    0.26586     1 2pz   0.30276     1 2pz  -0.40608     1 3d0   0.69531
                                    2 1s   -0.52850     2 1s    0.26586     2 2pz  -0.30276     2 2pz   0.40608     2 3d0   0.69531
   33.1    -0.00000     2.67626     1 2px  -0.26425     1 3d1+  0.90225     2 2px   0.26425     2 3d1+  0.90225
   34.1    -0.00000     2.74774     1 1s   -0.95289     1 2py   0.35115     1 3d2+  0.71384     1 3d1-  0.41569     2 1s    0.95289
                                    2 2py   0.35115     2 3d2+ -0.71384     2 3d1- -0.41569     4 1s    0.95200     5 1s   -0.95200
   35.1    -0.00000     3.03387     1 1s    0.30698     1 1s    2.10396     1 2pz  -0.77197     1 2pz  -1.21203     1 3d0   1.10832
                                    2 1s   -0.30698     2 1s   -2.10396     2 2pz  -0.77197     2 2pz  -1.21203     2 3d0  -1.10832
   36.1    -0.00000     3.16129     1 1s   -0.32891     1 2py   0.64223     1 3d2+  0.27307     1 3d1-  0.98314     2 1s   -0.32891
                                    2 2py  -0.64223     2 3d2+  0.27307     2 3d1-  0.98314     3 1s   -0.25778     4 1s    0.88520
                                    5 1s    0.88520     6 1s   -0.25778


 Natural orbital dump (state averaged) at molpro section  2140.2    (Orbital set 2)



 **********************************************************************************************************************************
 DATASETS  * FILE   NREC   LENGTH (MB)   RECORD NAMES
              1      20       31.45       500      610      700      900      950      970     1000      129      960     1100   
                                          VAR    BASINP    GEOM    SYMINP    ZMAT    AOBASIS   BASIS     P2S    ABASIS      S 
                                         1400     1410     1200     1210     1080     1600     1650     1300     1700     1380   
                                           T        V       H0       H01     AOSYM     SMH    MOLCAS    ERIS     OPER     JKOP   

              2       5        5.42       700     1000      520     2100     2140   
                                         GEOM     BASIS   MCVARS     RHF     MCSCF   

 PROGRAMS   *        TOTAL     MULTI    HF-SCF       INT
 CPU TIMES  *         0.60      0.16      0.09      0.25
 REAL TIME  *         0.87 SEC
 DISK USED  *        38.63 MB
 **********************************************************************************************************************************
 Molecular orbitals read from record     2140.2  Type=MCSCF/NATURAL (state averaged)
 Occupation numbers read from record     2140.2  Type=MCSCF/NATURAL (state averaged)
 Orbital energies read from record       2140.2  Type=MCSCF/NATURAL (state averaged)
 Redundancy group numbers read from rec  2140.2  Type=MCSCF/NATURAL (state averaged)

 MULTI/6-31G* energy=    -77.380359476559

           MULTI          HF-SCF
    -77.38035948    -77.92476501
 **********************************************************************************************************************************
 Molpro calculation terminated
