
 Primary working directories    : /scratch.local/johan406.molpro_temp/molpro.M5k3derB5g
 Secondary working directories  : /scratch.local/johan406.molpro_temp/molpro.M5k3derB5g
 Wavefunction directory         : /home/goodpast/johan406/wfu/
 Main file repository           : /scratch.local/johan406.molpro_temp/molpro.M5k3derB5g/

 id        : roweumn

 Nodes     nprocs
 cn0117       1

 Using customized tuning parameters: mindgm=1; mindgv=20; mindgc=4; mindgr=1; noblas=0; minvec=7
 default implementation of scratch files=df  


 Variables initialized (934), CPU time= 0.01 sec
                                                                                 !leave this line blank
 
 gprint, orbitals=30
 memory, 125., m
 symmetry, nosym
 nelect=16
 basis=6-31g*
 
 geometry={
 C 0.0 -0.0272 0.6691
 C 0.0 0.0272 -0.6691
 H 0.0 1.0779 1.3357
 H -0.0 -0.7519 1.1339
 H 0.0 0.7519 -1.1339
 H 0.0 -1.0779 -1.3357
 }
 
 hf
 {multi,
 closed 7
 occ 9
 wf,spin=0;STATE,3
 }
 
 Commands  initialized (763), CPU time= 0.01 sec, 617 directives.
 Default parameters read. Elapsed time= 0.08 sec

 Checking input...
 Passed
1


                                         ***  PROGRAM SYSTEM MOLPRO  ***
                                       Copyright, TTI GmbH Stuttgart, 2015
                                    Version 2019.2 linked Oct 25 2019 22:50:27


 **********************************************************************************************************************************
 LABEL *                                                                                 
  64 bit serial version                                                                  DATE: 26-Jan-23          TIME: 21:09:11  
 **********************************************************************************************************************************

 SHA1:             8dbd9ae1082e4ce945b0f27595c9eb2d4aa09004
 **********************************************************************************************************************************


 Variable memory set to  125000000 words,  buffer space 

 SETTING NELECT         =        16.00000000                                  
 SETTING BASIS          =    6-31G*
 ZSYMEL=NOSYM


Geometry recognized as XYZ



 Recomputing integrals since basis changed


 Using spherical harmonics

 Library entry C      S 6-31G                selected for orbital group  1
 Library entry C      P 6-31G                selected for orbital group  1
 Library entry C      D 6-31G*               selected for orbital group  1
 Library entry H      S 6-31G                selected for orbital group  2


 PROGRAM * SEWARD (Integral evaluation for generally contracted gaussian basis sets)     Author: Roland Lindh, 1990

 Geometry written to block  1 of record 700


 Point group  C1  



 ATOMIC COORDINATES

 NR  ATOM    CHARGE       X              Y              Z

   1  C       6.00    0.000000000   -0.051400551    1.264415750
   2  C       6.00    0.000000000    0.051400551   -1.264415750
   3  H       1.00    0.000000000    2.036935790    2.524107185
   4  H       1.00    0.000000000   -1.420885073    2.142760453
   5  H       1.00    0.000000000    1.420885073   -2.142760453
   6  H       1.00    0.000000000   -2.036935790   -2.524107185

 Bond lengths in Bohr (Angstrom)

 1-2  2.530920153  1-3  2.438846281  1-4  1.626953372  2-5  1.626953372  2-6  2.438846281
     ( 1.339305268)     ( 1.290581873)     ( 0.860946648)     ( 0.860946648)     ( 1.290581873)

 Bond angles

  1-2-5  125.00273220   1-2-6  118.77063513   2-1-3  118.77063513   2-1-4  125.00273220

  3-1-4  116.22663268   5-2-6  116.22663268

 NUCLEAR CHARGE:                   16
 NUMBER OF PRIMITIVE AOS:          72
 NUMBER OF SYMMETRY AOS:           70
 NUMBER OF CONTRACTIONS:           36   (   36A   )
 NUMBER OF CORE ORBITALS:           2   (    2A   )
 NUMBER OF VALENCE ORBITALS:       12   (   12A   )


 NUCLEAR REPULSION ENERGY   33.90715166

 EXTRA SYMMETRY OF AOS IN SYMMETRY 1:   1 1 1 2 1 1 2 1 1 1   2 2 1 1 1 1 1 2 1 1   2 1 1 1 2 2 1 1 1 1   1 1 1 1 1 1

 Eigenvalues of metric

         1 0.828E-02 0.108E-01 0.279E-01 0.504E-01 0.972E-01 0.154E+00 0.187E+00 0.198E+00


 Contracted 2-electron integrals neglected if value below      1.0D-11
 AO integral compression algorithm  1   Integral accuracy      1.0D-11

     1.049 MB (compressed) written to integral file ( 36.6%)


 NUMBER OF SORTED TWO-ELECTRON INTEGRALS:     222111.     BUFFER LENGTH:  32768
 NUMBER OF SEGMENTS:   1  SEGMENT LENGTH:     222111      RECORD LENGTH: 524288

 Memory used in sort:       0.78 MW

 SORT1 READ      284735. AND WROTE      118721. INTEGRALS IN      1 RECORDS. CPU TIME:     0.01 SEC, REAL TIME:     0.00 SEC
 SORT2 READ      118721. AND WROTE      222111. INTEGRALS IN      4 RECORDS. CPU TIME:     0.02 SEC, REAL TIME:     0.03 SEC

 FILE SIZES:   FILE 1:    31.1 MBYTE,  FILE 4:     4.2 MBYTE,   TOTAL:     35.4 MBYTE

 OPERATOR DM      FOR CENTER  0  COORDINATES:    0.000000    0.000000    0.000000


 **********************************************************************************************************************************
 DATASETS  * FILE   NREC   LENGTH (MB)   RECORD NAMES
              1      19       30.72       500      610      700      900      950      970     1000      129      960     1100   
                                          VAR    BASINP    GEOM    SYMINP    ZMAT    AOBASIS   BASIS     P2S    ABASIS      S 
                                         1400     1410     1200     1210     1080     1600     1650     1300     1700   
                                           T        V       H0       H01     AOSYM     SMH    MOLCAS    ERIS     OPER   

 PROGRAMS   *        TOTAL       INT
 CPU TIMES  *         0.36      0.26
 REAL TIME  *         0.56 SEC
 DISK USED  *        35.71 MB
 **********************************************************************************************************************************


 PROGRAM * RHF-SCF (CLOSED SHELL)       Authors: W. Meyer, H.-J. Werner


 NUMBER OF ELECTRONS:       8+    8-    SPACE SYMMETRY=1    SPIN SYMMETRY: Singlet 
 CONVERGENCE THRESHOLDS:    1.00E-05 (Density)    1.00E-07 (Energy)
 MAX. NUMBER OF ITERATIONS:       60
 INTERPOLATION TYPE:            DIIS
 INTERPOLATION STEPS:              2 (START)      1 (STEP)
 LEVEL SHIFTS:                  0.00 (CLOSED)  0.00 (OPEN) 



 Orbital guess generated from atomic densities. Full valence occupancy:    8

 Molecular orbital dump at record        2100.2

 Initial occupancy:   8

 ITERATION    DDIFF          GRAD             ENERGY        2-EL.EN.            DIPOLE MOMENTS         DIIS   ORB.
    1      0.000D+00      0.000D+00       -77.85247642    119.524122    0.00000    0.00000    0.00000    0    start
    2      0.000D+00      0.951D-02       -77.88161299    117.208861   -0.00000   -0.00000    0.00000    1    diag
    3      0.968D-02      0.353D-02       -77.88473331    117.937630   -0.00000    0.00000    0.00000    2    diag
    4      0.315D-02      0.856D-03       -77.88509084    117.822546   -0.00000    0.00000   -0.00000    3    diag
    5      0.139D-02      0.983D-04       -77.88509593    117.823192   -0.00000    0.00000    0.00000    4    diag
    6      0.217D-03      0.121D-04       -77.88509602    117.822792   -0.00000    0.00000    0.00000    5    diag
    7      0.306D-04      0.223D-05       -77.88509602    117.822783   -0.00000   -0.00000   -0.00000    6    diag
    8      0.656D-05      0.289D-06       -77.88509602    117.822768   -0.00000    0.00000   -0.00000    0    orth

 Final occupancy:   8

 !RHF STATE  1.1 Energy               -77.885096019817
 Nuclear energy                        33.90715166
 One-electron energy                 -170.70363144
 Two-electron energy                   58.91138376
 Virial quotient                       -0.99380906
 !RHF STATE  1.1 Dipole moment         -0.00000000     0.00000000    -0.00000000
 Dipole moment /Debye                  -0.00000000     0.00000000    -0.00000000

 ELECTRON ORBITALS
 =================

  Orbital  Occupation    Energy     Coefficients
    1.1     2.00000   -11.23177     1 1s    0.70416     2 1s    0.70416
    2.1     2.00000   -11.23017     1 1s    0.70451     2 1s   -0.70451
    3.1     2.00000    -1.04358     1 1s    0.30482     2 1s    0.30482
    4.1     2.00000    -0.84933     1 1s    0.23194
    5.1     2.00000    -0.63187     1 2pz   0.38054     2 2pz  -0.38054
    6.1     2.00000    -0.60674     1 2py   0.28833     2 2py   0.28833
    7.1     2.00000    -0.47228     1 2py   0.25006     2 2py  -0.25006
    8.1     2.00000    -0.37469     1 2px   0.37779     1 2px   0.30438     2 2px   0.37779     2 2px   0.30438
    9.1     0.00000     0.17379     1 2px   0.34995     1 2px   0.72209     2 2px  -0.34995     2 2px  -0.72209
   10.1     0.00000     0.23126     1 1s   -0.68952     1 2py  -0.50192     2 1s    0.68952     2 2py  -0.50192     3 1s    1.11162
                                    6 1s   -1.11162
   11.1     0.00000     0.25795     1 1s   -1.47291     1 2pz  -0.62792     2 1s   -1.47291     2 2pz   0.62792     3 1s    0.95745
                                    4 1s    1.04967     5 1s    1.04967     6 1s    0.95745
   12.1     0.00000     0.34870     1 1s   -2.22534     1 2py   0.62217     2 1s    2.22534     2 2py   0.62217     4 1s    2.12102
                                    5 1s   -2.12102
   13.1     0.00000     0.38011     1 1s   -1.33131     1 2py   1.85469     1 2pz  -0.32696     2 1s   -1.33131     2 2py  -1.85469
                                    2 2pz   0.32696     3 1s   -0.99187     4 1s    2.53929     5 1s    2.53929     6 1s   -0.99187
   14.1     0.00000     0.49762     1 1s   -2.66032     1 2py  -0.46514     1 2pz   3.02812     2 1s    2.66032     2 2py  -0.46514
                                    2 2pz   3.02812     3 1s   -0.26055     4 1s   -1.30196     5 1s    1.30196     6 1s    0.26055
   15.1     0.00000     0.67002     1 1s    0.44277     1 2pz  -0.54993     1 2py  -0.43802     1 2pz   1.08572     2 1s    0.44277
                                    2 2pz   0.54993     2 2py   0.43802     2 2pz  -1.08572     4 1s   -0.46595     5 1s   -0.46595
   16.1     0.00000     0.74736     1 1s   -1.21303     1 2py  -0.37958     1 2py   0.91973     1 2pz  -0.30134     2 1s    1.21303
                                    2 2py  -0.37958     2 2py   0.91973     2 2pz  -0.30134     3 1s   -0.25541     4 1s    0.42389
                                    4 1s    0.81359     5 1s   -0.42389     5 1s   -0.81359     6 1s    0.25541
   17.1     0.00000     0.77208     1 2px  -0.73945     1 2px   0.64147     2 2px  -0.73945     2 2px   0.64147
   18.1     0.00000     0.86713     1 1s   -0.81918     1 1s    1.96275     1 2py  -1.32563     1 2pz   0.45861     2 1s   -0.81918
                                    2 1s    1.96275     2 2py   1.32563     2 2pz  -0.45861     3 1s   -0.45956     3 1s    0.47505
                                    4 1s   -0.34901     4 1s   -1.44518     5 1s   -0.34901     5 1s   -1.44518     6 1s   -0.45956
                                    6 1s    0.47505
   19.1     0.00000     0.88369     1 2px  -0.81463     1 2px   1.08123     2 2px   0.81463     2 2px  -1.08123
   20.1     0.00000     0.96483     1 1s   -0.37883     1 2pz   0.53184     1 2pz  -0.49476     2 1s    0.37883     2 2pz   0.53184
                                    2 2pz  -0.49476     3 1s    0.62649     3 1s   -0.41169     4 1s    0.38545     5 1s   -0.38545
                                    6 1s   -0.62649     6 1s    0.41169
   21.1     0.00000     1.03292     1 1s   -0.33587     1 1s    0.47303     1 2py  -0.53364     1 2pz  -0.45827     1 2py   0.80779
                                    1 2pz   0.65378     2 1s    0.33587     2 1s   -0.47303     2 2py  -0.53364     2 2pz  -0.45827
                                    2 2py   0.80779     2 2pz   0.65378     3 1s    0.43935     3 1s   -1.20045     6 1s   -0.43935
                                    6 1s    1.20045
   22.1     0.00000     1.04441     1 1s    0.79041     1 1s   -1.00159     1 2py   0.59099     1 2py  -1.41159     1 2pz  -0.31199
                                    2 1s    0.79041     2 1s   -1.00159     2 2py  -0.59099     2 2py   1.41159     2 2pz   0.31199
                                    3 1s   -0.41294     3 1s    1.22236     4 1s   -0.34121     5 1s   -0.34121     6 1s   -0.41294
                                    6 1s    1.22236
   23.1     0.00000     1.30621     1 1s    0.46772     1 1s   -2.03167     1 2py  -0.63880     1 2py   3.31455     1 2pz  -0.49704
                                    2 1s    0.46772     2 1s   -2.03167     2 2py   0.63880     2 2py  -3.31455     2 2pz   0.49704
                                    3 1s   -0.60845     3 1s   -0.43212     4 1s    2.57305     5 1s    2.57305     6 1s   -0.60845
                                    6 1s   -0.43212
   24.1     0.00000     1.33605     1 1s   -1.29695     1 1s    4.84801     1 2pz   0.41113     1 2pz  -2.15691     2 1s    1.29695
                                    2 1s   -4.84801     2 2pz   0.41113     2 2pz  -2.15691     3 1s   -0.26919     4 1s   -0.28546
                                    5 1s    0.28546     6 1s    0.26919
   25.1     0.00000     1.40934     1 1s   -1.00167     1 1s    2.49031     1 2py   0.38001     1 2pz  -0.36205     1 2py  -0.69673
                                    1 2pz   0.32870     2 1s    1.00167     2 1s   -2.49031     2 2py   0.38001     2 2pz  -0.36205
                                    2 2py  -0.69673     2 2pz   0.32870     4 1s    0.54835     4 1s   -1.77736     5 1s   -0.54835
                                    5 1s    1.77736
   26.1     0.00000     1.61532     1 1s   -0.66035     1 1s    0.59939     1 2py   0.31141     1 2pz  -0.28213     1 2py   0.93109
                                    2 1s   -0.66035     2 1s    0.59939     2 2py  -0.31141     2 2pz   0.28213     2 2py  -0.93109
                                    3 1s   -0.36816     4 1s    0.81328     4 1s   -0.26274     5 1s    0.81328     5 1s   -0.26274
                                    6 1s   -0.36816
   27.1     0.00000     1.72556     1 3d1+  0.61612     2 3d1+ -0.61612
   28.1     0.00000     1.81236     1 3d2-  0.68126     2 3d2-  0.68126
   29.1     0.00000     2.11851     1 3d2-  0.73257     2 3d2- -0.73257
   30.1     0.00000     2.19163     1 1s   -0.69426     1 2py   0.56820     1 2pz  -0.27313     1 3d2+  0.67237     2 1s   -0.69426
                                    2 2py  -0.56820     2 2pz   0.27313     2 3d2+  0.67237     4 1s    0.54964     4 1s    0.47602
                                    5 1s    0.54964     5 1s    0.47602
   31.1     0.00000     2.24294     1 1s   -0.34714     1 1s    0.73302     1 3d2+ -0.41232     1 3d1-  0.54090     2 1s    0.34714
                                    2 1s   -0.73302     2 3d2+  0.41232     2 3d1- -0.54090     3 1s   -0.44932     4 1s    0.36664
                                    5 1s   -0.36664     6 1s    0.44932
   32.1     0.00000     2.37890     1 1s   -0.53296     1 1s    0.30284     1 2pz   0.30100     1 2pz  -0.39064     1 3d0   0.69606
                                    2 1s   -0.53296     2 1s    0.30284     2 2pz  -0.30100     2 2pz   0.39064     2 3d0   0.69606
   33.1     0.00000     2.69510     1 2px  -0.26316     1 3d1+  0.90155     2 2px   0.26316     2 3d1+  0.90155
   34.1     0.00000     2.80851     1 1s   -0.83003     1 2py   0.40149     1 2pz  -0.29311     1 3d2+  0.70197     1 3d1-  0.44799
                                    2 1s    0.83003     2 2py   0.40149     2 2pz  -0.29311     2 3d2+ -0.70197     2 3d1- -0.44799
                                    4 1s    1.02780     5 1s   -1.02780
   35.1     0.00000     3.04852     1 1s    0.31811     1 1s    2.10041     1 2pz  -0.76795     1 2pz  -1.20494     1 3d0   1.10310
                                    2 1s   -0.31811     2 1s   -2.10041     2 2pz  -0.76795     2 2pz  -1.20494     2 3d0  -1.10310
   36.1     0.00000     3.21271     1 1s   -0.25559     1 1s   -0.38518     1 2py   0.66436     1 3d2+  0.31138     1 3d1-  0.98921
                                    2 1s   -0.25559     2 1s   -0.38518     2 2py  -0.66436     2 3d2+  0.31138     2 3d1-  0.98921
                                    4 1s    0.97058     5 1s    0.97058


 HOMO      8.1    -0.374691 =     -10.1958eV
 LUMO      9.1     0.173791 =       4.7291eV
 LUMO-HOMO         0.548482 =      14.9250eV


 **********************************************************************************************************************************
 DATASETS  * FILE   NREC   LENGTH (MB)   RECORD NAMES
              1      19       30.72       500      610      700      900      950      970     1000      129      960     1100   
                                          VAR    BASINP    GEOM    SYMINP    ZMAT    AOBASIS   BASIS     P2S    ABASIS      S 
                                         1400     1410     1200     1210     1080     1600     1650     1300     1700   
                                           T        V       H0       H01     AOSYM     SMH    MOLCAS    ERIS     OPER   

              2       4        2.86       700     1000      520     2100   
                                         GEOM     BASIS   MCVARS     RHF  

 PROGRAMS   *        TOTAL    HF-SCF       INT
 CPU TIMES  *         0.46      0.10      0.26
 REAL TIME  *         0.68 SEC
 DISK USED  *        35.71 MB
 **********************************************************************************************************************************


 PROGRAM * MULTI (Direct Multiconfiguration SCF)       Authors: P.J. Knowles, H.-J. Werner (1984)


 Number of closed-shell orbitals:   7 (   7 )
 Number of active  orbitals:        2 (   2 )
 Number of external orbitals:      27 (  27 )

 State symmetry 1

 Number of electrons:     2    Spin symmetry=Singlet   Space symmetry=1
 Number of states:        3
 Number of CSFs:          3   (4 determinants, 4 intermediate states)

 Molecular orbitals read from record     2100.2  Type=RHF/CANONICAL (state 1.1)

 EXTRA SYMMETRY OF MOS IN SYMMETRY 1:   1 1 1 1 1 1 1 2 2 1   1 1 1 1 1 1 2 1 2 1   1 1 1 1 1 1 2 2 2 1   1 1 2 1 1 1

 Wavefunction dump at record             2140.2

 Convergence thresholds  0.10E-01 (gradient)  0.10E-05 (energy)  0.10E-02 (step length)

 Weight factors for state symmetry  1:    0.33333   0.33333   0.33333

 Number of orbital rotations:      257   (    14 Core/Active    189 Core/Virtual   0 Active/Active     54 Active/Virtual)
 Total number of variables:        269

 Micro-Iterations solved by the two-step solver

 ITER. MIC  NCI  NEG     ENERGY(VAR)     ENERGY(PROJ)   ENERGY CHANGE     GRAD(0)  GRAD(ORB)   GRAD(CI)     STEP       TIME

   1    3    3    0     -77.58381193     -77.58994662   -0.00613469    0.13127112 0.00000151 0.00000000  0.62D-01      0.06
   2    2    3    0     -77.58985056     -77.58985425   -0.00000369    0.00298561 0.00000183 0.00000000  0.16D-02      0.10
   3    2    3    0     -77.58985425     -77.58985425   -0.00000000    0.00000214 0.00000000 0.00000000  0.13D-05      0.13

 ** WVFN ****  CONVERGENCE REACHED, FINAL GRADIENT:  0.13D-11



 Results for state 1.1
 =====================

 !MCSCF STATE  1.1 Energy             -77.903452574306
 Nuclear energy                        33.90715166
 Kinetic energy                        78.43142499
 One electron energy                 -170.82898269
 Two electron energy                   59.01837845
 Virial ratio                           1.99326836

 !MCSCF STATE  1.1 Dipole moment        0.00000000     0.00000000    -0.00000000
 Dipole moment /Debye                   0.00000000     0.00000000    -0.00000000

 Results for state 2.1
 =====================

 !MCSCF STATE  2.1 Energy             -77.525395879563
 Nuclear energy                        33.90715166
 Kinetic energy                        78.62045479
 One electron energy                 -170.27442873
 Two electron energy                   58.84188119
 Virial ratio                           1.98607158

 !MCSCF STATE  2.1 Dipole moment        0.00000000     0.00000000    -0.00000000
 Dipole moment /Debye                   0.00000000     0.00000000    -0.00000000

 Results for state 3.1
 =====================

 !MCSCF STATE  3.1 Energy             -77.340714290539
 Nuclear energy                        33.90715166
 Kinetic energy                        78.80948459
 One electron energy                 -169.71987478
 Two electron energy                   58.47200883
 Virial ratio                           1.98136303

 !MCSCF STATE  3.1 Dipole moment        0.00000000     0.00000000    -0.00000000
 Dipole moment /Debye                   0.00000000     0.00000000    -0.00000000

 State-averaged charge density matrix saved on record  2140.2 (density set 1)

 !MCSCF trans         <2.1|DMY|1.1>     0.073277313416 au =     0.186240154233 Debye
 !MCSCF trans         <3.1|DMY|2.1>     0.110976015390 au =     0.282054421194 Debye

 !MCSCF trans         <2.1|DMZ|1.1>    -1.502040120332 au =    -3.817555129033 Debye
 !MCSCF trans         <3.1|DMZ|2.1>    -2.274789013654 au =    -5.781558261323 Debye


 NATURAL ORBITALS (state averaged)
 =================================

  Orbital  Occupation    Energy     Coefficients
    1.1     2.00000   -11.24644     1 1s    0.70417     2 1s    0.70417
    2.1     2.00000   -11.24512     1 1s    0.70447     2 1s   -0.70447
    3.1     2.00000    -1.05624     1 1s    0.31280     2 1s    0.31280
    4.1     2.00000    -0.85637     1 1s    0.23172
    5.1     2.00000    -0.64659     1 2pz   0.38424     2 2pz  -0.38424
    6.1     2.00000    -0.61908     1 2py   0.29287     2 2py   0.29287
    7.1     2.00000    -0.47930     1 2py   0.25830     2 2py  -0.25830
    8.1     1.00000    -0.22997     1 2px   0.36202     1 2px   0.31617     2 2px   0.36202     2 2px   0.31617
    9.1     1.00000     0.02878     1 2px   0.38758     1 2px   0.67506     2 2px  -0.38758     2 2px  -0.67506
   10.1    -0.00000     0.22291     1 1s   -0.67901     1 2py  -0.50649     2 1s    0.67901     2 2py  -0.50649     3 1s    1.10347
                                    6 1s   -1.10347
   11.1    -0.00000     0.25445     1 1s   -1.44696     1 2pz  -0.62604     2 1s   -1.44696     2 2pz   0.62604     3 1s    0.97202
                                    4 1s    1.00920     5 1s    1.00920     6 1s    0.97202
   12.1    -0.00000     0.34703     1 1s   -2.24251     1 2py   0.61102     2 1s    2.24251     2 2py   0.61102     4 1s    2.11324
                                    5 1s   -2.11324
   13.1    -0.00000     0.37731     1 1s   -1.35610     1 2py   1.84360     1 2pz  -0.34855     2 1s   -1.35610     2 2py  -1.84360
                                    2 2pz   0.34855     3 1s   -0.97226     4 1s    2.55237     5 1s    2.55237     6 1s   -0.97226
   14.1    -0.00000     0.49452     1 1s   -2.65126     1 2py  -0.44951     1 2pz   3.00458     2 1s    2.65126     2 2py  -0.44951
                                    2 2pz   3.00458     3 1s   -0.27258     4 1s   -1.29195     5 1s    1.29195     6 1s    0.27258
   15.1    -0.00000     0.65874     1 1s    0.26941     1 1s    0.32866     1 2pz  -0.54164     1 2py  -0.37938     1 2pz   1.05623
                                    2 1s    0.26941     2 1s    0.32866     2 2pz   0.54164     2 2py   0.37938     2 2pz  -1.05623
                                    4 1s   -0.37562     5 1s   -0.37562
   16.1    -0.00000     0.73535     1 1s   -1.14900     1 2py  -0.38686     1 2py   0.93050     1 2pz  -0.35257     2 1s    1.14900
                                    2 2py  -0.38686     2 2py   0.93050     2 2pz  -0.35257     4 1s    0.42551     4 1s    0.82586
                                    5 1s   -0.42551     5 1s   -0.82586
   17.1    -0.00000     0.76656     1 2px  -0.74642     1 2px   0.63609     2 2px  -0.74642     2 2px   0.63609
   18.1    -0.00000     0.86445     1 1s   -0.80951     1 1s    1.99134     1 2py  -1.35532     1 2pz   0.50105     2 1s   -0.80951
                                    2 1s    1.99134     2 2py   1.35532     2 2pz  -0.50105     3 1s   -0.46128     3 1s    0.48017
                                    4 1s   -0.35117     4 1s   -1.47824     5 1s   -0.35117     5 1s   -1.47824     6 1s   -0.46128
                                    6 1s    0.48017
   19.1    -0.00000     0.86678     1 2px  -0.79879     1 2px   1.11103     2 2px   0.79879     2 2px  -1.11103
   20.1    -0.00000     0.94896     1 2pz   0.54948     1 2pz  -0.59132     2 2pz   0.54948     2 2pz  -0.59132     3 1s    0.61231
                                    3 1s   -0.37392     4 1s    0.36356     5 1s   -0.36356     6 1s   -0.61231     6 1s    0.37392
   21.1    -0.00000     1.02256     1 1s   -0.32251     1 1s    0.40943     1 2py  -0.53165     1 2pz  -0.43428     1 2py   0.82421
                                    1 2pz   0.63823     2 1s    0.32251     2 1s   -0.40943     2 2py  -0.53165     2 2pz  -0.43428
                                    2 2py   0.82421     2 2pz   0.63823     3 1s    0.45926     3 1s   -1.21635     4 1s    0.28404
                                    5 1s   -0.28404     6 1s   -0.45926     6 1s    1.21635
   22.1    -0.00000     1.03621     1 1s    0.78148     1 1s   -0.98337     1 2py   0.59676     1 2py  -1.44505     1 2pz  -0.31766
                                    2 1s    0.78148     2 1s   -0.98337     2 2py  -0.59676     2 2py   1.44505     2 2pz   0.31766
                                    3 1s   -0.40645     3 1s    1.23050     4 1s   -0.37172     5 1s   -0.37172     6 1s   -0.40645
                                    6 1s    1.23050
   23.1    -0.00000     1.29870     1 1s    0.47253     1 1s   -2.03770     1 2py  -0.63137     1 2py   3.29992     1 2pz  -0.50073
                                    2 1s    0.47253     2 1s   -2.03770     2 2py   0.63137     2 2py  -3.29992     2 2pz   0.50073
                                    3 1s   -0.61456     3 1s   -0.42009     4 1s    2.56836     5 1s    2.56836     6 1s   -0.61456
                                    6 1s   -0.42009
   24.1    -0.00000     1.31646     1 1s   -1.30962     1 1s    4.88218     1 2pz   0.40688     1 2pz  -2.15072     2 1s    1.30962
                                    2 1s   -4.88218     2 2pz   0.40688     2 2pz  -2.15072     3 1s   -0.27392     4 1s   -0.27910
                                    5 1s    0.27910     6 1s    0.27392
   25.1    -0.00000     1.40096     1 1s   -0.99008     1 1s    2.45083     1 2py   0.36466     1 2pz  -0.37762     1 2py  -0.68941
                                    1 2pz   0.36906     2 1s    0.99008     2 1s   -2.45083     2 2py   0.36466     2 2pz  -0.37762
                                    2 2py  -0.68941     2 2pz   0.36906     4 1s    0.54246     4 1s   -1.78193     5 1s   -0.54246
                                    5 1s    1.78193
   26.1    -0.00000     1.60760     1 1s   -0.66270     1 1s    0.60877     1 2py   0.30465     1 2pz  -0.28311     1 2py   0.92787
                                    2 1s   -0.66270     2 1s    0.60877     2 2py  -0.30465     2 2pz   0.28311     2 2py  -0.92787
                                    3 1s   -0.36499     4 1s    0.80934     4 1s   -0.26916     5 1s    0.80934     5 1s   -0.26916
                                    6 1s   -0.36499
   27.1    -0.00000     1.70056     1 3d1+  0.61586     2 3d1+ -0.61586
   28.1    -0.00000     1.79935     1 3d2-  0.68128     2 3d2-  0.68128
   29.1    -0.00000     2.09626     1 3d2-  0.73256     2 3d2- -0.73256
   30.1    -0.00000     2.17710     1 1s   -0.68859     1 2py   0.57045     1 2pz  -0.27745     1 3d2+  0.67177     2 1s   -0.68859
                                    2 2py  -0.57045     2 2pz   0.27745     2 3d2+  0.67177     4 1s    0.55237     4 1s    0.47463
                                    5 1s    0.55237     5 1s    0.47463
   31.1    -0.00000     2.22595     1 1s   -0.35080     1 1s    0.75602     1 3d2+ -0.41577     1 3d1-  0.53669     2 1s    0.35080
                                    2 1s   -0.75602     2 3d2+  0.41577     2 3d1- -0.53669     3 1s   -0.45313     4 1s    0.36408
                                    5 1s   -0.36408     6 1s    0.45313
   32.1    -0.00000     2.35982     1 1s   -0.53034     1 1s    0.30216     1 2pz   0.30745     1 2pz  -0.39200     1 3d0   0.69629
                                    2 1s   -0.53034     2 1s    0.30216     2 2pz  -0.30745     2 2pz   0.39200     2 3d0   0.69629
   33.1    -0.00000     2.67325     1 2px  -0.26389     1 3d1+  0.90196     2 2px   0.26389     2 3d1+  0.90196
   34.1    -0.00000     2.79160     1 1s   -0.81652     1 2py   0.40596     1 2pz  -0.29647     1 3d2+  0.69888     1 3d1-  0.44848
                                    2 1s    0.81652     2 2py   0.40596     2 2pz  -0.29647     2 3d2+ -0.69888     2 3d1- -0.44848
                                    4 1s    1.03365     5 1s   -1.03365
   35.1    -0.00000     3.03146     1 1s    0.31206     1 1s    2.12664     1 2pz  -0.75929     1 2pz  -1.21801     1 3d0   1.10425
                                    2 1s   -0.31206     2 1s   -2.12664     2 2pz  -0.75929     2 2pz  -1.21801     2 3d0  -1.10425
   36.1    -0.00000     3.20057     1 1s   -0.25667     1 1s   -0.38363     1 2py   0.66386     1 3d2+  0.31057     1 3d1-  0.98883
                                    2 1s   -0.25667     2 1s   -0.38363     2 2py  -0.66386     2 3d2+  0.31057     2 3d1-  0.98883
                                    4 1s    0.97400     5 1s    0.97400


 Natural orbital dump (state averaged) at molpro section  2140.2    (Orbital set 2)



 **********************************************************************************************************************************
 DATASETS  * FILE   NREC   LENGTH (MB)   RECORD NAMES
              1      20       31.45       500      610      700      900      950      970     1000      129      960     1100   
                                          VAR    BASINP    GEOM    SYMINP    ZMAT    AOBASIS   BASIS     P2S    ABASIS      S 
                                         1400     1410     1200     1210     1080     1600     1650     1300     1700     1380   
                                           T        V       H0       H01     AOSYM     SMH    MOLCAS    ERIS     OPER     JKOP   

              2       5        5.42       700     1000      520     2100     2140   
                                         GEOM     BASIS   MCVARS     RHF     MCSCF   

 PROGRAMS   *        TOTAL     MULTI    HF-SCF       INT
 CPU TIMES  *         0.63      0.17      0.10      0.26
 REAL TIME  *         0.87 SEC
 DISK USED  *        38.63 MB
 **********************************************************************************************************************************
 Molecular orbitals read from record     2140.2  Type=MCSCF/NATURAL (state averaged)
 Occupation numbers read from record     2140.2  Type=MCSCF/NATURAL (state averaged)
 Orbital energies read from record       2140.2  Type=MCSCF/NATURAL (state averaged)
 Redundancy group numbers read from rec  2140.2  Type=MCSCF/NATURAL (state averaged)

 MULTI/6-31G* energy=    -77.340714290539

           MULTI          HF-SCF
    -77.34071429    -77.88509602
 **********************************************************************************************************************************
 Molpro calculation terminated
