
 Primary working directories    : /scratch.local/johan406.molpro_temp/molpro.cMLNrdY6GZ
 Secondary working directories  : /scratch.local/johan406.molpro_temp/molpro.cMLNrdY6GZ
 Wavefunction directory         : /home/goodpast/johan406/wfu/
 Main file repository           : /scratch.local/johan406.molpro_temp/molpro.cMLNrdY6GZ/

 id        : roweumn

 Nodes     nprocs
 cn0117       1

 Using customized tuning parameters: mindgm=1; mindgv=20; mindgc=4; mindgr=1; noblas=0; minvec=7
 default implementation of scratch files=df  


 Variables initialized (934), CPU time= 0.01 sec
                                                                                 !leave this line blank
 
 gprint, orbitals=30
 memory, 125., m
 symmetry, nosym
 nelect=16
 basis=6-31g*
 
 geometry={
 C -0.0 -0.0115 0.6691
 C 0.0 -0.0115 -0.6691
 H 0.0 0.9838 1.2774
 H -0.0 -0.846 1.1921
 H 0.0 0.9838 -1.2774
 H -0.0 -0.846 -1.1921
 }
 
 hf
 {multi,
 closed 7
 occ 9
 wf,spin=0;STATE,3
 }
 
 Commands  initialized (763), CPU time= 0.00 sec, 617 directives.
 Default parameters read. Elapsed time= 0.08 sec

 Checking input...
 Passed
1


                                         ***  PROGRAM SYSTEM MOLPRO  ***
                                       Copyright, TTI GmbH Stuttgart, 2015
                                    Version 2019.2 linked Oct 25 2019 22:50:27


 **********************************************************************************************************************************
 LABEL *                                                                                 
  64 bit serial version                                                                  DATE: 26-Jan-23          TIME: 21:13:28  
 **********************************************************************************************************************************

 SHA1:             8dbd9ae1082e4ce945b0f27595c9eb2d4aa09004
 **********************************************************************************************************************************


 Variable memory set to  125000000 words,  buffer space 

 SETTING NELECT         =        16.00000000                                  
 SETTING BASIS          =    6-31G*
 ZSYMEL=NOSYM


Geometry recognized as XYZ



 Recomputing integrals since basis changed


 Using spherical harmonics

 Library entry C      S 6-31G                selected for orbital group  1
 Library entry C      P 6-31G                selected for orbital group  1
 Library entry C      D 6-31G*               selected for orbital group  1
 Library entry H      S 6-31G                selected for orbital group  2


 PROGRAM * SEWARD (Integral evaluation for generally contracted gaussian basis sets)     Author: Roland Lindh, 1990

 Geometry written to block  1 of record 700


 Point group  C1  



 ATOMIC COORDINATES

 NR  ATOM    CHARGE       X              Y              Z

   1  C       6.00    0.000000000   -0.021731850    1.264415750
   2  C       6.00    0.000000000   -0.021731850   -1.264415750
   3  H       1.00    0.000000000    1.859112561    2.413936152
   4  H       1.00    0.000000000   -1.598708301    2.252742513
   5  H       1.00    0.000000000    1.859112561   -2.413936152
   6  H       1.00    0.000000000   -1.598708301   -2.252742513

 Bond lengths in Bohr (Angstrom)

 1-2  2.528831500  1-3  2.204307795  1-4  1.861086918  2-5  2.204307795  2-6  1.861086918
     ( 1.338200000)     ( 1.166469451)     ( 0.984844785)     ( 1.166469451)     ( 0.984844785)

 Bond angles

  1-2-5  121.43212692   1-2-6  122.07630142   2-1-3  121.43212692   2-1-4  122.07630142

  3-1-4  116.49157165   5-2-6  116.49157165

 NUCLEAR CHARGE:                   16
 NUMBER OF PRIMITIVE AOS:          72
 NUMBER OF SYMMETRY AOS:           70
 NUMBER OF CONTRACTIONS:           36   (   36A   )
 NUMBER OF CORE ORBITALS:           2   (    2A   )
 NUMBER OF VALENCE ORBITALS:       12   (   12A   )


 NUCLEAR REPULSION ENERGY   33.49662539

 EXTRA SYMMETRY OF AOS IN SYMMETRY 1:   1 1 1 2 1 1 2 1 1 1   2 2 1 1 1 1 1 2 1 1   2 1 1 1 2 2 1 1 1 1   1 1 1 1 1 1

 Eigenvalues of metric

         1 0.821E-02 0.161E-01 0.339E-01 0.482E-01 0.761E-01 0.191E+00 0.203E+00 0.220E+00


 Contracted 2-electron integrals neglected if value below      1.0D-11
 AO integral compression algorithm  1   Integral accuracy      1.0D-11

     0.786 MB (compressed) written to integral file ( 38.1%)


 NUMBER OF SORTED TWO-ELECTRON INTEGRALS:     222111.     BUFFER LENGTH:  32768
 NUMBER OF SEGMENTS:   1  SEGMENT LENGTH:     222111      RECORD LENGTH: 524288

 Memory used in sort:       0.78 MW

 SORT1 READ      284735. AND WROTE       98967. INTEGRALS IN      1 RECORDS. CPU TIME:     0.00 SEC, REAL TIME:     0.01 SEC
 SORT2 READ       98967. AND WROTE      222111. INTEGRALS IN      3 RECORDS. CPU TIME:     0.02 SEC, REAL TIME:     0.02 SEC

 FILE SIZES:   FILE 1:    30.9 MBYTE,  FILE 4:     4.2 MBYTE,   TOTAL:     35.1 MBYTE

 OPERATOR DM      FOR CENTER  0  COORDINATES:    0.000000    0.000000    0.000000


 **********************************************************************************************************************************
 DATASETS  * FILE   NREC   LENGTH (MB)   RECORD NAMES
              1      19       30.64       500      610      700      900      950      970     1000      129      960     1100   
                                          VAR    BASINP    GEOM    SYMINP    ZMAT    AOBASIS   BASIS     P2S    ABASIS      S 
                                         1400     1410     1200     1210     1080     1600     1650     1300     1700   
                                           T        V       H0       H01     AOSYM     SMH    MOLCAS    ERIS     OPER   

 PROGRAMS   *        TOTAL       INT
 CPU TIMES  *         0.35      0.26
 REAL TIME  *         0.57 SEC
 DISK USED  *        35.45 MB
 **********************************************************************************************************************************


 PROGRAM * RHF-SCF (CLOSED SHELL)       Authors: W. Meyer, H.-J. Werner


 NUMBER OF ELECTRONS:       8+    8-    SPACE SYMMETRY=1    SPIN SYMMETRY: Singlet 
 CONVERGENCE THRESHOLDS:    1.00E-05 (Density)    1.00E-07 (Energy)
 MAX. NUMBER OF ITERATIONS:       60
 INTERPOLATION TYPE:            DIIS
 INTERPOLATION STEPS:              2 (START)      1 (STEP)
 LEVEL SHIFTS:                  0.00 (CLOSED)  0.00 (OPEN) 



 Orbital guess generated from atomic densities. Full valence occupancy:    8

 Molecular orbital dump at record        2100.2

 Initial occupancy:   8

 ITERATION    DDIFF          GRAD             ENERGY        2-EL.EN.            DIPOLE MOMENTS         DIIS   ORB.
    1      0.000D+00      0.000D+00       -77.98111474    118.876632   -0.00000    0.13247   -0.00000    0    start
    2      0.000D+00      0.877D-02       -78.00428958    116.947398   -0.00000   -0.04581   -0.00000    1    diag
    3      0.847D-02      0.303D-02       -78.00658210    117.599404    0.00000   -0.04247   -0.00000    2    diag
    4      0.270D-02      0.733D-03       -78.00681071    117.498627   -0.00000   -0.06015   -0.00000    3    diag
    5      0.111D-02      0.726D-04       -78.00681316    117.501401    0.00000   -0.06226    0.00000    4    diag
    6      0.152D-03      0.935D-05       -78.00681320    117.500956    0.00000   -0.06247    0.00000    5    diag
    7      0.188D-04      0.153D-05       -78.00681320    117.500956    0.00000   -0.06254   -0.00000    6    diag
    8      0.327D-05      0.260D-06       -78.00681320    117.500953    0.00000   -0.06255   -0.00000    0    orth

 Final occupancy:   8

 !RHF STATE  1.1 Energy               -78.006813200921
 Nuclear energy                        33.49662539
 One-electron energy                 -170.25391513
 Two-electron energy                   58.75047654
 Virial quotient                       -0.99901637
 !RHF STATE  1.1 Dipole moment          0.00000000    -0.06254731    -0.00000000
 Dipole moment /Debye                   0.00000000    -0.15896900    -0.00000000

 ELECTRON ORBITALS
 =================

  Orbital  Occupation    Energy     Coefficients
    1.1     2.00000   -11.22587     1 1s    0.70418     2 1s    0.70418
    2.1     2.00000   -11.22427     1 1s    0.70454     2 1s   -0.70454
    3.1     2.00000    -1.03063     1 1s    0.30220     2 1s    0.30220
    4.1     2.00000    -0.80070     1 1s    0.23897
    5.1     2.00000    -0.64775     1 2py   0.30329     2 2py   0.30329
    6.1     2.00000    -0.57525     1 2pz   0.37483     2 2pz  -0.37483
    7.1     2.00000    -0.50184     1 2py   0.30152     2 2py  -0.30152
    8.1     2.00000    -0.37018     1 2px   0.37403     1 2px   0.30731     2 2px   0.37403     2 2px   0.30731
    9.1     0.00000     0.17793     1 2px   0.34334     1 2px   0.73214     2 2px  -0.34334     2 2px  -0.73214
   10.1     0.00000     0.25214     1 1s   -1.19084     1 2py  -0.32886     1 2pz  -0.53028     2 1s   -1.19084     2 2py  -0.32886
                                    2 2pz   0.53028     3 1s    1.24966     4 1s    0.43794     5 1s    1.24966     6 1s    0.43794
   11.1     0.00000     0.30521     1 1s   -0.99594     1 2py   0.74601     1 2pz  -0.38040     2 1s   -0.99594     2 2py   0.74601
                                    2 2pz   0.38040     3 1s   -0.39813     4 1s    1.70788     5 1s   -0.39813     6 1s    1.70788
   12.1     0.00000     0.30715     1 1s   -1.86566     2 1s    1.86566     3 1s    1.13065     4 1s    0.97552     5 1s   -1.13065
                                    6 1s   -0.97552
   13.1     0.00000     0.38929     1 1s   -0.94185     1 2py   1.84599     2 1s    0.94185     2 2py  -1.84599     3 1s   -1.29701
                                    4 1s    1.97177     5 1s    1.29701     6 1s   -1.97177
   14.1     0.00000     0.49266     1 1s   -2.89511     1 2py  -0.37306     1 2pz   2.96713     2 1s    2.89511     2 2py   0.37306
                                    2 2pz   2.96713     3 1s   -0.30136     4 1s   -0.97755     5 1s    0.30136     6 1s    0.97755
   15.1     0.00000     0.66550     1 1s    0.33439     1 2pz  -0.53792     1 2pz   1.04374     2 1s    0.33439     2 2pz   0.53792
                                    2 2pz  -1.04374
   16.1     0.00000     0.76242     1 1s    0.26567     1 1s   -0.53434     1 2py  -0.38236     1 2py   0.78401     2 1s    0.26567
                                    2 1s   -0.53434     2 2py  -0.38236     2 2py   0.78401     3 1s   -0.31425     4 1s    0.40626
                                    4 1s    0.30642     5 1s   -0.31425     6 1s    0.40626     6 1s    0.30642
   17.1     0.00000     0.77643     1 2px  -0.74036     1 2px   0.63985     2 2px  -0.74036     2 2px   0.63985
   18.1     0.00000     0.87031     1 1s   -0.84746     1 1s    1.41583     1 2pz   0.34739     2 1s   -0.84746     2 1s    1.41583
                                    2 2pz  -0.34739     3 1s   -0.51568     4 1s   -0.27422     4 1s   -0.40295     5 1s   -0.51568
                                    6 1s   -0.27422     6 1s   -0.40295
   19.1     0.00000     0.88948     1 2px  -0.81796     1 2px   1.07511     2 2px   0.81796     2 2px  -1.07511
   20.1     0.00000     0.94940     1 1s   -0.92875     1 2pz   0.57803     1 2py   0.69890     1 2pz  -0.47779     2 1s    0.92875
                                    2 2pz   0.57803     2 2py  -0.69890     2 2pz  -0.47779     3 1s    0.41935     3 1s   -0.30502
                                    4 1s    0.35922     4 1s    0.55206     5 1s   -0.41935     5 1s    0.30502     6 1s   -0.35922
                                    6 1s   -0.55206
   21.1     0.00000     1.08618     1 1s    0.49012     1 1s   -0.69660     1 2py   0.60368     1 2py  -0.96339     2 1s    0.49012
                                    2 1s   -0.69660     2 2py   0.60368     2 2py  -0.96339     3 1s   -0.51553     3 1s    1.26182
                                    4 1s   -0.56916     5 1s   -0.51553     5 1s    1.26182     6 1s   -0.56916
   22.1     0.00000     1.12140     1 1s    0.28583     1 2py   0.71925     1 2pz   0.43762     1 2py  -2.09909     1 2pz  -0.69506
                                    2 1s   -0.28583     2 2py  -0.71925     2 2pz   0.43762     2 2py   2.09909     2 2pz  -0.69506
                                    3 1s   -0.36973     3 1s    1.54405     4 1s   -0.67336     5 1s    0.36973     5 1s   -1.54405
                                    6 1s    0.67336
   23.1     0.00000     1.26507     1 1s   -0.92180     1 1s    1.60988     1 2py   0.33045     1 2pz  -0.33722     1 2py  -0.53139
                                    1 2pz   0.45988     2 1s   -0.92180     2 1s    1.60988     2 2py   0.33045     2 2pz   0.33722
                                    2 2py  -0.53139     2 2pz  -0.45988     3 1s   -0.25659     4 1s    0.58342     4 1s   -1.35248
                                    5 1s   -0.25659     6 1s    0.58342     6 1s   -1.35248
   24.1     0.00000     1.26727     1 1s   -0.54945     1 1s    1.09729     1 2py   0.56800     1 2pz  -0.41784     1 2py  -2.36934
                                    1 2pz   0.88872     2 1s    0.54945     2 1s   -1.09729     2 2py  -0.56800     2 2pz  -0.41784
                                    2 2py   2.36934     2 2pz   0.88872     3 1s    0.48012     4 1s    0.31028     4 1s   -2.07049
                                    5 1s   -0.48012     6 1s   -0.31028     6 1s    2.07049
   25.1     0.00000     1.33506     1 1s   -1.50294     1 1s    5.29879     1 2pz   0.32401     1 2py  -0.26852     1 2pz  -1.98149
                                    2 1s    1.50294     2 1s   -5.29879     2 2pz   0.32401     2 2py   0.26852     2 2pz  -1.98149
                                    4 1s   -0.26161     4 1s   -0.36999     6 1s    0.26161     6 1s    0.36999
   26.1     0.00000     1.50046     1 1s   -0.43040     1 1s    0.67959     1 2py   2.17090     2 1s    0.43040     2 1s   -0.67959
                                    2 2py  -2.17090     3 1s   -0.58562     3 1s   -0.57806     4 1s    0.77681     4 1s    0.44791
                                    5 1s    0.58562     5 1s    0.57806     6 1s   -0.77681     6 1s   -0.44791
   27.1     0.00000     1.73655     1 3d1+  0.61581     2 3d1+ -0.61581
   28.1     0.00000     1.82066     1 3d2-  0.67754     2 3d2-  0.67754
   29.1     0.00000     2.12556     1 3d2-  0.73611     2 3d2- -0.73611
   30.1     0.00000     2.15813     1 1s   -0.53618     1 3d2+  0.63096     1 3d1- -0.30134     2 1s   -0.53618     2 3d2+  0.63096
                                    2 3d1-  0.30134     3 1s    0.49658     5 1s    0.49658
   31.1     0.00000     2.36752     1 1s   -0.34022     1 1s    0.34178     1 2pz   0.27560     1 3d0   0.50414     1 3d1- -0.45133
                                    2 1s   -0.34022     2 1s    0.34178     2 2pz  -0.27560     2 3d0   0.50414     2 3d1-  0.45133
                                    4 1s   -0.46593     6 1s   -0.46593
   32.1     0.00000     2.43572     1 1s   -0.40635     1 2pz  -0.39149     1 3d0   0.48444     1 3d2+  0.32110     1 3d1-  0.43492
                                    2 1s   -0.40635     2 2pz   0.39149     2 3d0   0.48444     2 3d2+  0.32110     2 3d1- -0.43492
                                    4 1s    0.63769     6 1s    0.63769
   33.1     0.00000     2.60225     1 1s    0.27220     1 1s   -1.26062     1 3d2+  0.76675     2 1s   -0.27220     2 1s    1.26062
                                    2 3d2+ -0.76675     3 1s    0.43986     4 1s    0.39792     5 1s   -0.43986     6 1s   -0.39792
   34.1     0.00000     2.70652     1 2px  -0.26429     1 3d1+  0.90261     2 2px   0.26429     2 3d1+  0.90261
   35.1     0.00000     3.05841     1 1s    0.30719     1 1s    2.08387     1 2pz  -0.76928     1 2pz  -1.17352     1 3d0   1.09332
                                    2 1s   -0.30719     2 1s   -2.08387     2 2pz  -0.76928     2 2pz  -1.17352     2 3d0  -1.09332
   36.1     0.00000     3.10726     1 2py   0.59475     1 3d1-  0.94003     2 2py  -0.59475     2 3d1-  0.94003     3 1s   -0.29261
                                    4 1s    0.69366     5 1s    0.29261     6 1s   -0.69366


 HOMO      8.1    -0.370175 =     -10.0730eV
 LUMO      9.1     0.177929 =       4.8417eV
 LUMO-HOMO         0.548104 =      14.9147eV


 **********************************************************************************************************************************
 DATASETS  * FILE   NREC   LENGTH (MB)   RECORD NAMES
              1      19       30.64       500      610      700      900      950      970     1000      129      960     1100   
                                          VAR    BASINP    GEOM    SYMINP    ZMAT    AOBASIS   BASIS     P2S    ABASIS      S 
                                         1400     1410     1200     1210     1080     1600     1650     1300     1700   
                                           T        V       H0       H01     AOSYM     SMH    MOLCAS    ERIS     OPER   

              2       4        2.86       700     1000      520     2100   
                                         GEOM     BASIS   MCVARS     RHF  

 PROGRAMS   *        TOTAL    HF-SCF       INT
 CPU TIMES  *         0.45      0.10      0.26
 REAL TIME  *         0.70 SEC
 DISK USED  *        35.45 MB
 **********************************************************************************************************************************


 PROGRAM * MULTI (Direct Multiconfiguration SCF)       Authors: P.J. Knowles, H.-J. Werner (1984)


 Number of closed-shell orbitals:   7 (   7 )
 Number of active  orbitals:        2 (   2 )
 Number of external orbitals:      27 (  27 )

 State symmetry 1

 Number of electrons:     2    Spin symmetry=Singlet   Space symmetry=1
 Number of states:        3
 Number of CSFs:          3   (4 determinants, 4 intermediate states)

 Molecular orbitals read from record     2100.2  Type=RHF/CANONICAL (state 1.1)

 EXTRA SYMMETRY OF MOS IN SYMMETRY 1:   1 1 1 1 1 1 1 2 2 1   1 1 1 1 1 1 2 1 2 1   1 1 1 1 1 1 2 2 2 1   1 1 1 2 1 1

 Wavefunction dump at record             2140.2

 Convergence thresholds  0.10E-01 (gradient)  0.10E-05 (energy)  0.10E-02 (step length)

 Weight factors for state symmetry  1:    0.33333   0.33333   0.33333

 Number of orbital rotations:      257   (    14 Core/Active    189 Core/Virtual   0 Active/Active     54 Active/Virtual)
 Total number of variables:        269

 Micro-Iterations solved by the two-step solver

 ITER. MIC  NCI  NEG     ENERGY(VAR)     ENERGY(PROJ)   ENERGY CHANGE     GRAD(0)  GRAD(ORB)   GRAD(CI)     STEP       TIME

   1    3    3    0     -77.70549847     -77.71173121   -0.00623273    0.13247947 0.00000153 0.00000000  0.63D-01      0.07
   2    2    3    0     -77.71163285     -77.71163662   -0.00000377    0.00303874 0.00000186 0.00000000  0.16D-02      0.10
   3    2    3    0     -77.71163662     -77.71163662   -0.00000000    0.00000216 0.00000000 0.00000000  0.13D-05      0.13

 ** WVFN ****  CONVERGENCE REACHED, FINAL GRADIENT:  0.13D-11



 Results for state 1.1
 =====================

 !MCSCF STATE  1.1 Energy             -78.024580110374
 Nuclear energy                        33.49662539
 Kinetic energy                        78.15086501
 One electron energy                 -170.38545409
 Two electron energy                   58.86424858
 Virial ratio                           1.99838409

 !MCSCF STATE  1.1 Dipole moment        0.00000000    -0.04175783     0.00000000
 Dipole moment /Debye                   0.00000000    -0.10613087     0.00000000

 Results for state 2.1
 =====================

 !MCSCF STATE  2.1 Energy             -77.648198251723
 Nuclear energy                        33.49662539
 Kinetic energy                        78.33245917
 One electron energy                 -169.81450591
 Two electron energy                   58.66968226
 Virial ratio                           1.99126466

 !MCSCF STATE  2.1 Dipole moment        0.00000000    -0.04078071     0.00000000
 Dipole moment /Debye                   0.00000000    -0.10364743     0.00000000

 Results for state 3.1
 =====================

 !MCSCF STATE  3.1 Energy             -77.462131504156
 Nuclear energy                        33.49662539
 Kinetic energy                        78.51405334
 One electron energy                 -169.24355773
 Two electron energy                   58.28480083
 Virial ratio                           1.98660212

 !MCSCF STATE  3.1 Dipole moment        0.00000000    -0.03980359     0.00000000
 Dipole moment /Debye                   0.00000000    -0.10116400     0.00000000

 State-averaged charge density matrix saved on record  2140.2 (density set 1)

 !MCSCF expec         <1.1|DMY|1.1>    -0.041757829886 au =    -0.106130865281 Debye
 !MCSCF expec         <2.1|DMY|2.1>    -0.040780709002 au =    -0.103647434386 Debye
 !MCSCF trans         <3.1|DMY|1.1>    -0.000411633216 au =    -0.001046198748 Debye
 !MCSCF expec         <3.1|DMY|3.1>    -0.039803588119 au =    -0.101164003492 Debye

 !MCSCF trans         <2.1|DMZ|1.1>    -1.509374696765 au =    -3.836196541805 Debye
 !MCSCF trans         <3.1|DMZ|2.1>    -2.273698343975 au =    -5.778786237080 Debye


 NATURAL ORBITALS (state averaged)
 =================================

  Orbital  Occupation    Energy     Coefficients
    1.1     2.00000   -11.24142     1 1s    0.70419     2 1s    0.70419
    2.1     2.00000   -11.24010     1 1s    0.70450     2 1s   -0.70450
    3.1     2.00000    -1.04499     1 1s    0.31022     2 1s    0.31022
    4.1     2.00000    -0.80833     1 1s    0.27670     2 1s   -0.27670
    5.1     2.00000    -0.66157     1 2py   0.30653     2 2py   0.30653
    6.1     2.00000    -0.58947     1 2pz   0.37324     2 2pz  -0.37324
    7.1     2.00000    -0.50845     1 2py   0.30804     2 2py  -0.30804
    8.1     1.00000     0.03303     1 2px   0.38127     1 2px   0.68511     2 2px  -0.38127     2 2px  -0.68511
    9.1     1.00000    -0.22614     1 2px   0.35859     1 2px   0.31878     2 2px   0.35859     2 2px   0.31878
   10.1    -0.00000     0.24724     1 1s   -1.13117     1 2py  -0.36397     1 2pz  -0.51176     2 1s   -1.13117     2 2py  -0.36397
                                    2 2pz   0.51176     3 1s    1.26540     4 1s    0.34788     5 1s    1.26540     6 1s    0.34788
   11.1    -0.00000     0.29908     1 1s   -1.05784     1 2py   0.71914     1 2pz  -0.41540     2 1s   -1.05784     2 2py   0.71914
                                    2 2pz   0.41540     3 1s   -0.32253     4 1s    1.72158     5 1s   -0.32253     6 1s    1.72158
   12.1    -0.00000     0.30364     1 1s   -1.87731     2 1s    1.87731     3 1s    1.14615     4 1s    0.93600     5 1s   -1.14615
                                    6 1s   -0.93600
   13.1    -0.00000     0.38571     1 1s   -0.95644     1 2py   1.83125     2 1s    0.95644     2 2py  -1.83125     3 1s   -1.27077
                                    4 1s    1.98555     5 1s    1.27077     6 1s   -1.98555
   14.1    -0.00000     0.48976     1 1s   -2.87672     1 2py  -0.35362     1 2pz   2.94902     2 1s    2.87672     2 2py   0.35362
                                    2 2pz   2.94902     3 1s   -0.32282     4 1s   -0.97171     5 1s    0.32282     6 1s    0.97171
   15.1    -0.00000     0.65467     1 2pz  -0.53232     1 2pz   1.02190     2 2pz   0.53232     2 2pz  -1.02190
   16.1    -0.00000     0.75139     1 1s    0.26074     1 1s   -0.54634     1 2py  -0.39394     1 2py   0.79477     2 1s    0.26074
                                    2 1s   -0.54634     2 2py  -0.39394     2 2py   0.79477     3 1s   -0.30920     4 1s    0.40609
                                    4 1s    0.31910     5 1s   -0.30920     6 1s    0.40609     6 1s    0.31910
   17.1    -0.00000     0.77050     1 2px  -0.74703     1 2px   0.63457     2 2px  -0.74703     2 2px   0.63457
   18.1    -0.00000     0.86759     1 1s   -0.84329     1 1s    1.44239     1 2pz   0.39036     2 1s   -0.84329     2 1s    1.44239
                                    2 2pz  -0.39036     3 1s   -0.51264     4 1s   -0.27976     4 1s   -0.41338     5 1s   -0.51264
                                    6 1s   -0.27976     6 1s   -0.41338
   19.1    -0.00000     0.87197     1 2px  -0.80233     1 2px   1.10549     2 2px   0.80233     2 2px  -1.10549
   20.1    -0.00000     0.93097     1 1s   -0.77442     1 2pz   0.58512     1 2py   0.68581     1 2pz  -0.56584     2 1s    0.77442
                                    2 2pz   0.58512     2 2py  -0.68581     2 2pz  -0.56584     3 1s    0.41695     3 1s   -0.30047
                                    4 1s    0.35987     4 1s    0.54430     5 1s   -0.41695     5 1s    0.30047     6 1s   -0.35987
                                    6 1s   -0.54430
   21.1    -0.00000     1.07348     1 1s    0.46013     1 1s   -0.64686     1 2py   0.60238     1 2py  -0.97881     2 1s    0.46013
                                    2 1s   -0.64686     2 2py   0.60238     2 2py  -0.97881     3 1s   -0.51224     3 1s    1.26224
                                    4 1s   -0.61619     5 1s   -0.51224     5 1s    1.26224     6 1s   -0.61619
   22.1    -0.00000     1.11199     1 1s    0.25088     1 2py   0.73533     1 2pz   0.42354     1 2py  -2.17934     1 2pz  -0.68881
                                    2 1s   -0.25088     2 2py  -0.73533     2 2pz   0.42354     2 2py   2.17934     2 2pz  -0.68881
                                    3 1s   -0.36090     3 1s    1.55209     4 1s   -0.75449     5 1s    0.36090     5 1s   -1.55209
                                    6 1s    0.75449
   23.1    -0.00000     1.25878     1 1s   -0.93129     1 1s    1.62664     1 2py   0.30764     1 2pz  -0.34383     1 2py  -0.50568
                                    1 2pz   0.47007     2 1s   -0.93129     2 1s    1.62664     2 2py   0.30764     2 2pz   0.34383
                                    2 2py  -0.50568     2 2pz  -0.47007     3 1s   -0.28913     4 1s    0.57736     4 1s   -1.33881
                                    5 1s   -0.28913     6 1s    0.57736     6 1s   -1.33881
   24.1    -0.00000     1.26176     1 1s   -0.50576     1 1s    0.92982     1 2py   0.54581     1 2pz  -0.44538     1 2py  -2.30419
                                    1 2pz   0.97742     2 1s    0.50576     2 1s   -0.92982     2 2py  -0.54581     2 2pz  -0.44538
                                    2 2py   2.30419     2 2pz   0.97742     3 1s    0.49415     4 1s    0.31469     4 1s   -2.04143
                                    5 1s   -0.49415     6 1s   -0.31469     6 1s    2.04143
   25.1    -0.00000     1.31502     1 1s   -1.52755     1 1s    5.34927     1 2pz   0.30359     1 2py  -0.32148     1 2pz  -1.94261
                                    2 1s    1.52755     2 1s   -5.34927     2 2pz   0.30359     2 2py   0.32148     2 2pz  -1.94261
                                    4 1s   -0.43651     6 1s    0.43651
   26.1    -0.00000     1.49204     1 1s   -0.42612     1 1s    0.66287     1 2py   2.17060     2 1s    0.42612     2 1s   -0.66287
                                    2 2py  -2.17060     3 1s   -0.58235     3 1s   -0.58282     4 1s    0.77669     4 1s    0.44181
                                    5 1s    0.58235     5 1s    0.58282     6 1s   -0.77669     6 1s   -0.44181
   27.1    -0.00000     1.71104     1 3d1+  0.61624     2 3d1+ -0.61624
   28.1    -0.00000     1.80685     1 3d2-  0.67830     2 3d2-  0.67830
   29.1    -0.00000     2.10258     1 3d2-  0.73611     2 3d2- -0.73611
   30.1    -0.00000     2.14258     1 1s   -0.53362     1 3d2+  0.63036     1 3d1- -0.30124     2 1s   -0.53362     2 3d2+  0.63036
                                    2 3d1-  0.30124     3 1s    0.49990     5 1s    0.49990
   31.1    -0.00000     2.35027     1 1s   -0.34954     1 1s    0.33647     1 2pz   0.28472     1 3d0   0.51932     1 3d1- -0.43561
                                    2 1s   -0.34954     2 1s    0.33647     2 2pz  -0.28472     2 3d0   0.51932     2 3d1-  0.43561
                                    4 1s   -0.44927     6 1s   -0.44927
   32.1    -0.00000     2.41733     1 1s   -0.39577     1 2pz  -0.38696     1 3d0   0.46799     1 3d2+  0.32708     1 3d1-  0.44779
                                    2 1s   -0.39577     2 2pz   0.38696     2 3d0   0.46799     2 3d2+  0.32708     2 3d1- -0.44779
                                    4 1s    0.65507     6 1s    0.65507
   33.1    -0.00000     2.58289     1 1s    0.27289     1 1s   -1.26835     1 3d2+  0.76666     2 1s   -0.27289     2 1s    1.26835
                                    2 3d2+ -0.76666     3 1s    0.44214     4 1s    0.40264     5 1s   -0.44214     6 1s   -0.40264
   34.1    -0.00000     2.68410     1 2px  -0.26504     1 3d1+  0.90299     2 2px   0.26504     2 3d1+  0.90299
   35.1    -0.00000     3.04076     1 1s    0.30196     1 1s    2.10499     1 2pz  -0.76678     1 2pz  -1.18978     1 3d0   1.09932
                                    2 1s   -0.30196     2 1s   -2.10499     2 2pz  -0.76678     2 2pz  -1.18978     2 3d0  -1.09932
   36.1    -0.00000     3.09406     1 2py   0.59641     1 3d1-  0.94390     2 2py  -0.59641     2 3d1-  0.94390     3 1s   -0.29646
                                    4 1s    0.69814     5 1s    0.29646     6 1s   -0.69814


 Natural orbital dump (state averaged) at molpro section  2140.2    (Orbital set 2)



 **********************************************************************************************************************************
 DATASETS  * FILE   NREC   LENGTH (MB)   RECORD NAMES
              1      20       31.36       500      610      700      900      950      970     1000      129      960     1100   
                                          VAR    BASINP    GEOM    SYMINP    ZMAT    AOBASIS   BASIS     P2S    ABASIS      S 
                                         1400     1410     1200     1210     1080     1600     1650     1300     1700     1380   
                                           T        V       H0       H01     AOSYM     SMH    MOLCAS    ERIS     OPER     JKOP   

              2       5        5.42       700     1000      520     2100     2140   
                                         GEOM     BASIS   MCVARS     RHF     MCSCF   

 PROGRAMS   *        TOTAL     MULTI    HF-SCF       INT
 CPU TIMES  *         0.62      0.17      0.10      0.26
 REAL TIME  *         0.90 SEC
 DISK USED  *        38.55 MB
 **********************************************************************************************************************************
 Molecular orbitals read from record     2140.2  Type=MCSCF/NATURAL (state averaged)
 Occupation numbers read from record     2140.2  Type=MCSCF/NATURAL (state averaged)
 Orbital energies read from record       2140.2  Type=MCSCF/NATURAL (state averaged)
 Redundancy group numbers read from rec  2140.2  Type=MCSCF/NATURAL (state averaged)

 MULTI/6-31G* energy=    -77.462131504156

           MULTI          HF-SCF
    -77.46213150    -78.00681320
 **********************************************************************************************************************************
 Molpro calculation terminated
