
 Primary working directories    : /scratch.local/johan406.molpro_temp/molpro.5DGuKvz4LS
 Secondary working directories  : /scratch.local/johan406.molpro_temp/molpro.5DGuKvz4LS
 Wavefunction directory         : /home/goodpast/johan406/wfu/
 Main file repository           : /scratch.local/johan406.molpro_temp/molpro.5DGuKvz4LS/

 id        : roweumn

 Nodes     nprocs
 cn0117       1

 Using customized tuning parameters: mindgm=1; mindgv=20; mindgc=4; mindgr=1; noblas=0; minvec=7
 default implementation of scratch files=df  


 Variables initialized (934), CPU time= 0.01 sec
                                                                                 !leave this line blank
 
 gprint, orbitals=30
 memory, 125., m
 symmetry, nosym
 nelect=16
 basis=6-31g*
 
 geometry={
 C -0.0 -0.016 0.6691
 C 0.0 -0.016 -0.6691
 H 0.0 1.0107 1.2941
 H -0.0 -0.8191 1.1755
 H 0.0 1.0107 -1.2941
 H -0.0 -0.8191 -1.1755
 }
 
 hf
 {multi,
 closed 7
 occ 9
 wf,spin=0;STATE,3
 }
 
 Commands  initialized (763), CPU time= 0.01 sec, 617 directives.
 Default parameters read. Elapsed time= 0.08 sec

 Checking input...
 Passed
1


                                         ***  PROGRAM SYSTEM MOLPRO  ***
                                       Copyright, TTI GmbH Stuttgart, 2015
                                    Version 2019.2 linked Oct 25 2019 22:50:27


 **********************************************************************************************************************************
 LABEL *                                                                                 
  64 bit serial version                                                                  DATE: 26-Jan-23          TIME: 21:15:00  
 **********************************************************************************************************************************

 SHA1:             8dbd9ae1082e4ce945b0f27595c9eb2d4aa09004
 **********************************************************************************************************************************


 Variable memory set to  125000000 words,  buffer space 

 SETTING NELECT         =        16.00000000                                  
 SETTING BASIS          =    6-31G*
 ZSYMEL=NOSYM


Geometry recognized as XYZ



 Recomputing integrals since basis changed


 Using spherical harmonics

 Library entry C      S 6-31G                selected for orbital group  1
 Library entry C      P 6-31G                selected for orbital group  1
 Library entry C      D 6-31G*               selected for orbital group  1
 Library entry H      S 6-31G                selected for orbital group  2


 PROGRAM * SEWARD (Integral evaluation for generally contracted gaussian basis sets)     Author: Roland Lindh, 1990

 Geometry written to block  1 of record 700


 Point group  C1  



 ATOMIC COORDINATES

 NR  ATOM    CHARGE       X              Y              Z

   1  C       6.00    0.000000000   -0.030235618    1.264415750
   2  C       6.00    0.000000000   -0.030235618   -1.264415750
   3  H       1.00    0.000000000    1.909946194    2.445494578
   4  H       1.00    0.000000000   -1.547874669    2.221373059
   5  H       1.00    0.000000000    1.909946194   -2.445494578
   6  H       1.00    0.000000000   -1.547874669   -2.221373059

 Bond lengths in Bohr (Angstrom)

 1-2  2.528831500  1-3  2.271398834  1-4  1.794155952  2-5  2.271398834  2-6  1.794155952
     ( 1.338200000)     ( 1.201972500)     ( 0.949426443)     ( 1.201972500)     ( 0.949426443)

 Bond angles

  1-2-5  121.33081729   1-2-6  122.23375143   2-1-3  121.33081729   2-1-4  122.23375143

  3-1-4  116.43543128   5-2-6  116.43543128

 NUCLEAR CHARGE:                   16
 NUMBER OF PRIMITIVE AOS:          72
 NUMBER OF SYMMETRY AOS:           70
 NUMBER OF CONTRACTIONS:           36   (   36A   )
 NUMBER OF CORE ORBITALS:           2   (    2A   )
 NUMBER OF VALENCE ORBITALS:       12   (   12A   )


 NUCLEAR REPULSION ENERGY   33.58100901

 EXTRA SYMMETRY OF AOS IN SYMMETRY 1:   1 1 1 2 1 1 2 1 1 1   2 2 1 1 1 1 1 2 1 1   2 1 1 1 2 2 1 1 1 1   1 1 1 1 1 1

 Eigenvalues of metric

         1 0.810E-02 0.153E-01 0.312E-01 0.500E-01 0.803E-01 0.186E+00 0.199E+00 0.214E+00


 Contracted 2-electron integrals neglected if value below      1.0D-11
 AO integral compression algorithm  1   Integral accuracy      1.0D-11

     0.786 MB (compressed) written to integral file ( 38.1%)


 NUMBER OF SORTED TWO-ELECTRON INTEGRALS:     222111.     BUFFER LENGTH:  32768
 NUMBER OF SEGMENTS:   1  SEGMENT LENGTH:     222111      RECORD LENGTH: 524288

 Memory used in sort:       0.78 MW

 SORT1 READ      284735. AND WROTE       98967. INTEGRALS IN      1 RECORDS. CPU TIME:     0.00 SEC, REAL TIME:     0.01 SEC
 SORT2 READ       98967. AND WROTE      222111. INTEGRALS IN      3 RECORDS. CPU TIME:     0.02 SEC, REAL TIME:     0.02 SEC

 FILE SIZES:   FILE 1:    30.9 MBYTE,  FILE 4:     4.2 MBYTE,   TOTAL:     35.1 MBYTE

 OPERATOR DM      FOR CENTER  0  COORDINATES:    0.000000    0.000000    0.000000


 **********************************************************************************************************************************
 DATASETS  * FILE   NREC   LENGTH (MB)   RECORD NAMES
              1      19       30.63       500      610      700      900      950      970     1000      129      960     1100   
                                          VAR    BASINP    GEOM    SYMINP    ZMAT    AOBASIS   BASIS     P2S    ABASIS      S 
                                         1400     1410     1200     1210     1080     1600     1650     1300     1700   
                                           T        V       H0       H01     AOSYM     SMH    MOLCAS    ERIS     OPER   

 PROGRAMS   *        TOTAL       INT
 CPU TIMES  *         0.36      0.25
 REAL TIME  *         0.57 SEC
 DISK USED  *        35.45 MB
 **********************************************************************************************************************************


 PROGRAM * RHF-SCF (CLOSED SHELL)       Authors: W. Meyer, H.-J. Werner


 NUMBER OF ELECTRONS:       8+    8-    SPACE SYMMETRY=1    SPIN SYMMETRY: Singlet 
 CONVERGENCE THRESHOLDS:    1.00E-05 (Density)    1.00E-07 (Energy)
 MAX. NUMBER OF ITERATIONS:       60
 INTERPOLATION TYPE:            DIIS
 INTERPOLATION STEPS:              2 (START)      1 (STEP)
 LEVEL SHIFTS:                  0.00 (CLOSED)  0.00 (OPEN) 



 Orbital guess generated from atomic densities. Full valence occupancy:    8

 Molecular orbital dump at record        2100.2

 Initial occupancy:   8

 ITERATION    DDIFF          GRAD             ENERGY        2-EL.EN.            DIPOLE MOMENTS         DIIS   ORB.
    1      0.000D+00      0.000D+00       -77.95648598    119.019779    0.00000    0.18815   -0.00000    0    start
    2      0.000D+00      0.894D-02       -77.98082697    117.005072    0.00000   -0.06333    0.00000    1    diag
    3      0.872D-02      0.314D-02       -77.98327997    117.677574   -0.00000   -0.05750    0.00000    2    diag
    4      0.276D-02      0.753D-03       -77.98352701    117.574941   -0.00000   -0.08222    0.00000    3    diag
    5      0.115D-02      0.766D-04       -77.98352977    117.577587    0.00000   -0.08508   -0.00000    4    diag
    6      0.157D-03      0.104D-04       -77.98352982    117.577131   -0.00000   -0.08537    0.00000    5    diag
    7      0.214D-04      0.177D-05       -77.98352982    117.577129   -0.00000   -0.08545    0.00000    6    diag
    8      0.421D-05      0.321D-06       -77.98352982    117.577127    0.00000   -0.08546   -0.00000    0    orth

 Final occupancy:   8

 !RHF STATE  1.1 Energy               -77.983529818468
 Nuclear energy                        33.58100901
 One-electron energy                 -170.35310215
 Two-electron energy                   58.78856333
 Virial quotient                       -0.99798795
 !RHF STATE  1.1 Dipole moment          0.00000000    -0.08545783    -0.00000000
 Dipole moment /Debye                   0.00000000    -0.21719791    -0.00000000

 ELECTRON ORBITALS
 =================

  Orbital  Occupation    Energy     Coefficients
    1.1     2.00000   -11.22669     1 1s    0.70417     2 1s    0.70417
    2.1     2.00000   -11.22509     1 1s    0.70453     2 1s   -0.70453
    3.1     2.00000    -1.03406     1 1s    0.30223     2 1s    0.30223
    4.1     2.00000    -0.80834     1 1s    0.23917
    5.1     2.00000    -0.65470     1 2py   0.29373     2 2py   0.29373
    6.1     2.00000    -0.56970     1 2pz   0.35670     2 2pz  -0.35670
    7.1     2.00000    -0.49837     1 2py   0.29824     2 2py  -0.29824
    8.1     2.00000    -0.37104     1 2px   0.37475     1 2px   0.30672     2 2px   0.37475     2 2px   0.30672
    9.1     0.00000     0.17729     1 2px   0.34456     1 2px   0.73042     2 2px  -0.34456     2 2px  -0.73042
   10.1     0.00000     0.24276     1 1s   -1.07899     1 2py  -0.35499     1 2pz  -0.48834     2 1s   -1.07899     2 2py  -0.35499
                                    2 2pz   0.48834     3 1s    1.20485     4 1s    0.34216     5 1s    1.20485     6 1s    0.34216
   11.1     0.00000     0.30474     1 1s   -1.79787     2 1s    1.79787     3 1s    1.13959     4 1s    0.92025     5 1s   -1.13959
                                    6 1s   -0.92025
   12.1     0.00000     0.31102     1 1s   -1.18577     1 2py   0.73889     1 2pz  -0.43990     2 1s   -1.18577     2 2py   0.73889
                                    2 2pz   0.43990     3 1s   -0.29697     4 1s    1.84010     5 1s   -0.29697     6 1s    1.84010
   13.1     0.00000     0.38758     1 1s   -1.28849     1 2py   1.81687     2 1s    1.28849     2 2py  -1.81687     3 1s   -1.16550
                                    4 1s    2.11036     5 1s    1.16550     6 1s   -2.11036
   14.1     0.00000     0.49435     1 1s   -2.81289     1 2py  -0.50494     1 2pz   2.97844     2 1s    2.81289     2 2py   0.50494
                                    2 2pz   2.97844     4 1s   -1.14516     6 1s    1.14516
   15.1     0.00000     0.66220     1 1s    0.40935     1 2pz  -0.52320     1 2pz   1.04918     2 1s    0.40935     2 2pz   0.52320
                                    2 2pz  -1.04918
   16.1     0.00000     0.76246     1 1s    0.34905     1 1s   -0.72270     1 2py  -0.36986     1 2py   0.79549     2 1s    0.34905
                                    2 1s   -0.72270     2 2py  -0.36986     2 2py   0.79549     3 1s   -0.27902     4 1s    0.39992
                                    4 1s    0.42610     5 1s   -0.27902     6 1s    0.39992     6 1s    0.42610
   17.1     0.00000     0.77565     1 2px  -0.74013     1 2px   0.64016     2 2px  -0.74013     2 2px   0.64016
   18.1     0.00000     0.87722     1 1s   -0.81550     1 1s    1.37928     1 2pz   0.35453     2 1s   -0.81550     2 1s    1.37928
                                    2 2pz  -0.35453     3 1s   -0.55521     4 1s   -0.45679     5 1s   -0.55521     6 1s   -0.45679
   19.1     0.00000     0.88850     1 2px  -0.81737     1 2px   1.07633     2 2px   0.81737     2 2px  -1.07633
   20.1     0.00000     0.94498     1 1s   -0.98445     1 2pz   0.55634     1 2py   0.95866     1 2pz  -0.48820     2 1s    0.98445
                                    2 2pz   0.55634     2 2py  -0.95866     2 2pz  -0.48820     3 1s    0.43535     3 1s   -0.43940
                                    4 1s    0.35108     4 1s    0.75023     5 1s   -0.43535     5 1s    0.43940     6 1s   -0.35108
                                    6 1s   -0.75023
   21.1     0.00000     1.06875     1 1s    0.55788     1 1s   -0.77164     1 2py   0.57589     1 2py  -0.91706     2 1s    0.55788
                                    2 1s   -0.77164     2 2py   0.57589     2 2py  -0.91706     3 1s   -0.51727     3 1s    1.24457
                                    4 1s   -0.48167     5 1s   -0.51727     5 1s    1.24457     6 1s   -0.48167
   22.1     0.00000     1.10194     1 1s   -0.31218     1 2py  -0.66133     1 2pz  -0.49571     1 2py   1.82603     1 2pz   0.76587
                                    2 1s    0.31218     2 2py   0.66133     2 2pz  -0.49571     2 2py  -1.82603     2 2pz   0.76587
                                    3 1s    0.37730     3 1s   -1.44300     4 1s    0.50526     5 1s   -0.37730     5 1s    1.44300
                                    6 1s   -0.50526
   23.1     0.00000     1.28666     1 1s   -0.73172     1 1s    2.04711     1 2py   0.59384     1 2pz  -0.28985     1 2py  -2.77068
                                    1 2pz   0.54635     2 1s    0.73172     2 1s   -2.04711     2 2py  -0.59384     2 2pz  -0.28985
                                    2 2py   2.77068     2 2pz   0.54635     3 1s    0.50884     4 1s   -2.31851     5 1s   -0.50884
                                    6 1s    2.31851
   24.1     0.00000     1.29856     1 1s   -0.89038     1 1s    1.60382     1 2py   0.37307     1 2pz  -0.33152     1 2py  -0.60489
                                    1 2pz   0.45581     2 1s   -0.89038     2 1s    1.60382     2 2py   0.37307     2 2pz   0.33152
                                    2 2py  -0.60489     2 2pz  -0.45581     4 1s    0.59448     4 1s   -1.43046     6 1s    0.59448
                                    6 1s   -1.43046
   25.1     0.00000     1.33501     1 1s   -1.38340     1 1s    5.03804     1 2pz   0.38388     1 2pz  -2.08825     2 1s    1.38340
                                    2 1s   -5.03804     2 2pz   0.38388     2 2pz  -2.08825     4 1s   -0.31003     6 1s    0.31003
   26.1     0.00000     1.52539     1 1s   -0.54289     1 1s    0.80777     1 2py   1.86644     2 1s    0.54289     2 1s   -0.80777
                                    2 2py  -1.86644     3 1s   -0.52682     3 1s   -0.49234     4 1s    0.80539     4 1s    0.27463
                                    5 1s    0.52682     5 1s    0.49234     6 1s   -0.80539     6 1s   -0.27463
   27.1     0.00000     1.73412     1 3d1+  0.61294     2 3d1+ -0.61294
   28.1     0.00000     1.81970     1 3d2-  0.67429     2 3d2-  0.67429
   29.1     0.00000     2.12355     1 3d2-  0.73604     2 3d2- -0.73604
   30.1     0.00000     2.12775     1 1s   -0.52283     1 3d2+  0.60818     1 3d1- -0.33000     2 1s   -0.52283     2 3d2+  0.60818
                                    2 3d1-  0.33000     3 1s    0.48128     5 1s    0.48128
   31.1     0.00000     2.37392     1 1s   -0.42047     1 1s    0.35372     1 2pz   0.31733     1 2pz  -0.28784     1 3d0   0.61412
                                    1 3d1- -0.30852     2 1s   -0.42047     2 1s    0.35372     2 2pz  -0.31733     2 2pz   0.28784
                                    2 3d0   0.61412     2 3d1-  0.30852     4 1s   -0.32065     6 1s   -0.32065
   32.1     0.00000     2.47165     1 1s   -0.34634     1 2py   0.29301     1 2pz  -0.33317     1 3d0   0.33828     1 3d2+  0.38940
                                    1 3d1-  0.53240     2 1s   -0.34634     2 2py   0.29301     2 2pz   0.33317     2 3d0   0.33828
                                    2 3d2+  0.38940     2 3d1- -0.53240     4 1s    0.79805     6 1s    0.79805
   33.1     0.00000     2.58252     1 1s    0.25620     1 1s   -1.19832     1 3d2+  0.74413     1 3d1- -0.28112     2 1s   -0.25620
                                    2 1s    1.19832     2 3d2+ -0.74413     2 3d1- -0.28112     3 1s    0.42004     4 1s    0.38070
                                    5 1s   -0.42004     6 1s   -0.38070
   34.1     0.00000     2.70498     1 2px  -0.26409     1 3d1+  0.90252     2 2px   0.26409     2 3d1+  0.90252
   35.1     0.00000     3.05646     1 1s    0.31077     1 1s    2.09667     1 2pz  -0.77481     1 2pz  -1.18383     1 3d0   1.10156
                                    2 1s   -0.31077     2 1s   -2.09667     2 2pz  -0.77481     2 2pz  -1.18383     2 3d0  -1.10156
   36.1     0.00000     3.14247     1 1s   -0.37473     1 2py   0.62450     1 3d2+  0.31167     1 3d1-  0.93941     2 1s    0.37473
                                    2 2py  -0.62450     2 3d2+ -0.31167     2 3d1-  0.93941     4 1s    0.78884     6 1s   -0.78884


 HOMO      8.1    -0.371044 =     -10.0966eV
 LUMO      9.1     0.177294 =       4.8244eV
 LUMO-HOMO         0.548338 =      14.9210eV


 **********************************************************************************************************************************
 DATASETS  * FILE   NREC   LENGTH (MB)   RECORD NAMES
              1      19       30.63       500      610      700      900      950      970     1000      129      960     1100   
                                          VAR    BASINP    GEOM    SYMINP    ZMAT    AOBASIS   BASIS     P2S    ABASIS      S 
                                         1400     1410     1200     1210     1080     1600     1650     1300     1700   
                                           T        V       H0       H01     AOSYM     SMH    MOLCAS    ERIS     OPER   

              2       4        2.86       700     1000      520     2100   
                                         GEOM     BASIS   MCVARS     RHF  

 PROGRAMS   *        TOTAL    HF-SCF       INT
 CPU TIMES  *         0.46      0.10      0.25
 REAL TIME  *         0.70 SEC
 DISK USED  *        35.45 MB
 **********************************************************************************************************************************


 PROGRAM * MULTI (Direct Multiconfiguration SCF)       Authors: P.J. Knowles, H.-J. Werner (1984)


 Number of closed-shell orbitals:   7 (   7 )
 Number of active  orbitals:        2 (   2 )
 Number of external orbitals:      27 (  27 )

 State symmetry 1

 Number of electrons:     2    Spin symmetry=Singlet   Space symmetry=1
 Number of states:        3
 Number of CSFs:          3   (4 determinants, 4 intermediate states)

 Molecular orbitals read from record     2100.2  Type=RHF/CANONICAL (state 1.1)

 EXTRA SYMMETRY OF MOS IN SYMMETRY 1:   1 1 1 1 1 1 1 2 2 1   1 1 1 1 1 1 2 1 2 1   1 1 1 1 1 1 2 2 2 1   1 1 1 2 1 1

 Wavefunction dump at record             2140.2

 Convergence thresholds  0.10E-01 (gradient)  0.10E-05 (energy)  0.10E-02 (step length)

 Weight factors for state symmetry  1:    0.33333   0.33333   0.33333

 Number of orbital rotations:      257   (    14 Core/Active    189 Core/Virtual   0 Active/Active     54 Active/Virtual)
 Total number of variables:        269

 Micro-Iterations solved by the two-step solver

 ITER. MIC  NCI  NEG     ENERGY(VAR)     ENERGY(PROJ)   ENERGY CHANGE     GRAD(0)  GRAD(ORB)   GRAD(CI)     STEP       TIME

   1    3    3    0     -77.68208796     -77.68830807   -0.00622011    0.13232777 0.00000153 0.00000000  0.63D-01      0.07
   2    2    3    0     -77.68820994     -77.68821370   -0.00000376    0.00303307 0.00000185 0.00000000  0.16D-02      0.10
   3    2    3    0     -77.68821370     -77.68821370   -0.00000000    0.00000216 0.00000000 0.00000000  0.13D-05      0.13

 ** WVFN ****  CONVERGENCE REACHED, FINAL GRADIENT:  0.13D-11



 Results for state 1.1
 =====================

 !MCSCF STATE  1.1 Energy             -78.001387537235
 Nuclear energy                        33.58100901
 Kinetic energy                        78.20697927
 One electron energy                 -170.48403771
 Two electron energy                   58.90164117
 Virial ratio                           1.99737118

 !MCSCF STATE  1.1 Dipole moment        0.00000000    -0.05675811    -0.00000000
 Dipole moment /Debye                   0.00000000    -0.14425529    -0.00000000

 Results for state 2.1
 =====================

 !MCSCF STATE  2.1 Energy             -77.624599365416
 Nuclear energy                        33.58100901
 Kinetic energy                        78.38990187
 One electron energy                 -169.91556165
 Two electron energy                   58.70995328
 Virial ratio                           1.99023723

 !MCSCF STATE  2.1 Dipole moment        0.00000000    -0.05540258    -0.00000000
 Dipole moment /Debye                   0.00000000    -0.14081009    -0.00000000

 Results for state 3.1
 =====================

 !MCSCF STATE  3.1 Energy             -77.438654197528
 Nuclear energy                        33.58100901
 Kinetic energy                        78.57282447
 One electron energy                 -169.34708558
 Two electron energy                   58.32742238
 Virial ratio                           1.98556536

 !MCSCF STATE  3.1 Dipole moment        0.00000000    -0.05404705    -0.00000000
 Dipole moment /Debye                   0.00000000    -0.13736489    -0.00000000

 State-averaged charge density matrix saved on record  2140.2 (density set 1)

 !MCSCF expec         <1.1|DMY|1.1>    -0.056758113878 au =    -0.144255287070 Debye
 !MCSCF expec         <2.1|DMY|2.1>    -0.055402580421 au =    -0.140810090345 Debye
 !MCSCF trans         <3.1|DMY|1.1>    -0.000572141684 au =    -0.001454143862 Debye
 !MCSCF expec         <3.1|DMY|3.1>    -0.054047046963 au =    -0.137364893620 Debye

 !MCSCF trans         <2.1|DMZ|1.1>    -1.508359192325 au =    -3.833615556030 Debye
 !MCSCF trans         <3.1|DMZ|2.1>    -2.273858968418 au =    -5.779194476951 Debye


 NATURAL ORBITALS (state averaged)
 =================================

  Orbital  Occupation    Energy     Coefficients
    1.1     2.00000   -11.24207     1 1s    0.70419     2 1s    0.70419
    2.1     2.00000   -11.24074     1 1s    0.70449     2 1s   -0.70449
    3.1     2.00000    -1.04808     1 1s    0.31026     2 1s    0.31026
    4.1     2.00000    -0.81579     1 1s    0.26719     2 1s   -0.26719
    5.1     2.00000    -0.66907     1 2py   0.29649     2 2py   0.29649
    6.1     2.00000    -0.58338     1 2pz   0.35451     2 2pz  -0.35451
    7.1     2.00000    -0.50495     1 2py   0.30477     2 2py  -0.30477
    8.1     1.00000     0.03237     1 2px   0.38245     1 2px   0.68337     2 2px  -0.38245     2 2px  -0.68337
    9.1     1.00000    -0.22685     1 2px   0.35924     1 2px   0.31825     2 2px   0.35924     2 2px   0.31825
   10.1    -0.00000     0.23727     1 1s   -1.02242     1 2py  -0.38163     1 2pz  -0.47052     2 1s   -1.02242     2 2py  -0.38163
                                    2 2pz   0.47052     3 1s    1.21262     4 1s    0.26511     5 1s    1.21262     6 1s    0.26511
   11.1    -0.00000     0.30086     1 1s   -1.80025     1 2py  -0.28177     2 1s    1.80025     2 2py   0.28177     3 1s    1.15810
                                    4 1s    0.86734     5 1s   -1.15810     6 1s   -0.86734
   12.1    -0.00000     0.30564     1 1s   -1.23048     1 2py   0.71539     1 2pz  -0.46907     2 1s   -1.23048     2 2py   0.71539
                                    2 2pz   0.46907     4 1s    1.84604     6 1s    1.84604
   13.1    -0.00000     0.38451     1 1s   -1.30695     1 2py   1.80181     2 1s    1.30695     2 2py  -1.80181     3 1s   -1.13451
                                    4 1s    2.12953     5 1s    1.13451     6 1s   -2.12953
   14.1    -0.00000     0.49133     1 1s   -2.79755     1 2py  -0.47947     1 2pz   2.96017     2 1s    2.79755     2 2py   0.47947
                                    2 2pz   2.96017     4 1s   -1.13389     6 1s    1.13389
   15.1    -0.00000     0.65182     1 1s    0.31172     1 2pz  -0.51913     1 2pz   1.02840     2 1s    0.31172     2 2pz   0.51913
                                    2 2pz  -1.02840
   16.1    -0.00000     0.75107     1 1s    0.34309     1 1s   -0.73956     1 2py  -0.38144     1 2py   0.80868     2 1s    0.34309
                                    2 1s   -0.73956     2 2py  -0.38144     2 2py   0.80868     3 1s   -0.27508     4 1s    0.40156
                                    4 1s    0.44209     5 1s   -0.27508     6 1s    0.40156     6 1s    0.44209
   17.1    -0.00000     0.76981     1 2px  -0.74685     1 2px   0.63485     2 2px  -0.74685     2 2px   0.63485
   18.1    -0.00000     0.87111     1 2px  -0.80170     1 2px   1.10662     2 2px   0.80170     2 2px  -1.10662
   19.1    -0.00000     0.87458     1 1s   -0.81336     1 1s    1.40778     1 2pz   0.39443     2 1s   -0.81336     2 1s    1.40778
                                    2 2pz  -0.39443     3 1s   -0.55052     4 1s   -0.46768     5 1s   -0.55052     6 1s   -0.46768
   20.1    -0.00000     0.92704     1 1s   -0.83398     1 2pz   0.56563     1 2py   0.94152     1 2pz  -0.57938     2 1s    0.83398
                                    2 2pz   0.56563     2 2py  -0.94152     2 2pz  -0.57938     3 1s    0.43142     3 1s   -0.43019
                                    4 1s    0.35180     4 1s    0.74344     5 1s   -0.43142     5 1s    0.43019     6 1s   -0.35180
                                    6 1s   -0.74344
   21.1    -0.00000     1.05697     1 1s    0.53163     1 1s   -0.72799     1 2py   0.57468     1 2py  -0.93160     2 1s    0.53163
                                    2 1s   -0.72799     2 2py   0.57468     2 2py  -0.93160     3 1s   -0.51682     3 1s    1.24840
                                    4 1s   -0.52490     5 1s   -0.51682     5 1s    1.24840     6 1s   -0.52490
   22.1    -0.00000     1.09312     1 1s   -0.27931     1 2py  -0.67649     1 2pz  -0.48418     1 2py   1.90653     1 2pz   0.76875
                                    2 1s    0.27931     2 2py   0.67649     2 2pz  -0.48418     2 2py  -1.90653     2 2pz   0.76875
                                    3 1s    0.37254     3 1s   -1.45523     4 1s    0.58422     5 1s   -0.37254     5 1s    1.45523
                                    6 1s   -0.58422
   23.1    -0.00000     1.28045     1 1s   -0.76422     1 1s    2.15573     1 2py   0.57185     1 2pz  -0.29879     1 2py  -2.72978
                                    1 2pz   0.52823     2 1s    0.76422     2 1s   -2.15573     2 2py  -0.57185     2 2pz  -0.29879
                                    2 2py   2.72978     2 2pz   0.52823     3 1s    0.51479     4 1s   -2.31274     5 1s   -0.51479
                                    6 1s    2.31274
   24.1    -0.00000     1.29118     1 1s   -0.89981     1 1s    1.62041     1 2py   0.35250     1 2pz  -0.33737     1 2py  -0.58480
                                    1 2pz   0.46533     2 1s   -0.89981     2 1s    1.62041     2 2py   0.35250     2 2pz   0.33737
                                    2 2py  -0.58480     2 2pz  -0.46533     4 1s    0.58900     4 1s   -1.42191     6 1s    0.58900
                                    6 1s   -1.42191
   25.1    -0.00000     1.31494     1 1s   -1.37588     1 1s    5.01333     1 2pz   0.38563     1 2pz  -2.09275     2 1s    1.37588
                                    2 1s   -5.01333     2 2pz   0.38563     2 2pz  -2.09275     4 1s   -0.31099     6 1s    0.31099
   26.1    -0.00000     1.51712     1 1s   -0.54014     1 1s    0.79863     1 2py   1.86357     2 1s    0.54014     2 1s   -0.79863
                                    2 2py  -1.86357     3 1s   -0.52337     3 1s   -0.49749     4 1s    0.80413     4 1s    0.26560
                                    5 1s    0.52337     5 1s    0.49749     6 1s   -0.80413     6 1s   -0.26560
   27.1    -0.00000     1.70882     1 3d1+  0.61397     2 3d1+ -0.61397
   28.1    -0.00000     1.80596     1 3d2-  0.67570     2 3d2-  0.67570
   29.1    -0.00000     2.10071     1 3d2-  0.73604     2 3d2- -0.73604
   30.1    -0.00000     2.11229     1 1s   -0.52155     1 3d2+  0.60789     1 3d1- -0.32930     2 1s   -0.52155     2 3d2+  0.60789
                                    2 3d1-  0.32930     3 1s    0.48429     5 1s    0.48429
   31.1    -0.00000     2.35589     1 1s   -0.42492     1 1s    0.34593     1 2pz   0.32379     1 2pz  -0.29725     1 3d0   0.62194
                                    1 3d1- -0.29450     2 1s   -0.42492     2 1s    0.34593     2 2pz  -0.32379     2 2pz   0.29725
                                    2 3d0   0.62194     2 3d1-  0.29450     4 1s   -0.30470     6 1s   -0.30470
   32.1    -0.00000     2.45453     1 1s   -0.33807     1 2py   0.30110     1 2pz  -0.32794     1 3d0   0.32346     1 3d2+  0.39243
                                    1 3d1-  0.53807     2 1s   -0.33807     2 2py   0.30110     2 2pz   0.32794     2 3d0   0.32346
                                    2 3d2+  0.39243     2 3d1- -0.53807     4 1s    0.80923     6 1s    0.80923
   33.1    -0.00000     2.56346     1 1s    0.25668     1 1s   -1.20696     1 3d2+  0.74433     1 3d1- -0.27842     2 1s   -0.25668
                                    2 1s    1.20696     2 3d2+ -0.74433     2 3d1- -0.27842     3 1s    0.42225     4 1s    0.38588
                                    5 1s   -0.42225     6 1s   -0.38588
   34.1    -0.00000     2.68268     1 2px  -0.26484     1 3d1+  0.90291     2 2px   0.26484     2 3d1+  0.90291
   35.1    -0.00000     3.03888     1 1s    0.30458     1 1s    2.11635     1 2pz  -0.76997     1 2pz  -1.19779     1 3d0   1.10496
                                    2 1s   -0.30458     2 1s   -2.11635     2 2pz  -0.76997     2 2pz  -1.19779     2 3d0  -1.10496
   36.1    -0.00000     3.12932     1 1s   -0.39481     1 2py   0.62487     1 3d2+  0.30970     1 3d1-  0.94126     2 1s    0.39481
                                    2 2py  -0.62487     2 3d2+ -0.30970     2 3d1-  0.94126     4 1s    0.79220     6 1s   -0.79220


 EXTRA SYMMETRY OF MOS IN SYMMETRY 1:   1 1 1 1 1 1 1 2 2 1   1 1 1 1 1 1 2 2 1 1   1 1 1 1 1 1 2 2 2 1   1 1 1 2 1 1

 Natural orbital dump (state averaged) at molpro section  2140.2    (Orbital set 2)



 **********************************************************************************************************************************
 DATASETS  * FILE   NREC   LENGTH (MB)   RECORD NAMES
              1      20       31.36       500      610      700      900      950      970     1000      129      960     1100   
                                          VAR    BASINP    GEOM    SYMINP    ZMAT    AOBASIS   BASIS     P2S    ABASIS      S 
                                         1400     1410     1200     1210     1080     1600     1650     1300     1700     1380   
                                           T        V       H0       H01     AOSYM     SMH    MOLCAS    ERIS     OPER     JKOP   

              2       5        5.42       700     1000      520     2100     2140   
                                         GEOM     BASIS   MCVARS     RHF     MCSCF   

 PROGRAMS   *        TOTAL     MULTI    HF-SCF       INT
 CPU TIMES  *         0.63      0.17      0.10      0.25
 REAL TIME  *         0.90 SEC
 DISK USED  *        38.55 MB
 **********************************************************************************************************************************
 Molecular orbitals read from record     2140.2  Type=MCSCF/NATURAL (state averaged)
 Occupation numbers read from record     2140.2  Type=MCSCF/NATURAL (state averaged)
 Orbital energies read from record       2140.2  Type=MCSCF/NATURAL (state averaged)
 Redundancy group numbers read from rec  2140.2  Type=MCSCF/NATURAL (state averaged)

 MULTI/6-31G* energy=    -77.438654197528

           MULTI          HF-SCF
    -77.43865420    -77.98352982
 **********************************************************************************************************************************
 Molpro calculation terminated
