
 Primary working directories    : /scratch.local/johan406.molpro_temp/molpro.VXSDOeyzK0
 Secondary working directories  : /scratch.local/johan406.molpro_temp/molpro.VXSDOeyzK0
 Wavefunction directory         : /home/goodpast/johan406/wfu/
 Main file repository           : /scratch.local/johan406.molpro_temp/molpro.VXSDOeyzK0/

 id        : roweumn

 Nodes     nprocs
 cn0117       1

 Using customized tuning parameters: mindgm=1; mindgv=20; mindgc=4; mindgr=1; noblas=0; minvec=7
 default implementation of scratch files=df  


 Variables initialized (934), CPU time= 0.00 sec
                                                                                 !leave this line blank
 
 gprint, orbitals=30
 memory, 125., m
 symmetry, nosym
 nelect=16
 basis=6-31g*
 
 geometry={
 C -0.0 -0.0252 0.6691
 C 0.0 -0.0252 -0.6691
 H 0.0 1.0661 1.3284
 H -0.0 -0.7637 1.1412
 H 0.0 1.0661 -1.3284
 H -0.0 -0.7637 -1.1412
 }
 
 hf
 {multi,
 closed 7
 occ 9
 wf,spin=0;STATE,3
 }
 
 Commands  initialized (763), CPU time= 0.01 sec, 617 directives.
 Default parameters read. Elapsed time= 0.16 sec

 Checking input...
 Passed
1


                                         ***  PROGRAM SYSTEM MOLPRO  ***
                                       Copyright, TTI GmbH Stuttgart, 2015
                                    Version 2019.2 linked Oct 25 2019 22:50:27


 **********************************************************************************************************************************
 LABEL *                                                                                 
  64 bit serial version                                                                  DATE: 26-Jan-23          TIME: 21:18:15  
 **********************************************************************************************************************************

 SHA1:             8dbd9ae1082e4ce945b0f27595c9eb2d4aa09004
 **********************************************************************************************************************************


 Variable memory set to  125000000 words,  buffer space 

 SETTING NELECT         =        16.00000000                                  
 SETTING BASIS          =    6-31G*
 ZSYMEL=NOSYM


Geometry recognized as XYZ



 Recomputing integrals since basis changed


 Using spherical harmonics

 Library entry C      S 6-31G                selected for orbital group  1
 Library entry C      P 6-31G                selected for orbital group  1
 Library entry C      D 6-31G*               selected for orbital group  1
 Library entry H      S 6-31G                selected for orbital group  2


 PROGRAM * SEWARD (Integral evaluation for generally contracted gaussian basis sets)     Author: Roland Lindh, 1990

 Geometry written to block  1 of record 700


 Point group  C1  



 ATOMIC COORDINATES

 NR  ATOM    CHARGE       X              Y              Z

   1  C       6.00    0.000000000   -0.047621098    1.264415750
   2  C       6.00    0.000000000   -0.047621098   -1.264415750
   3  H       1.00    0.000000000    2.014637021    2.510312184
   4  H       1.00    0.000000000   -1.443183841    2.156555453
   5  H       1.00    0.000000000    2.014637021   -2.510312184
   6  H       1.00    0.000000000   -1.443183841   -2.156555453

 Bond lengths in Bohr (Angstrom)

 1-2  2.528831500  1-3  2.409391308  1-4  1.656354014  2-5  2.409391308  2-6  1.656354014
     ( 1.338200000)     ( 1.274994973)     ( 0.876504797)     ( 1.274994973)     ( 0.876504797)

 Bond angles

  1-2-5  121.13793073   1-2-6  122.58951175   2-1-3  121.13793073   2-1-4  122.58951175

  3-1-4  116.27255752   5-2-6  116.27255752

 NUCLEAR CHARGE:                   16
 NUMBER OF PRIMITIVE AOS:          72
 NUMBER OF SYMMETRY AOS:           70
 NUMBER OF CONTRACTIONS:           36   (   36A   )
 NUMBER OF CORE ORBITALS:           2   (    2A   )
 NUMBER OF VALENCE ORBITALS:       12   (   12A   )


 NUCLEAR REPULSION ENERGY   33.84967141

 EXTRA SYMMETRY OF AOS IN SYMMETRY 1:   1 1 1 2 1 1 2 1 1 1   2 2 1 1 1 1 1 2 1 1   2 1 1 1 2 2 1 1 1 1   1 1 1 1 1 1

 Eigenvalues of metric

         1 0.764E-02 0.134E-01 0.251E-01 0.550E-01 0.906E-01 0.162E+00 0.186E+00 0.196E+00


 Contracted 2-electron integrals neglected if value below      1.0D-11
 AO integral compression algorithm  1   Integral accuracy      1.0D-11

     0.786 MB (compressed) written to integral file ( 38.0%)


 NUMBER OF SORTED TWO-ELECTRON INTEGRALS:     222111.     BUFFER LENGTH:  32768
 NUMBER OF SEGMENTS:   1  SEGMENT LENGTH:     222111      RECORD LENGTH: 524288

 Memory used in sort:       0.78 MW

 SORT1 READ      284735. AND WROTE       98967. INTEGRALS IN      1 RECORDS. CPU TIME:     0.00 SEC, REAL TIME:     0.01 SEC
 SORT2 READ       98967. AND WROTE      222111. INTEGRALS IN      3 RECORDS. CPU TIME:     0.02 SEC, REAL TIME:     0.02 SEC

 FILE SIZES:   FILE 1:    30.9 MBYTE,  FILE 4:     4.2 MBYTE,   TOTAL:     35.1 MBYTE

 OPERATOR DM      FOR CENTER  0  COORDINATES:    0.000000    0.000000    0.000000


 **********************************************************************************************************************************
 DATASETS  * FILE   NREC   LENGTH (MB)   RECORD NAMES
              1      19       30.63       500      610      700      900      950      970     1000      129      960     1100   
                                          VAR    BASINP    GEOM    SYMINP    ZMAT    AOBASIS   BASIS     P2S    ABASIS      S 
                                         1400     1410     1200     1210     1080     1600     1650     1300     1700   
                                           T        V       H0       H01     AOSYM     SMH    MOLCAS    ERIS     OPER   

 PROGRAMS   *        TOTAL       INT
 CPU TIMES  *         0.36      0.25
 REAL TIME  *         0.64 SEC
 DISK USED  *        35.45 MB
 **********************************************************************************************************************************


 PROGRAM * RHF-SCF (CLOSED SHELL)       Authors: W. Meyer, H.-J. Werner


 NUMBER OF ELECTRONS:       8+    8-    SPACE SYMMETRY=1    SPIN SYMMETRY: Singlet 
 CONVERGENCE THRESHOLDS:    1.00E-05 (Density)    1.00E-07 (Energy)
 MAX. NUMBER OF ITERATIONS:       60
 INTERPOLATION TYPE:            DIIS
 INTERPOLATION STEPS:              2 (START)      1 (STEP)
 LEVEL SHIFTS:                  0.00 (CLOSED)  0.00 (OPEN) 



 Orbital guess generated from atomic densities. Full valence occupancy:    8

 Molecular orbital dump at record        2100.2

 Initial occupancy:   8

 ITERATION    DDIFF          GRAD             ENERGY        2-EL.EN.            DIPOLE MOMENTS         DIIS   ORB.
    1      0.000D+00      0.000D+00       -77.87456115    119.472244   -0.00000    0.31639    0.00000    0    start
    2      0.000D+00      0.948D-02       -77.90270574    117.184103   -0.00000   -0.09824    0.00000    1    diag
    3      0.952D-02      0.348D-02       -77.90569142    117.923074   -0.00000   -0.08315    0.00000    2    diag
    4      0.297D-02      0.812D-03       -77.90599701    117.815278    0.00000   -0.12273   -0.00000    3    diag
    5      0.126D-02      0.871D-04       -77.90600065    117.817492   -0.00000   -0.12693   -0.00000    4    diag
    6      0.171D-03      0.134D-04       -77.90600074    117.817010   -0.00000   -0.12731   -0.00000    5    diag
    7      0.282D-04      0.236D-05       -77.90600074    117.817019   -0.00000   -0.12742   -0.00000    6    diag
    8      0.614D-05      0.442D-06       -77.90600074    117.817013   -0.00000   -0.12742   -0.00000    0    orth

 Final occupancy:   8

 !RHF STATE  1.1 Energy               -77.906000742165
 Nuclear energy                        33.84967141
 One-electron energy                 -170.66417859
 Two-electron energy                   58.90850643
 Virial quotient                       -0.99470266
 !RHF STATE  1.1 Dipole moment         -0.00000000    -0.12742296    -0.00000000
 Dipole moment /Debye                  -0.00000000    -0.32385565    -0.00000000

 ELECTRON ORBITALS
 =================

  Orbital  Occupation    Energy     Coefficients
    1.1     2.00000   -11.22957     1 1s    0.70416     2 1s    0.70416
    2.1     2.00000   -11.22797     1 1s    0.70452     2 1s   -0.70452
    3.1     2.00000    -1.04448     1 1s    0.30226     2 1s    0.30226
    4.1     2.00000    -0.83047     1 1s    0.23997
    5.1     2.00000    -0.67165     1 2py   0.27862     1 2pz  -0.25717     2 2py   0.27862     2 2pz   0.25717
    6.1     2.00000    -0.55696     1 2pz   0.32510     2 2pz  -0.32510
    7.1     2.00000    -0.48880     1 2py   0.28993     2 2py  -0.28993
    8.1     2.00000    -0.37369     1 2px   0.37699     1 2px   0.30486     2 2px   0.37699     2 2px   0.30486
    9.1     0.00000     0.17537     1 2px   0.34836     1 2px   0.72507     2 2px  -0.34836     2 2px  -0.72507
   10.1     0.00000     0.22132     1 1s   -0.90621     1 2py  -0.36305     1 2pz  -0.42255     2 1s   -0.90621     2 2py  -0.36305
                                    2 2pz   0.42255     3 1s    1.09480     5 1s    1.09480
   11.1     0.00000     0.29713     1 1s   -1.59804     1 2py  -0.37717     2 1s    1.59804     2 2py   0.37717     3 1s    1.13539
                                    4 1s    0.77763     5 1s   -1.13539     6 1s   -0.77763
   12.1     0.00000     0.32174     1 1s   -1.50768     1 2py   0.75013     1 2pz  -0.52128     2 1s   -1.50768     2 2py   0.75013
                                    2 2pz   0.52128     4 1s    2.10780     6 1s    2.10780
   13.1     0.00000     0.38328     1 1s   -1.94988     1 2py   1.74509     2 1s    1.94988     2 2py  -1.74509     3 1s   -0.90546
                                    4 1s    2.42328     5 1s    0.90546     6 1s   -2.42328
   14.1     0.00000     0.49898     1 1s   -2.58428     1 2py  -0.74242     1 2pz   3.01830     2 1s    2.58428     2 2py   0.74242
                                    2 2pz   3.01830     4 1s   -1.51242     6 1s    1.51242
   15.1     0.00000     0.65330     1 1s    0.62008     1 2pz  -0.48690     1 2py  -0.37138     1 2pz   1.07036     2 1s    0.62008
                                    2 2pz   0.48690     2 2py  -0.37138     2 2pz  -1.07036     4 1s   -0.38007     6 1s   -0.38007
   16.1     0.00000     0.76294     1 1s    0.47511     1 1s   -1.07522     1 2py  -0.34214     1 2pz  -0.25832     1 2py   0.83469
                                    2 1s    0.47511     2 1s   -1.07522     2 2py  -0.34214     2 2pz   0.25832     2 2py   0.83469
                                    4 1s    0.37296     4 1s    0.70509     6 1s    0.37296     6 1s    0.70509
   17.1     0.00000     0.77318     1 2px  -0.73941     1 2px   0.64110     2 2px  -0.73941     2 2px   0.64110
   18.1     0.00000     0.88538     1 2px  -0.81553     1 2px   1.08009     2 2px   0.81553     2 2px  -1.08009
   19.1     0.00000     0.89664     1 1s    0.74029     1 1s   -1.30613     1 2pz  -0.37156     2 1s    0.74029     2 1s   -1.30613
                                    2 2pz   0.37156     3 1s    0.62156     4 1s    0.55375     5 1s    0.62156     6 1s    0.55375
   20.1     0.00000     0.93269     1 1s   -1.15635     1 2pz   0.49785     1 2py   1.44837     1 2pz  -0.53015     2 1s    1.15635
                                    2 2pz   0.49785     2 2py  -1.44837     2 2pz  -0.53015     3 1s    0.46780     3 1s   -0.67142
                                    4 1s    0.33493     4 1s    1.19270     5 1s   -0.46780     5 1s    0.67142     6 1s   -0.33493
                                    6 1s   -1.19270
   21.1     0.00000     1.03554     1 1s   -0.63553     1 1s    0.83216     1 2py  -0.53912     1 2py   0.84952     2 1s   -0.63553
                                    2 1s    0.83216     2 2py  -0.53912     2 2py   0.84952     3 1s    0.50468     3 1s   -1.18834
                                    4 1s    0.37871     5 1s    0.50468     5 1s   -1.18834     6 1s    0.37871
   22.1     0.00000     1.06695     1 1s   -0.33739     1 1s    0.31662     1 2py  -0.57034     1 2pz  -0.57708     1 2py   1.34610
                                    1 2pz   0.87520     2 1s    0.33739     2 1s   -0.31662     2 2py   0.57034     2 2pz  -0.57708
                                    2 2py  -1.34610     2 2pz   0.87520     3 1s    0.36105     3 1s   -1.24294     5 1s   -0.36105
                                    5 1s    1.24294
   23.1     0.00000     1.29887     1 1s   -1.19440     1 1s    4.43810     1 2py   0.43565     1 2py  -2.77885     1 2pz  -0.46188
                                    2 1s    1.19440     2 1s   -4.43810     2 2py  -0.43565     2 2py   2.77885     2 2pz  -0.46188
                                    3 1s    0.43166     4 1s   -2.43352     5 1s   -0.43166     6 1s    2.43352
   24.1     0.00000     1.35170     1 1s   -0.93537     1 1s    3.36269     1 2py  -0.47410     1 2pz   0.39893     1 2py   1.71106
                                    1 2pz  -2.10329     2 1s    0.93537     2 1s   -3.36269     2 2py   0.47410     2 2pz   0.39893
                                    2 2py  -1.71106     2 2pz  -2.10329     3 1s   -0.45768     3 1s   -0.26828     4 1s   -0.25143
                                    4 1s    1.19879     5 1s    0.45768     5 1s    0.26828     6 1s    0.25143     6 1s   -1.19879
   25.1     0.00000     1.37873     1 1s   -0.85865     1 1s    1.66793     1 2py   0.41007     1 2pz  -0.32754     1 2py  -0.69044
                                    1 2pz   0.46652     2 1s   -0.85865     2 1s    1.66793     2 2py   0.41007     2 2pz   0.32754
                                    2 2py  -0.69044     2 2pz  -0.46652     4 1s    0.59333     4 1s   -1.56526     6 1s    0.59333
                                    6 1s   -1.56526
   26.1     0.00000     1.60474     1 1s   -0.68391     1 1s    0.92434     1 2py   0.28244     1 2pz  -0.28979     1 2py   1.15047
                                    2 1s    0.68391     2 1s   -0.92434     2 2py  -0.28244     2 2pz  -0.28979     2 2py  -1.15047
                                    3 1s   -0.39591     3 1s   -0.30933     4 1s    0.84341     5 1s    0.39591     5 1s    0.30933
                                    6 1s   -0.84341
   27.1     0.00000     1.72694     1 3d1+  0.60505     2 3d1+ -0.60505
   28.1     0.00000     1.81695     1 3d2-  0.66530     2 3d2-  0.66530
   29.1     0.00000     2.06526     1 1s   -0.53636     1 3d2+  0.58573     1 3d1- -0.34374     2 1s   -0.53636     2 3d2+  0.58573
                                    2 3d1-  0.34374     3 1s    0.43309     4 1s    0.27737     5 1s    0.43309     6 1s    0.27737
   30.1     0.00000     2.11772     1 3d2-  0.73581     2 3d2- -0.73581
   31.1     0.00000     2.37340     1 1s   -0.47233     1 1s    0.35338     1 2pz   0.33295     1 2pz  -0.33899     1 3d0   0.67612
                                    2 1s   -0.47233     2 1s    0.35338     2 2pz  -0.33295     2 2pz   0.33899     2 3d0   0.67612
   32.1     0.00000     2.53679     1 1s   -1.06858     1 2py   0.25187     1 3d2+  0.69629     1 3d1- -0.37591     2 1s    1.06858
                                    2 2py  -0.25187     2 3d2+ -0.69629     2 3d1- -0.37591     3 1s    0.36282     4 1s    0.36241
                                    5 1s   -0.36282     6 1s   -0.36241
   33.1     0.00000     2.58084     1 1s   -0.36715     1 2py   0.40669     1 2pz  -0.26538     1 3d2+  0.45124     1 3d1-  0.59508
                                    2 1s   -0.36715     2 2py   0.40669     2 2pz   0.26538     2 3d2+  0.45124     2 3d1- -0.59508
                                    4 1s    1.01349     6 1s    1.01349
   34.1     0.00000     2.70041     1 2px  -0.26347     1 3d1+  0.90226     2 2px   0.26347     2 3d1+  0.90226
   35.1     0.00000     3.05089     1 1s    0.31687     1 1s    2.08752     1 2pz  -0.77970     1 2pz  -1.19367     1 3d0   1.10763
                                    2 1s   -0.31687     2 1s   -2.08752     2 2pz  -0.77970     2 2pz  -1.19367     2 3d0  -1.10763
   36.1     0.00000     3.24425     1 1s   -0.73446     1 2py   0.69274     1 3d2+  0.43069     1 3d1-  0.93906     2 1s    0.73446
                                    2 2py  -0.69274     2 3d2+ -0.43069     2 3d1-  0.93906     4 1s    0.99884     6 1s   -0.99884


 HOMO      8.1    -0.373690 =     -10.1686eV
 LUMO      9.1     0.175373 =       4.7722eV
 LUMO-HOMO         0.549063 =      14.9408eV


 **********************************************************************************************************************************
 DATASETS  * FILE   NREC   LENGTH (MB)   RECORD NAMES
              1      19       30.63       500      610      700      900      950      970     1000      129      960     1100   
                                          VAR    BASINP    GEOM    SYMINP    ZMAT    AOBASIS   BASIS     P2S    ABASIS      S 
                                         1400     1410     1200     1210     1080     1600     1650     1300     1700   
                                           T        V       H0       H01     AOSYM     SMH    MOLCAS    ERIS     OPER   

              2       4        2.86       700     1000      520     2100   
                                         GEOM     BASIS   MCVARS     RHF  

 PROGRAMS   *        TOTAL    HF-SCF       INT
 CPU TIMES  *         0.46      0.10      0.25
 REAL TIME  *         0.77 SEC
 DISK USED  *        35.45 MB
 **********************************************************************************************************************************


 PROGRAM * MULTI (Direct Multiconfiguration SCF)       Authors: P.J. Knowles, H.-J. Werner (1984)


 Number of closed-shell orbitals:   7 (   7 )
 Number of active  orbitals:        2 (   2 )
 Number of external orbitals:      27 (  27 )

 State symmetry 1

 Number of electrons:     2    Spin symmetry=Singlet   Space symmetry=1
 Number of states:        3
 Number of CSFs:          3   (4 determinants, 4 intermediate states)

 Molecular orbitals read from record     2100.2  Type=RHF/CANONICAL (state 1.1)

 EXTRA SYMMETRY OF MOS IN SYMMETRY 1:   1 1 1 1 1 1 1 2 2 1   1 1 1 1 1 1 2 2 1 1   1 1 1 1 1 1 2 2 1 2   1 1 1 2 1 1

 Wavefunction dump at record             2140.2

 Convergence thresholds  0.10E-01 (gradient)  0.10E-05 (energy)  0.10E-02 (step length)

 Weight factors for state symmetry  1:    0.33333   0.33333   0.33333

 Number of orbital rotations:      257   (    14 Core/Active    189 Core/Virtual   0 Active/Active     54 Active/Virtual)
 Total number of variables:        269

 Micro-Iterations solved by the two-step solver

 ITER. MIC  NCI  NEG     ENERGY(VAR)     ENERGY(PROJ)   ENERGY CHANGE     GRAD(0)  GRAD(ORB)   GRAD(CI)     STEP       TIME

   1    3    3    0     -77.60416832     -77.61034991   -0.00618159    0.13186293 0.00000153 0.00000000  0.63D-01      0.06
   2    2    3    0     -77.61025247     -77.61025621   -0.00000374    0.00301512 0.00000185 0.00000000  0.16D-02      0.09
   3    2    3    0     -77.61025621     -77.61025621   -0.00000000    0.00000217 0.00000000 0.00000000  0.13D-05      0.13

 ** WVFN ****  CONVERGENCE REACHED, FINAL GRADIENT:  0.13D-11



 Results for state 1.1
 =====================

 !MCSCF STATE  1.1 Energy             -77.924143504615
 Nuclear energy                        33.84967141
 Kinetic energy                        78.38395460
 One electron energy                 -170.79310738
 Two electron energy                   59.01929246
 Virial ratio                           1.99413386

 !MCSCF STATE  1.1 Dipole moment        0.00000000    -0.08313952     0.00000000
 Dipole moment /Debye                   0.00000000    -0.21130574     0.00000000

 Results for state 2.1
 =====================

 !MCSCF STATE  2.1 Energy             -77.546092388136
 Nuclear energy                        33.84967141
 Kinetic energy                        78.57100385
 One electron energy                 -170.23228893
 Two electron energy                   58.83652512
 Virial ratio                           1.98695560

 !MCSCF STATE  2.1 Dipole moment        0.00000000    -0.08101886     0.00000000
 Dipole moment /Debye                   0.00000000    -0.20591593     0.00000000

 Results for state 3.1
 =====================

 !MCSCF STATE  3.1 Energy             -77.360532744719
 Nuclear energy                        33.84967141
 Kinetic energy                        78.75805309
 One electron energy                 -169.67147047
 Two electron energy                   58.46126631
 Virial ratio                           1.98225552

 !MCSCF STATE  3.1 Dipole moment        0.00000000    -0.07889821     0.00000000
 Dipole moment /Debye                   0.00000000    -0.20052611     0.00000000

 State-averaged charge density matrix saved on record  2140.2 (density set 1)

 !MCSCF expec         <1.1|DMY|1.1>    -0.083139518193 au =    -0.211305736648 Debye
 !MCSCF expec         <2.1|DMY|2.1>    -0.081018864279 au =    -0.205915925074 Debye
 !MCSCF trans         <3.1|DMY|1.1>    -0.000900458354 au =    -0.002288586944 Debye
 !MCSCF expec         <3.1|DMY|3.1>    -0.078898210365 au =    -0.200526113500 Debye

 !MCSCF trans         <2.1|DMZ|1.1>    -1.505149431834 au =    -3.825457692960 Debye
 !MCSCF trans         <3.1|DMZ|2.1>    -2.274323118094 au =    -5.780374150485 Debye


 NATURAL ORBITALS (state averaged)
 =================================

  Orbital  Occupation    Energy     Coefficients
    1.1     2.00000   -11.24441     1 1s    0.70417     2 1s    0.70417
    2.1     2.00000   -11.24308     1 1s    0.70448     2 1s   -0.70448
    3.1     2.00000    -1.05745     1 1s    0.31028     2 1s    0.31028
    4.1     2.00000    -0.83741     2 1s   -0.24023
    5.1     2.00000    -0.68707     1 2py   0.28145     1 2pz  -0.26301     2 2py   0.28145     2 2pz   0.26301
    6.1     2.00000    -0.56960     1 2pz   0.32313     2 2pz  -0.32313
    7.1     2.00000    -0.49530     1 2py   0.29645     2 2py  -0.29645
    8.1     1.00000     0.03039     1 2px   0.38613     1 2px   0.67794     2 2px  -0.38613     2 2px  -0.67794
    9.1     1.00000    -0.22900     1 2px   0.36130     1 2px   0.31658     2 2px   0.36130     2 2px   0.31658
   10.1    -0.00000     0.21506     1 1s   -0.85758     1 2py  -0.37971     1 2pz  -0.40704     2 1s   -0.85758     2 2py  -0.37971
                                    2 2pz   0.40704     3 1s    1.09647     5 1s    1.09647
   11.1    -0.00000     0.29229     1 1s   -1.58310     1 2py  -0.41875     2 1s    1.58310     2 2py   0.41875     3 1s    1.15232
                                    4 1s    0.70402     5 1s   -1.15232     6 1s   -0.70402
   12.1    -0.00000     0.31760     1 1s   -1.53302     1 2py   0.73296     1 2pz  -0.54459     2 1s   -1.53302     2 2py   0.73296
                                    2 2pz   0.54459     4 1s    2.10754     6 1s    2.10754
   13.1    -0.00000     0.38157     1 1s   -1.96997     1 2py   1.72977     2 1s    1.96997     2 2py  -1.72977     3 1s   -0.87175
                                    4 1s    2.44613     5 1s    0.87175     6 1s   -2.44613
   14.1    -0.00000     0.49566     1 1s   -2.57569     1 2py  -0.70748     1 2pz   2.99840     2 1s    2.57569     2 2py   0.70748
                                    2 2pz   2.99840     4 1s   -1.49114     6 1s    1.49114
   15.1    -0.00000     0.64395     1 1s    0.51545     1 2pz  -0.48522     1 2py  -0.34360     1 2pz   1.05101     2 1s    0.51545
                                    2 2pz   0.48522     2 2py  -0.34360     2 2pz  -1.05101     4 1s   -0.31647     6 1s   -0.31647
   16.1    -0.00000     0.75088     1 1s    0.46878     1 1s   -1.10245     1 2py  -0.35303     1 2py   0.85234     2 1s    0.46878
                                    2 1s   -1.10245     2 2py  -0.35303     2 2py   0.85234     4 1s    0.37708     4 1s    0.72943
                                    6 1s    0.37708     6 1s    0.72943
   17.1    -0.00000     0.76762     1 2px  -0.74630     1 2px   0.63575     2 2px  -0.74630     2 2px   0.63575
   18.1    -0.00000     0.86835     1 2px  -0.79972     1 2px   1.11010     2 2px   0.79972     2 2px  -1.11010
   19.1    -0.00000     0.89416     1 1s    0.74318     1 1s   -1.34004     1 2pz  -0.40506     2 1s    0.74318     2 1s   -1.34004
                                    2 2pz   0.40506     3 1s    0.61422     4 1s    0.56662     5 1s    0.61422     6 1s    0.56662
   20.1    -0.00000     0.91615     1 1s   -1.01839     1 2pz   0.51286     1 2py   1.42795     1 2pz  -0.62969     2 1s    1.01839
                                    2 2pz   0.51286     2 2py  -1.42795     2 2pz  -0.62969     3 1s    0.46069     3 1s   -0.65353
                                    4 1s    0.33615     4 1s    1.19328     5 1s   -0.46069     5 1s    0.65353     6 1s   -0.33615
                                    6 1s   -1.19328
   21.1    -0.00000     1.02495     1 1s   -0.61423     1 1s    0.79705     1 2py  -0.53630     1 2py   0.86029     2 1s   -0.61423
                                    2 1s    0.79705     2 2py  -0.53630     2 2py   0.86029     3 1s    0.50863     3 1s   -1.19572
                                    4 1s    0.41426     5 1s    0.50863     5 1s   -1.19572     6 1s    0.41426
   22.1    -0.00000     1.05858     1 1s   -0.30778     1 2py  -0.58494     1 2pz  -0.56664     1 2py   1.43295     1 2pz   0.88732
                                    2 1s    0.30778     2 2py   0.58494     2 2pz  -0.56664     2 2py  -1.43295     2 2pz   0.88732
                                    3 1s    0.36343     3 1s   -1.26246     4 1s    0.27118     5 1s   -0.36343     5 1s    1.26246
                                    6 1s   -0.27118
   23.1    -0.00000     1.28776     1 1s   -1.30133     1 1s    4.81737     1 2py   0.36879     1 2py  -2.54921     1 2pz  -0.68277
                                    2 1s    1.30133     2 1s   -4.81737     2 2py  -0.36879     2 2py   2.54921     2 2pz  -0.68277
                                    3 1s    0.38039     4 1s   -2.28822     5 1s   -0.38039     6 1s    2.28822
   24.1    -0.00000     1.33594     1 1s   -0.79354     1 1s    2.83184     1 2py  -0.51602     1 2pz   0.39592     1 2py   2.01000
                                    1 2pz  -2.03675     2 1s    0.79354     2 1s   -2.83184     2 2py   0.51602     2 2pz   0.39592
                                    2 2py  -2.01000     2 2pz  -2.03675     3 1s   -0.50801     3 1s   -0.28337     4 1s    1.46424
                                    5 1s    0.50801     5 1s    0.28337     6 1s   -1.46424
   25.1    -0.00000     1.36957     1 1s   -0.86556     1 1s    1.68159     1 2py   0.39277     1 2pz  -0.33133     1 2py  -0.67858
                                    1 2pz   0.47415     2 1s   -0.86556     2 1s    1.68159     2 2py   0.39277     2 2pz   0.33133
                                    2 2py  -0.67858     2 2pz  -0.47415     4 1s    0.58717     4 1s   -1.56242     6 1s    0.58717
                                    6 1s   -1.56242
   26.1    -0.00000     1.59655     1 1s   -0.68510     1 1s    0.93782     1 2py   0.27509     1 2pz  -0.29729     1 2py   1.14659
                                    2 1s    0.68510     2 1s   -0.93782     2 2py  -0.27509     2 2pz  -0.29729     2 2py  -1.14659
                                    3 1s   -0.39395     3 1s   -0.31436     4 1s    0.83863     5 1s    0.39395     5 1s    0.31436
                                    6 1s   -0.83863
   27.1    -0.00000     1.70225     1 3d1+  0.60762     2 3d1+ -0.60762
   28.1    -0.00000     1.80344     1 3d2-  0.66840     2 3d2-  0.66840
   29.1    -0.00000     2.05028     1 1s   -0.53820     1 3d2+  0.58618     1 3d1- -0.34190     2 1s   -0.53820     2 3d2+  0.58618
                                    2 3d1-  0.34190     3 1s    0.43540     4 1s    0.28307     5 1s    0.43540     6 1s    0.28307
   30.1    -0.00000     2.09531     1 3d2-  0.73580     2 3d2- -0.73580
   31.1    -0.00000     2.35503     1 1s   -0.47271     1 1s    0.34619     1 2pz   0.33786     1 2pz  -0.34394     1 3d0   0.67812
                                    2 1s   -0.47271     2 1s    0.34619     2 2pz  -0.33786     2 2pz   0.34394     2 3d0   0.67812
   32.1    -0.00000     2.51846     1 1s   -1.07832     1 2py   0.25740     1 3d2+  0.69677     1 3d1- -0.37349     2 1s    1.07832
                                    2 2py  -0.25740     2 3d2+ -0.69677     2 3d1- -0.37349     3 1s    0.36484     4 1s    0.36822
                                    5 1s   -0.36484     6 1s   -0.36822
   33.1    -0.00000     2.56540     1 1s   -0.36532     1 2py   0.41248     1 2pz  -0.26218     1 3d2+  0.45124     1 3d1-  0.59521
                                    2 1s   -0.36532     2 2py   0.41248     2 2pz   0.26218     2 3d2+  0.45124     2 3d1- -0.59521
                                    4 1s    1.01979     6 1s    1.01979
   34.1    -0.00000     2.67848     1 2px  -0.26420     1 3d1+  0.90266     2 2px   0.26420     2 3d1+  0.90266
   35.1    -0.00000     3.03365     1 1s    0.31012     1 1s    2.10765     1 2pz  -0.77360     1 2pz  -1.20659     1 3d0   1.10976
                                    2 1s   -0.31012     2 1s   -2.10765     2 2pz  -0.77360     2 2pz  -1.20659     2 3d0  -1.10976
   36.1    -0.00000     3.23140     1 1s   -0.74153     1 2py   0.69238     1 3d2+  0.42835     1 3d1-  0.93996     2 1s    0.74153
                                    2 2py  -0.69238     2 3d2+ -0.42835     2 3d1-  0.93996     4 1s    1.00211     6 1s   -1.00211


 Natural orbital dump (state averaged) at molpro section  2140.2    (Orbital set 2)



 **********************************************************************************************************************************
 DATASETS  * FILE   NREC   LENGTH (MB)   RECORD NAMES
              1      20       31.36       500      610      700      900      950      970     1000      129      960     1100   
                                          VAR    BASINP    GEOM    SYMINP    ZMAT    AOBASIS   BASIS     P2S    ABASIS      S 
                                         1400     1410     1200     1210     1080     1600     1650     1300     1700     1380   
                                           T        V       H0       H01     AOSYM     SMH    MOLCAS    ERIS     OPER     JKOP   

              2       5        5.42       700     1000      520     2100     2140   
                                         GEOM     BASIS   MCVARS     RHF     MCSCF   

 PROGRAMS   *        TOTAL     MULTI    HF-SCF       INT
 CPU TIMES  *         0.62      0.16      0.10      0.25
 REAL TIME  *         0.96 SEC
 DISK USED  *        38.55 MB
 **********************************************************************************************************************************
 Molecular orbitals read from record     2140.2  Type=MCSCF/NATURAL (state averaged)
 Occupation numbers read from record     2140.2  Type=MCSCF/NATURAL (state averaged)
 Orbital energies read from record       2140.2  Type=MCSCF/NATURAL (state averaged)
 Redundancy group numbers read from rec  2140.2  Type=MCSCF/NATURAL (state averaged)

 MULTI/6-31G* energy=    -77.360532744719

           MULTI          HF-SCF
    -77.36053274    -77.90600074
 **********************************************************************************************************************************
 Molpro calculation terminated
