
 Primary working directories    : /scratch.local/johan406.molpro_temp/molpro.jtco8ZXCyf
 Secondary working directories  : /scratch.local/johan406.molpro_temp/molpro.jtco8ZXCyf
 Wavefunction directory         : /home/goodpast/johan406/wfu/
 Main file repository           : /scratch.local/johan406.molpro_temp/molpro.jtco8ZXCyf/

 id        : roweumn

 Nodes     nprocs
 cn0117       1

 Using customized tuning parameters: mindgm=1; mindgv=20; mindgc=4; mindgr=1; noblas=0; minvec=7
 default implementation of scratch files=df  


 Variables initialized (934), CPU time= 0.01 sec
                                                                                 !leave this line blank
 
 gprint, orbitals=30
 memory, 125., m
 symmetry, nosym
 nelect=16
 basis=6-31g*
 
 geometry={
 C 0.0066 0.0 0.6691
 C -0.0066 0.0 -0.6691
 H -0.0216 0.9149 1.2348
 H -0.0216 -0.9149 1.2348
 H 0.0216 0.9149 -1.2348
 H 0.0216 -0.9149 -1.2348
 }
 
 hf
 {multi,
 closed 7
 occ 9
 wf,spin=0;STATE,3
 }
 
 Commands  initialized (763), CPU time= 0.01 sec, 617 directives.
 Default parameters read. Elapsed time= 0.08 sec

 Checking input...
 Passed
1


                                         ***  PROGRAM SYSTEM MOLPRO  ***
                                       Copyright, TTI GmbH Stuttgart, 2015
                                    Version 2019.2 linked Oct 25 2019 22:50:27


 **********************************************************************************************************************************
 LABEL *                                                                                 
  64 bit serial version                                                                  DATE: 26-Jan-23          TIME: 19:23:13  
 **********************************************************************************************************************************

 SHA1:             8dbd9ae1082e4ce945b0f27595c9eb2d4aa09004
 **********************************************************************************************************************************


 Variable memory set to  125000000 words,  buffer space 

 SETTING NELECT         =        16.00000000                                  
 SETTING BASIS          =    6-31G*
 ZSYMEL=NOSYM


Geometry recognized as XYZ



 Recomputing integrals since basis changed


 Using spherical harmonics

 Library entry C      S 6-31G                selected for orbital group  1
 Library entry C      P 6-31G                selected for orbital group  1
 Library entry C      D 6-31G*               selected for orbital group  1
 Library entry H      S 6-31G                selected for orbital group  2


 PROGRAM * SEWARD (Integral evaluation for generally contracted gaussian basis sets)     Author: Roland Lindh, 1990

 Geometry written to block  1 of record 700


 Point group  C1  



 ATOMIC COORDINATES

 NR  ATOM    CHARGE       X              Y              Z

   1  C       6.00    0.012472192    0.000000000    1.264415750
   2  C       6.00   -0.012472192    0.000000000   -1.264415750
   3  H       1.00   -0.040818084    1.728910431    2.333433819
   4  H       1.00   -0.040818084   -1.728910431    2.333433819
   5  H       1.00    0.040818084    1.728910431   -2.333433819
   6  H       1.00    0.040818084   -1.728910431   -2.333433819

 Bond lengths in Bohr (Angstrom)

 1-2  2.528954523  1-3  2.033413574  1-4  2.033413574  2-5  2.033413574  2-6  2.033413574
     ( 1.338265101)     ( 1.076036124)     ( 1.076036124)     ( 1.076036124)     ( 1.076036124)

 Bond angles

  1-2-5  121.69798803   1-2-6  121.69798803   2-1-3  121.69798803   2-1-4  121.69798803

  3-1-4  116.47780014   5-2-6  116.47780014

 NUCLEAR CHARGE:                   16
 NUMBER OF PRIMITIVE AOS:          72
 NUMBER OF SYMMETRY AOS:           70
 NUMBER OF CONTRACTIONS:           36   (   36A   )
 NUMBER OF CORE ORBITALS:           2   (    2A   )
 NUMBER OF VALENCE ORBITALS:       12   (   12A   )


 NUCLEAR REPULSION ENERGY   33.40145975


 Eigenvalues of metric

         1 0.831E-02 0.174E-01 0.377E-01 0.461E-01 0.710E-01 0.192E+00 0.211E+00 0.225E+00


 Contracted 2-electron integrals neglected if value below      1.0D-11
 AO integral compression algorithm  1   Integral accuracy      1.0D-11

     1.311 MB (compressed) written to integral file ( 49.0%)


 NUMBER OF SORTED TWO-ELECTRON INTEGRALS:     222111.     BUFFER LENGTH:  32768
 NUMBER OF SEGMENTS:   1  SEGMENT LENGTH:     222111      RECORD LENGTH: 524288

 Memory used in sort:       0.78 MW

 SORT1 READ      284735. AND WROTE      177281. INTEGRALS IN      1 RECORDS. CPU TIME:     0.00 SEC, REAL TIME:     0.01 SEC
 SORT2 READ      177281. AND WROTE      222111. INTEGRALS IN      5 RECORDS. CPU TIME:     0.02 SEC, REAL TIME:     0.02 SEC

 FILE SIZES:   FILE 1:    31.4 MBYTE,  FILE 4:     4.2 MBYTE,   TOTAL:     35.6 MBYTE

 OPERATOR DM      FOR CENTER  0  COORDINATES:    0.000000    0.000000    0.000000


 **********************************************************************************************************************************
 DATASETS  * FILE   NREC   LENGTH (MB)   RECORD NAMES
              1      19       30.96       500      610      700      900      950      970     1000      129      960     1100   
                                          VAR    BASINP    GEOM    SYMINP    ZMAT    AOBASIS   BASIS     P2S    ABASIS      S 
                                         1400     1410     1200     1210     1080     1600     1650     1300     1700   
                                           T        V       H0       H01     AOSYM     SMH    MOLCAS    ERIS     OPER   

 PROGRAMS   *        TOTAL       INT
 CPU TIMES  *         0.35      0.25
 REAL TIME  *         0.56 SEC
 DISK USED  *        35.97 MB
 **********************************************************************************************************************************


 PROGRAM * RHF-SCF (CLOSED SHELL)       Authors: W. Meyer, H.-J. Werner


 NUMBER OF ELECTRONS:       8+    8-    SPACE SYMMETRY=1    SPIN SYMMETRY: Singlet 
 CONVERGENCE THRESHOLDS:    1.00E-05 (Density)    1.00E-07 (Energy)
 MAX. NUMBER OF ITERATIONS:       60
 INTERPOLATION TYPE:            DIIS
 INTERPOLATION STEPS:              2 (START)      1 (STEP)
 LEVEL SHIFTS:                  0.00 (CLOSED)  0.00 (OPEN) 



 Orbital guess generated from atomic densities. Full valence occupancy:    8

 Molecular orbital dump at record        2100.2

 Initial occupancy:   8

 ITERATION    DDIFF          GRAD             ENERGY        2-EL.EN.            DIPOLE MOMENTS         DIIS   ORB.
    1      0.000D+00      0.000D+00       -78.00628006    118.712805    0.00000   -0.00000    0.00000    0    start
    2      0.000D+00      0.859D-02       -78.02823188    116.874141   -0.00000   -0.00000    0.00000    1    diag
    3      0.821D-02      0.292D-02       -78.03035972    117.504795    0.00000   -0.00000    0.00000    2    diag
    4      0.264D-02      0.713D-03       -78.03056964    117.405985    0.00000   -0.00000    0.00000    3    diag
    5      0.107D-02      0.687D-04       -78.03057183    117.408901    0.00000    0.00000    0.00000    4    diag
    6      0.148D-03      0.917D-05       -78.03057188    117.408463   -0.00000   -0.00000   -0.00000    5    diag
    7      0.177D-04      0.234D-05       -78.03057188    117.408475    0.00000    0.00000   -0.00000    6    diag
    8      0.485D-05      0.720D-06       -78.03057188    117.408468   -0.00000    0.00000   -0.00000    0    orth

 Final occupancy:   8

 !RHF STATE  1.1 Energy               -78.030571880092
 Nuclear energy                        33.40145975
 One-electron energy                 -170.13626568
 Two-electron energy                   58.70423404
 Virial quotient                       -1.00012589
 !RHF STATE  1.1 Dipole moment         -0.00000000     0.00000000    -0.00000000
 Dipole moment /Debye                  -0.00000000     0.00000000    -0.00000000

 ELECTRON ORBITALS
 =================

  Orbital  Occupation    Energy     Coefficients
    1.1     2.00000   -11.22520     1 1s    0.70418     2 1s    0.70418
    2.1     2.00000   -11.22360     1 1s    0.70454     2 1s   -0.70454
    3.1     2.00000    -1.02691     1 1s    0.30213     2 1s    0.30213
    4.1     2.00000    -0.79212     1 1s    0.24200
    5.1     2.00000    -0.63847     1 2py   0.32171     2 2py   0.32171
    6.1     2.00000    -0.58272     1 2pz   0.40721     2 2pz  -0.40721
    7.1     2.00000    -0.50555     1 2py   0.30538     2 2py  -0.30538
    8.1     2.00000    -0.36933     1 2px   0.37317     1 2px   0.30788     2 2px   0.37317     2 2px   0.30788
    9.1     0.00000     0.17824     1 2px   0.34177     1 2px   0.73210     2 2px  -0.34177     2 2px  -0.73210
   10.1     0.00000     0.26655     1 1s   -1.49600     1 2pz  -0.64715     2 1s   -1.49600     2 2pz   0.64715     3 1s    1.04149
                                    4 1s    1.04149     5 1s    1.04149     6 1s    1.04149
   11.1     0.00000     0.29458     1 2py  -0.25212     1 2py  -0.80972     2 2py  -0.25212     2 2py  -0.80972     3 1s    1.10209
                                    4 1s   -1.10209     5 1s    1.10209     6 1s   -1.10209
   12.1     0.00000     0.30952     1 1s    1.93818     2 1s   -1.93818     3 1s   -1.07667     4 1s   -1.07667     5 1s    1.07667
                                    6 1s    1.07667
   13.1     0.00000     0.39111     1 2py  -1.87794     2 2py   1.87794     3 1s    1.63066     4 1s   -1.63066     5 1s   -1.63066
                                    6 1s    1.63066
   14.1     0.00000     0.49066     1 1s   -2.98990     1 2pz   2.95439     2 1s    2.98990     2 2pz   2.95439     3 1s   -0.59080
                                    4 1s   -0.59080     5 1s    0.59080     6 1s    0.59080
   15.1     0.00000     0.66931     1 2pz  -0.55607     1 2pz   1.03874     2 2pz   0.55607     2 2pz  -1.03874
   16.1     0.00000     0.76248     1 2py  -0.39877     1 2py   0.77186     2 2py  -0.39877     2 2py   0.77186     3 1s   -0.38656
                                    4 1s    0.38656     5 1s   -0.38656     6 1s    0.38656
   17.1     0.00000     0.77737     1 2px  -0.74046     1 2px   0.63971     2 2px  -0.74046     2 2px   0.63971
   18.1     0.00000     0.86342     1 1s   -0.88842     1 1s    1.46682     1 2pz   0.33979     2 1s   -0.88842     2 1s    1.46682
                                    2 2pz  -0.33979     3 1s   -0.39555     4 1s   -0.39555     5 1s   -0.39555     6 1s   -0.39555
   19.1     0.00000     0.89042     1 2px  -0.81836     1 2px   1.07444     2 2px   0.81836     2 2px  -1.07444
   20.1     0.00000     0.95469     1 1s   -0.86471     1 2pz   0.60313     1 2pz  -0.46980     2 1s    0.86471     2 2pz   0.60313
                                    2 2pz  -0.46980     3 1s    0.38407     4 1s    0.38407     5 1s   -0.38407     6 1s   -0.38407
   21.1     0.00000     1.11651     1 2py  -0.68981     1 2py   1.10174     2 2py  -0.68981     2 2py   1.10174     3 1s    0.38186
                                    3 1s   -1.06381     4 1s   -0.38186     4 1s    1.06381     5 1s    0.38186     5 1s   -1.06381
                                    6 1s   -0.38186     6 1s    1.06381
   22.1     0.00000     1.15859     1 2py   0.92464     1 2py  -2.95631     2 2py  -0.92464     2 2py   2.95631     3 1s    1.50889
                                    4 1s   -1.50889     5 1s   -1.50889     6 1s    1.50889
   23.1     0.00000     1.21644     1 1s    1.03603     1 1s   -1.72704     1 2pz   0.36604     1 2pz  -0.49627     2 1s    1.03603
                                    2 1s   -1.72704     2 2pz  -0.36604     2 2pz   0.49627     3 1s   -0.44030     3 1s    0.86699
                                    4 1s   -0.44030     4 1s    0.86699     5 1s   -0.44030     5 1s    0.86699     6 1s   -0.44030
                                    6 1s    0.86699
   24.1     0.00000     1.22246     1 1s   -0.52439     1 1s    0.48934     1 2pz  -0.62681     1 2pz   1.23629     2 1s    0.52439
                                    2 1s   -0.48934     2 2pz  -0.62681     2 2pz   1.23629     3 1s    0.46968     3 1s   -0.96957
                                    4 1s    0.46968     4 1s   -0.96957     5 1s   -0.46968     5 1s    0.96957     6 1s   -0.46968
                                    6 1s    0.96957
   25.1     0.00000     1.33862     1 1s   -1.59315     1 1s    5.38759     1 2pz   0.26110     1 2pz  -1.91132     2 1s    1.59315
                                    2 1s   -5.38759     2 2pz   0.26110     2 2pz  -1.91132     3 1s   -0.33494     4 1s   -0.33494
                                    5 1s    0.33494     6 1s    0.33494
   26.1     0.00000     1.46498     1 2py   2.45186     2 2py  -2.45186     3 1s   -0.69212     3 1s   -0.62777     4 1s    0.69212
                                    4 1s    0.62777     5 1s    0.69212     5 1s    0.62777     6 1s   -0.69212     6 1s   -0.62777
   27.1     0.00000     1.73955     1 3d1+  0.61884     2 3d1+ -0.61884
   28.1     0.00000     1.83080     1 2py  -0.48973     1 3d2-  0.67733     2 2py   0.48973     2 3d2-  0.67733
   29.1     0.00000     2.12395     1 3d2-  0.72636     2 3d2- -0.72636
   30.1     0.00000     2.20705     1 1s   -0.60965     1 3d2+  0.71303     2 1s   -0.60965     2 3d2+  0.71303     3 1s    0.37415
                                    4 1s    0.37415     5 1s    0.37415     6 1s    0.37415
   31.1     0.00000     2.33750     1 2py   0.27448     1 3d1-  0.68441     2 2py   0.27448     2 3d1- -0.68441     3 1s   -0.51553
                                    4 1s    0.51553     5 1s   -0.51553     6 1s    0.51553
   32.1     0.00000     2.40780     1 1s   -0.50806     1 2pz   0.28204     1 2pz  -0.44707     1 3d0   0.68966     2 1s   -0.50806
                                    2 2pz  -0.28204     2 2pz   0.44707     2 3d0   0.68966
   33.1     0.00000     2.62582     1 1s    0.29129     1 1s   -1.35257     1 2pz   0.27489     1 3d2+  0.79891     2 1s   -0.29129
                                    2 1s    1.35257     2 2pz   0.27489     2 3d2+ -0.79891     3 1s    0.44497     4 1s    0.44497
                                    5 1s   -0.44497     6 1s   -0.44497
   34.1     0.00000     2.70862     1 2px  -0.26376     1 3d1+  0.90234     2 2px   0.26376     2 3d1+  0.90234
   35.1     0.00000     3.06215     1 1s    0.31592     1 1s    2.02286     1 2pz  -0.79646     1 2pz  -1.17791     1 3d0   1.11174
                                    2 1s   -0.31592     2 1s   -2.02286     2 2pz  -0.79646     2 2pz  -1.17791     2 3d0  -1.11174
   36.1     0.00000     3.06301     1 2py   0.56108     1 3d1-  0.97072     2 2py  -0.56108     2 3d1-  0.97072     3 1s   -0.47817
                                    4 1s    0.47817     5 1s    0.47817     6 1s   -0.47817


 HOMO      8.1    -0.369331 =     -10.0500eV
 LUMO      9.1     0.178241 =       4.8502eV
 LUMO-HOMO         0.547572 =      14.9002eV


 **********************************************************************************************************************************
 DATASETS  * FILE   NREC   LENGTH (MB)   RECORD NAMES
              1      19       30.96       500      610      700      900      950      970     1000      129      960     1100   
                                          VAR    BASINP    GEOM    SYMINP    ZMAT    AOBASIS   BASIS     P2S    ABASIS      S 
                                         1400     1410     1200     1210     1080     1600     1650     1300     1700   
                                           T        V       H0       H01     AOSYM     SMH    MOLCAS    ERIS     OPER   

              2       4        2.86       700     1000      520     2100   
                                         GEOM     BASIS   MCVARS     RHF  

 PROGRAMS   *        TOTAL    HF-SCF       INT
 CPU TIMES  *         0.45      0.10      0.25
 REAL TIME  *         0.69 SEC
 DISK USED  *        35.97 MB
 **********************************************************************************************************************************


 PROGRAM * MULTI (Direct Multiconfiguration SCF)       Authors: P.J. Knowles, H.-J. Werner (1984)


 Number of closed-shell orbitals:   7 (   7 )
 Number of active  orbitals:        2 (   2 )
 Number of external orbitals:      27 (  27 )

 State symmetry 1

 Number of electrons:     2    Spin symmetry=Singlet   Space symmetry=1
 Number of states:        3
 Number of CSFs:          3   (4 determinants, 4 intermediate states)

 Molecular orbitals read from record     2100.2  Type=RHF/CANONICAL (state 1.1)

 Wavefunction dump at record             2140.2

 Convergence thresholds  0.10E-01 (gradient)  0.10E-05 (energy)  0.10E-02 (step length)

 Weight factors for state symmetry  1:    0.33333   0.33333   0.33333

 Number of orbital rotations:      257   (    14 Core/Active    189 Core/Virtual   0 Active/Active     54 Active/Virtual)
 Total number of variables:        269

 Micro-Iterations solved by the two-step solver

 ITER. MIC  NCI  NEG     ENERGY(VAR)     ENERGY(PROJ)   ENERGY CHANGE     GRAD(0)  GRAD(ORB)   GRAD(CI)     STEP       TIME

   1    5    4    0     -77.72953896     -77.73581221   -0.00627324    0.13275097 0.00001765 0.00000000  0.64D-01      0.09
   2    4    4    0     -77.73571268     -77.73571654   -0.00000386    0.00306044 0.00000000 0.00000000  0.18D-02      0.15
   3    2    3    0     -77.73571654     -77.73571654   -0.00000000    0.00000225 0.00000000 0.00000000  0.23D-05      0.20

 ** WVFN ****  CONVERGENCE REACHED, FINAL GRADIENT:  0.24D-10



 Results for state 1.1
 =====================

 !MCSCF STATE  1.1 Energy             -78.048254550404
 Nuclear energy                        33.40145975
 Kinetic energy                        78.08924184
 One electron energy                 -170.26850995
 Two electron energy                   58.81879564
 Virial ratio                           1.99947512

 !MCSCF STATE  1.1 Dipole moment       -0.00000000     0.00000000     0.00000000
 Dipole moment /Debye                  -0.00000000     0.00000000     0.00000000

 Results for state 2.1
 =====================

 !MCSCF STATE  2.1 Energy             -77.672467957936
 Nuclear energy                        33.40145975
 Kinetic energy                        78.26924606
 One electron energy                 -169.69476155
 Two electron energy                   58.62083384
 Virial ratio                           1.99237532

 !MCSCF STATE  2.1 Dipole moment        0.00000000     0.00000000     0.00000000
 Dipole moment /Debye                   0.00000000     0.00000000     0.00000000

 Results for state 3.1
 =====================

 !MCSCF STATE  3.1 Energy             -77.486427122201
 Nuclear energy                        33.40145975
 Kinetic energy                        78.44925028
 One electron energy                 -169.12101315
 Two electron energy                   58.23312627
 Virial ratio                           1.98772680

 !MCSCF STATE  3.1 Dipole moment       -0.00000000     0.00000000    -0.00000000
 Dipole moment /Debye                  -0.00000000     0.00000000    -0.00000000

 State-averaged charge density matrix saved on record  2140.2 (density set 1)

 !MCSCF trans         <2.1|DMX|1.1>    -0.052045715123 au =    -0.132278348642 Debye
 !MCSCF trans         <3.1|DMX|2.1>    -0.078368472826 au =    -0.199179743166 Debye

 !MCSCF trans         <2.1|DMZ|1.1>    -1.509775003763 au =    -3.837213954064 Debye
 !MCSCF trans         <3.1|DMZ|2.1>    -2.273362198542 au =    -5.777931896570 Debye


 NATURAL ORBITALS (state averaged)
 =================================

  Orbital  Occupation    Energy     Coefficients
    1.1     2.00000   -11.24096     1 1s    0.70420     2 1s    0.70420
    2.1     2.00000   -11.23964     1 1s    0.70450     2 1s   -0.70450
    3.1     2.00000    -1.04168     1 1s    0.31015     2 1s    0.31015
    4.1     2.00000    -0.79996     1 1s    0.28738     2 1s   -0.28738
    5.1     2.00000    -0.65134     1 2py   0.32741     2 2py   0.32741
    6.1     2.00000    -0.59791     1 2pz   0.40890     2 2pz  -0.40890
    7.1     2.00000    -0.51219     1 2py   0.31189     2 2py  -0.31189
    8.1     1.00000    -0.22550     1 2px   0.35782     1 2px   0.31935     2 2px   0.35782     2 2px   0.31935
    9.1     1.00000     0.03342     1 2px   0.37979     1 2px   0.68584     2 2px  -0.37979     2 2px  -0.68584
   10.1    -0.00000     0.26376     1 1s   -1.49247     1 2pz  -0.65316     2 1s   -1.49247     2 2pz   0.65316     3 1s    1.04122
                                    4 1s    1.04122     5 1s    1.04122     6 1s    1.04122
   11.1    -0.00000     0.28610     1 2py  -0.25048     1 2py  -0.80004     2 2py  -0.25048     2 2py  -0.80004     3 1s    1.09355
                                    4 1s   -1.09355     5 1s    1.09355     6 1s   -1.09355
   12.1    -0.00000     0.30640     1 1s    1.96188     2 1s   -1.96188     3 1s   -1.07121     4 1s   -1.07121     5 1s    1.07121
                                    6 1s    1.07121
   13.1    -0.00000     0.38693     1 2py  -0.25098     1 2py  -1.86352     2 2py   0.25098     2 2py   1.86352     3 1s    1.62384
                                    4 1s   -1.62384     5 1s   -1.62384     6 1s    1.62384
   14.1    -0.00000     0.48789     1 1s   -2.96760     1 2pz   2.93611     2 1s    2.96760     2 2pz   2.93611     3 1s   -0.60001
                                    4 1s   -0.60001     5 1s    0.60001     6 1s    0.60001
   15.1    -0.00000     0.65789     1 1s    0.25592     1 2pz  -0.54805     1 2pz   1.01526     2 1s    0.25592     2 2pz   0.54805
                                    2 2pz  -1.01526
   16.1    -0.00000     0.75195     1 2py  -0.41011     1 2py   0.77917     2 2py  -0.41011     2 2py   0.77917     3 1s   -0.38187
                                    4 1s    0.38187     5 1s   -0.38187     6 1s    0.38187
   17.1    -0.00000     0.77130     1 2px  -0.74710     1 2px   0.63452     2 2px  -0.74710     2 2px   0.63452
   18.1    -0.00000     0.86053     1 1s   -0.88180     1 1s    1.49122     1 2pz   0.38667     2 1s   -0.88180     2 1s    1.49122
                                    2 2pz  -0.38667     3 1s   -0.39727     4 1s   -0.39727     5 1s   -0.39727     6 1s   -0.39727
   19.1    -0.00000     0.87280     1 2px  -0.80286     1 2px   1.10481     2 2px   0.80286     2 2px  -1.10481
   20.1    -0.00000     0.93573     1 1s   -0.70644     1 2pz   0.60774     1 2pz  -0.55424     2 1s    0.70644     2 2pz   0.60774
                                    2 2pz  -0.55424     3 1s    0.38418     4 1s    0.38418     5 1s   -0.38418     6 1s   -0.38418
   21.1    -0.00000     1.10096     1 2py  -0.67817     1 2py   1.10337     2 2py  -0.67817     2 2py   1.10337     3 1s    0.38260
                                    3 1s   -1.07285     4 1s   -0.38260     4 1s    1.07285     5 1s    0.38260     5 1s   -1.07285
                                    6 1s   -0.38260     6 1s    1.07285
   22.1    -0.00000     1.14601     1 2py   0.92171     1 2py  -2.96054     2 2py  -0.92171     2 2py   2.96054     3 1s    1.51672
                                    4 1s   -1.51672     5 1s   -1.51672     6 1s    1.51672
   23.1    -0.00000     1.21315     1 1s    1.03115     1 1s   -1.72317     1 2pz   0.36967     1 2pz  -0.50191     2 1s    1.03115
                                    2 1s   -1.72317     2 2pz  -0.36967     2 2pz   0.50191     3 1s   -0.44084     3 1s    0.86661
                                    4 1s   -0.44084     4 1s    0.86661     5 1s   -0.44084     5 1s    0.86661     6 1s   -0.44084
                                    6 1s    0.86661
   24.1    -0.00000     1.22000     1 1s   -0.45920     1 1s    0.27438     1 2pz  -0.64057     1 2pz   1.31468     2 1s    0.45920
                                    2 1s   -0.27438     2 2pz  -0.64057     2 2pz   1.31468     3 1s    0.47241     3 1s   -0.95519
                                    4 1s    0.47241     4 1s   -0.95519     5 1s   -0.47241     5 1s    0.95519     6 1s   -0.47241
                                    6 1s    0.95519
   25.1    -0.00000     1.31888     1 1s   -1.61526     1 1s    5.41617     1 2pz  -1.85787     2 1s    1.61526     2 1s   -5.41617
                                    2 2pz  -1.85787     3 1s   -0.37632     4 1s   -0.37632     5 1s    0.37632     6 1s    0.37632
   26.1    -0.00000     1.45644     1 2py   2.45602     2 2py  -2.45602     3 1s   -0.69085     3 1s   -0.62935     4 1s    0.69085
                                    4 1s    0.62935     5 1s    0.69085     5 1s    0.62935     6 1s   -0.69085     6 1s   -0.62935
   27.1    -0.00000     1.71383     1 3d1+  0.61856     2 3d1+ -0.61856
   28.1    -0.00000     1.81686     1 2py  -0.49190     1 3d2-  0.67727     2 2py   0.49190     2 3d2-  0.67727
   29.1    -0.00000     2.10100     1 3d2-  0.72697     2 3d2- -0.72697
   30.1    -0.00000     2.19158     1 1s   -0.60552     1 3d2+  0.71254     2 1s   -0.60552     2 3d2+  0.71254     3 1s    0.37604
                                    4 1s    0.37604     5 1s    0.37604     6 1s    0.37604
   31.1    -0.00000     2.32106     1 2py   0.28146     1 3d1-  0.68318     2 2py   0.28146     2 3d1- -0.68318     3 1s   -0.51922
                                    4 1s    0.51922     5 1s   -0.51922     6 1s    0.51922
   32.1    -0.00000     2.38765     1 1s   -0.50611     1 2pz   0.28794     1 2pz  -0.44985     1 3d0   0.68945     2 1s   -0.50611
                                    2 2pz  -0.28794     2 2pz   0.44985     2 3d0   0.68945
   33.1    -0.00000     2.60606     1 1s    0.29214     1 1s   -1.35865     1 2pz   0.27375     1 3d2+  0.79815     2 1s   -0.29214
                                    2 1s    1.35865     2 2pz   0.27375     2 3d2+ -0.79815     3 1s    0.44806     4 1s    0.44806
                                    5 1s   -0.44806     6 1s   -0.44806
   34.1    -0.00000     2.68607     1 2px  -0.26449     1 3d1+  0.90271     2 2px   0.26449     2 3d1+  0.90271
   35.1    -0.00000     3.04409     1 1s    0.30882     1 1s    2.04853     1 2pz  -0.78893     1 2pz  -1.19134     1 3d0   1.11339
                                    2 1s   -0.30882     2 1s   -2.04853     2 2pz  -0.78893     2 2pz  -1.19134     2 3d0  -1.11339
   36.1    -0.00000     3.05018     1 2py   0.56115     1 3d1-  0.97033     2 2py  -0.56115     2 3d1-  0.97033     3 1s   -0.48046
                                    4 1s    0.48046     5 1s    0.48046     6 1s   -0.48046


 Natural orbital dump (state averaged) at molpro section  2140.2    (Orbital set 2)



 **********************************************************************************************************************************
 DATASETS  * FILE   NREC   LENGTH (MB)   RECORD NAMES
              1      20       31.69       500      610      700      900      950      970     1000      129      960     1100   
                                          VAR    BASINP    GEOM    SYMINP    ZMAT    AOBASIS   BASIS     P2S    ABASIS      S 
                                         1400     1410     1200     1210     1080     1600     1650     1300     1700     1380   
                                           T        V       H0       H01     AOSYM     SMH    MOLCAS    ERIS     OPER     JKOP   

              2       5        5.42       700     1000      520     2100     2140   
                                         GEOM     BASIS   MCVARS     RHF     MCSCF   

 PROGRAMS   *        TOTAL     MULTI    HF-SCF       INT
 CPU TIMES  *         0.69      0.24      0.10      0.25
 REAL TIME  *         0.97 SEC
 DISK USED  *        38.87 MB
 **********************************************************************************************************************************
 Molecular orbitals read from record     2140.2  Type=MCSCF/NATURAL (state averaged)
 Occupation numbers read from record     2140.2  Type=MCSCF/NATURAL (state averaged)
 Orbital energies read from record       2140.2  Type=MCSCF/NATURAL (state averaged)
 Redundancy group numbers read from rec  2140.2  Type=MCSCF/NATURAL (state averaged)

 MULTI/6-31G* energy=    -77.486427122201

           MULTI          HF-SCF
    -77.48642712    -78.03057188
 **********************************************************************************************************************************
 Molpro calculation terminated
