
 Primary working directories    : /scratch.local/johan406.molpro_temp/molpro.j0sq38ubxX
 Secondary working directories  : /scratch.local/johan406.molpro_temp/molpro.j0sq38ubxX
 Wavefunction directory         : /home/goodpast/johan406/wfu/
 Main file repository           : /scratch.local/johan406.molpro_temp/molpro.j0sq38ubxX/

 id        : roweumn

 Nodes     nprocs
 cn0117       1

 Using customized tuning parameters: mindgm=1; mindgv=20; mindgc=4; mindgr=1; noblas=0; minvec=7
 default implementation of scratch files=df  


 Variables initialized (934), CPU time= 0.01 sec
                                                                                 !leave this line blank
 
 gprint, orbitals=30
 memory, 125., m
 symmetry, nosym
 nelect=16
 basis=6-31g*
 
 geometry={
 C -0.0 0.0086 0.6691
 C 0.0 0.0086 -0.6691
 H 0.0 0.8631 1.3298
 H 0.0 -0.9667 1.1397
 H 0.0 0.8631 -1.3298
 H 0.0 -0.9667 -1.1397
 }
 
 hf
 {multi,
 closed 7
 occ 9
 wf,spin=0;STATE,3
 }
 
 Commands  initialized (763), CPU time= 0.01 sec, 617 directives.
 Default parameters read. Elapsed time= 0.09 sec

 Checking input...
 Passed
1


                                         ***  PROGRAM SYSTEM MOLPRO  ***
                                       Copyright, TTI GmbH Stuttgart, 2015
                                    Version 2019.2 linked Oct 25 2019 22:50:27


 **********************************************************************************************************************************
 LABEL *                                                                                 
  64 bit serial version                                                                  DATE: 26-Jan-23          TIME: 19:37:10  
 **********************************************************************************************************************************

 SHA1:             8dbd9ae1082e4ce945b0f27595c9eb2d4aa09004
 **********************************************************************************************************************************


 Variable memory set to  125000000 words,  buffer space 

 SETTING NELECT         =        16.00000000                                  
 SETTING BASIS          =    6-31G*
 ZSYMEL=NOSYM


Geometry recognized as XYZ



 Recomputing integrals since basis changed


 Using spherical harmonics

 Library entry C      S 6-31G                selected for orbital group  1
 Library entry C      P 6-31G                selected for orbital group  1
 Library entry C      D 6-31G*               selected for orbital group  1
 Library entry H      S 6-31G                selected for orbital group  2


 PROGRAM * SEWARD (Integral evaluation for generally contracted gaussian basis sets)     Author: Roland Lindh, 1990

 Geometry written to block  1 of record 700


 Point group  C1  



 ATOMIC COORDINATES

 NR  ATOM    CHARGE       X              Y              Z

   1  C       6.00    0.000000000    0.016251645    1.264415750
   2  C       6.00    0.000000000    0.016251645   -1.264415750
   3  H       1.00    0.000000000    1.631022618    2.512957800
   4  H       1.00    0.000000000   -1.826798245    2.153720864
   5  H       1.00    0.000000000    1.631022618   -2.512957800
   6  H       1.00    0.000000000   -1.826798245   -2.153720864

 Bond lengths in Bohr (Angstrom)

 1-2  2.528831500  1-3  2.041162058  1-4  2.046386200  2-5  2.041162058  2-6  2.046386200
     ( 1.338200000)     ( 1.080136445)     ( 1.082900942)     ( 1.080136445)     ( 1.082900942)

 Bond angles

  1-2-5  127.71122072   1-2-6  115.75815505   2-1-3  127.71122072   2-1-4  115.75815505

  3-1-4  116.53062423   5-2-6  116.53062423

 NUCLEAR CHARGE:                   16
 NUMBER OF PRIMITIVE AOS:          72
 NUMBER OF SYMMETRY AOS:           70
 NUMBER OF CONTRACTIONS:           36   (   36A   )
 NUMBER OF CORE ORBITALS:           2   (    2A   )
 NUMBER OF VALENCE ORBITALS:       12   (   12A   )


 NUCLEAR REPULSION ENERGY   33.34080031

 EXTRA SYMMETRY OF AOS IN SYMMETRY 1:   1 1 1 2 1 1 2 1 1 1   2 2 1 1 1 1 1 2 1 1   2 1 1 1 2 2 1 1 1 1   1 1 1 1 1 1

 Eigenvalues of metric

         1 0.750E-02 0.192E-01 0.383E-01 0.463E-01 0.713E-01 0.190E+00 0.216E+00 0.227E+00


 Contracted 2-electron integrals neglected if value below      1.0D-11
 AO integral compression algorithm  1   Integral accuracy      1.0D-11

     0.786 MB (compressed) written to integral file ( 38.1%)


 NUMBER OF SORTED TWO-ELECTRON INTEGRALS:     222111.     BUFFER LENGTH:  32768
 NUMBER OF SEGMENTS:   1  SEGMENT LENGTH:     222111      RECORD LENGTH: 524288

 Memory used in sort:       0.78 MW

 SORT1 READ      284735. AND WROTE       98965. INTEGRALS IN      1 RECORDS. CPU TIME:     0.00 SEC, REAL TIME:     0.00 SEC
 SORT2 READ       98965. AND WROTE      222111. INTEGRALS IN      3 RECORDS. CPU TIME:     0.02 SEC, REAL TIME:     0.02 SEC

 FILE SIZES:   FILE 1:    30.9 MBYTE,  FILE 4:     4.2 MBYTE,   TOTAL:     35.1 MBYTE

 OPERATOR DM      FOR CENTER  0  COORDINATES:    0.000000    0.000000    0.000000


 **********************************************************************************************************************************
 DATASETS  * FILE   NREC   LENGTH (MB)   RECORD NAMES
              1      19       30.64       500      610      700      900      950      970     1000      129      960     1100   
                                          VAR    BASINP    GEOM    SYMINP    ZMAT    AOBASIS   BASIS     P2S    ABASIS      S 
                                         1400     1410     1200     1210     1080     1600     1650     1300     1700   
                                           T        V       H0       H01     AOSYM     SMH    MOLCAS    ERIS     OPER   

 PROGRAMS   *        TOTAL       INT
 CPU TIMES  *         0.35      0.25
 REAL TIME  *         0.57 SEC
 DISK USED  *        35.45 MB
 **********************************************************************************************************************************


 PROGRAM * RHF-SCF (CLOSED SHELL)       Authors: W. Meyer, H.-J. Werner


 NUMBER OF ELECTRONS:       8+    8-    SPACE SYMMETRY=1    SPIN SYMMETRY: Singlet 
 CONVERGENCE THRESHOLDS:    1.00E-05 (Density)    1.00E-07 (Energy)
 MAX. NUMBER OF ITERATIONS:       60
 INTERPOLATION TYPE:            DIIS
 INTERPOLATION STEPS:              2 (START)      1 (STEP)
 LEVEL SHIFTS:                  0.00 (CLOSED)  0.00 (OPEN) 



 Orbital guess generated from atomic densities. Full valence occupancy:    8

 Molecular orbital dump at record        2100.2

 Initial occupancy:   8

 ITERATION    DDIFF          GRAD             ENERGY        2-EL.EN.            DIPOLE MOMENTS         DIIS   ORB.
    1      0.000D+00      0.000D+00       -78.00405705    118.590248    0.00000   -0.05738    0.00000    0    start
    2      0.000D+00      0.855D-02       -78.02577251    116.759733   -0.00000   -0.00673    0.00000    1    diag
    3      0.820D-02      0.291D-02       -78.02788404    117.391676   -0.00000   -0.00981    0.00000    2    diag
    4      0.266D-02      0.711D-03       -78.02809147    117.292123    0.00000   -0.00594   -0.00000    3    diag
    5      0.107D-02      0.681D-04       -78.02809360    117.295129    0.00000   -0.00562    0.00000    4    diag
    6      0.146D-03      0.846D-05       -78.02809364    117.294704    0.00000   -0.00565    0.00000    5    diag
    7      0.163D-04      0.124D-05       -78.02809364    117.294710    0.00000   -0.00565    0.00000    6    diag
    8      0.197D-05      0.168D-06       -78.02809364    117.294704    0.00000   -0.00565    0.00000    0    orth

 Final occupancy:   8

 !RHF STATE  1.1 Energy               -78.028093635940
 Nuclear energy                        33.34080031
 One-electron energy                 -170.01624595
 Two-electron energy                   58.64735200
 Virial quotient                       -1.00049034
 !RHF STATE  1.1 Dipole moment          0.00000000    -0.00565121     0.00000000
 Dipole moment /Debye                   0.00000000    -0.01436301     0.00000000

 ELECTRON ORBITALS
 =================

  Orbital  Occupation    Energy     Coefficients
    1.1     2.00000   -11.22697     1 1s    0.70419     2 1s    0.70419
    2.1     2.00000   -11.22537     1 1s    0.70455     2 1s   -0.70455
    3.1     2.00000    -1.02716     1 1s    0.30176     2 1s    0.30176
    4.1     2.00000    -0.78971     1 1s    0.24220
    5.1     2.00000    -0.63834     1 2py   0.31469     2 2py   0.31469
    6.1     2.00000    -0.58140     1 2pz   0.40028     2 2pz  -0.40028
    7.1     2.00000    -0.50202     1 2py   0.30439     2 2py  -0.30439
    8.1     2.00000    -0.36980     1 2px   0.37350     1 2px   0.30770     2 2px   0.37350     2 2px   0.30770
    9.1     0.00000     0.17850     1 2px   0.34237     1 2px   0.73360     2 2px  -0.34237     2 2px  -0.73360
   10.1     0.00000     0.26273     1 1s   -1.39461     1 2py   0.28628     1 2pz  -0.58217     2 1s   -1.39461     2 2py   0.28628
                                    2 2pz   0.58217     3 1s    0.68756     4 1s    1.26661     5 1s    0.68756     6 1s    1.26661
   11.1     0.00000     0.29391     1 1s   -0.49987     1 2py  -0.74866     1 2pz  -0.28463     2 1s   -0.49987     2 2py  -0.74866
                                    2 2pz   0.28463     3 1s    1.37845     4 1s   -0.72107     5 1s    1.37845     6 1s   -0.72107
   12.1     0.00000     0.30737     1 1s   -1.85301     2 1s    1.85301     3 1s    1.24221     4 1s    0.88951     5 1s   -1.24221
                                    6 1s   -0.88951
   13.1     0.00000     0.39298     1 1s   -0.54988     1 2py   1.84889     1 2pz   0.28190     2 1s    0.54988     2 2py  -1.84889
                                    2 2pz   0.28190     3 1s   -1.47408     4 1s    1.74762     5 1s    1.47408     6 1s   -1.74762
   14.1     0.00000     0.49006     1 1s   -3.03443     1 2pz   2.97852     2 1s    3.03443     2 2pz   2.97852     3 1s   -0.72874
                                    4 1s   -0.44940     5 1s    0.72874     6 1s    0.44940
   15.1     0.00000     0.66896     1 2pz  -0.54167     1 2pz   1.00270     2 2pz   0.54167     2 2pz  -1.00270
   16.1     0.00000     0.76852     1 1s    0.44252     1 2py  -0.37987     1 2py   0.72675     1 2pz   0.39364     2 1s    0.44252
                                    2 2py  -0.37987     2 2py   0.72675     2 2pz  -0.39364     3 1s   -0.47807     4 1s    0.25608
                                    5 1s   -0.47807     6 1s    0.25608
   17.1     0.00000     0.77660     1 2px  -0.74042     1 2px   0.63964     2 2px  -0.74042     2 2px   0.63964
   18.1     0.00000     0.86993     1 1s   -0.87046     1 1s    1.38223     1 2py  -0.27174     1 2pz   0.26189     2 1s   -0.87046
                                    2 1s    1.38223     2 2py  -0.27174     2 2pz  -0.26189     3 1s   -0.28849     4 1s   -0.47686
                                    4 1s   -0.27636     5 1s   -0.28849     6 1s   -0.47686     6 1s   -0.27636
   19.1     0.00000     0.88992     1 2px  -0.81847     1 2px   1.07404     2 2px   0.81847     2 2px  -1.07404
   20.1     0.00000     0.94787     1 1s   -0.81860     1 2pz   0.58484     1 2pz  -0.47472     2 1s    0.81860     2 2pz   0.58484
                                    2 2pz  -0.47472     3 1s    0.44337     4 1s    0.33304     5 1s   -0.44337     6 1s   -0.33304
   21.1     0.00000     1.10833     1 2py  -0.68331     1 2py   1.07985     2 2py  -0.68331     2 2py   1.07985     3 1s    0.33523
                                    3 1s   -0.98800     4 1s   -0.42984     4 1s    1.10070     5 1s    0.33523     5 1s   -0.98800
                                    6 1s   -0.42984     6 1s    1.10070
   22.1     0.00000     1.15638     1 2py   0.91134     1 2py  -2.90166     1 2pz  -0.47261     2 2py  -0.91134     2 2py   2.90166
                                    2 2pz  -0.47261     3 1s    1.60470     4 1s   -1.36710     5 1s   -1.60470     6 1s    1.36710
   23.1     0.00000     1.21189     1 1s    1.02829     1 1s   -1.71481     1 2pz   0.36514     1 2pz  -0.50457     2 1s    1.02829
                                    2 1s   -1.71481     2 2pz  -0.36514     2 2pz   0.50457     3 1s   -0.47920     3 1s    0.98044
                                    4 1s   -0.39537     4 1s    0.74185     5 1s   -0.47920     5 1s    0.98044     6 1s   -0.39537
                                    6 1s    0.74185
   24.1     0.00000     1.21658     1 1s   -0.50102     1 1s    0.41994     1 2pz  -0.63096     1 2pz   1.26536     2 1s    0.50102
                                    2 1s   -0.41994     2 2pz  -0.63096     2 2pz   1.26536     3 1s    0.44948     3 1s   -0.93279
                                    4 1s    0.48628     4 1s   -1.00665     5 1s   -0.44948     5 1s    0.93279     6 1s   -0.48628
                                    6 1s    1.00665
   25.1     0.00000     1.33645     1 1s   -1.56513     1 1s    5.21164     1 2pz   0.27743     1 2pz  -1.83822     2 1s    1.56513
                                    2 1s   -5.21164     2 2pz   0.27743     2 2pz  -1.83822     4 1s   -0.48373     6 1s    0.48373
   26.1     0.00000     1.47658     1 1s    0.30430     1 1s   -1.88454     1 2py   2.49514     1 2pz   1.14427     2 1s   -0.30430
                                    2 1s    1.88454     2 2py  -2.49514     2 2pz   1.14427     3 1s   -0.65897     3 1s   -0.72359
                                    4 1s    0.71478     4 1s    0.61070     5 1s    0.65897     5 1s    0.72359     6 1s   -0.71478
                                    6 1s   -0.61070
   27.1     0.00000     1.73863     1 3d1+  0.61870     2 3d1+ -0.61870
   28.1     0.00000     1.82233     1 3d2-  0.68085     2 3d2-  0.68085
   29.1     0.00000     2.12861     1 3d2-  0.73616     2 3d2- -0.73616
   30.1     0.00000     2.20789     1 1s   -0.59119     1 3d2+  0.71259     2 1s   -0.59119     2 3d2+  0.71259     3 1s    0.40837
                                    4 1s    0.35264     5 1s    0.40837     6 1s    0.35264
   31.1     0.00000     2.29370     1 1s    0.26217     1 3d0  -0.27579     1 3d1-  0.62544     2 1s    0.26217     2 3d0  -0.27579
                                    2 3d1- -0.62544     3 1s   -0.49788     4 1s    0.38996     5 1s   -0.49788     6 1s    0.38996
   32.1     0.00000     2.43505     1 1s   -0.44315     1 2pz   0.26238     1 2pz  -0.37169     1 3d0   0.63899     1 3d1-  0.27474
                                    2 1s   -0.44315     2 2pz  -0.26238     2 2pz   0.37169     2 3d0   0.63899     2 3d1- -0.27474
                                    4 1s    0.38441     6 1s    0.38441
   33.1     0.00000     2.62942     1 1s    0.30176     1 1s   -1.49658     1 2py   0.43185     1 2pz   0.40753     1 3d2+  0.79719
                                    2 1s   -0.30176     2 1s    1.49658     2 2py  -0.43185     2 2pz   0.40753     2 3d2+ -0.79719
                                    3 1s    0.32812     4 1s    0.54713     5 1s   -0.32812     6 1s   -0.54713
   34.1     0.00000     2.70747     1 2px  -0.26458     1 3d1+  0.90267     2 2px   0.26458     2 3d1+  0.90267
   35.1     0.00000     3.01400     1 1s   -1.47353     1 2pz   0.51191     1 2py   0.39625     1 2pz   0.95281     1 3d0  -0.67382
                                    1 3d1-  0.75826     2 1s    1.47353     2 2pz   0.51191     2 2py  -0.39625     2 2pz   0.95281
                                    2 3d0   0.67382     2 3d1-  0.75826     3 1s   -0.37925     4 1s    0.28475     5 1s    0.37925
                                    6 1s   -0.28475
   36.1     0.00000     3.10092     1 1s    0.26502     1 1s    1.40002     1 2pz  -0.60657     1 2py   0.31277     1 2pz  -0.74368
                                    1 3d0   0.88762     1 3d1-  0.60071     2 1s   -0.26502     2 1s   -1.40002     2 2pz  -0.60657
                                    2 2py  -0.31277     2 2pz  -0.74368     2 3d0  -0.88762     2 3d1-  0.60071     3 1s   -0.35286
                                    4 1s    0.29077     5 1s    0.35286     6 1s   -0.29077


 HOMO      8.1    -0.369800 =     -10.0628eV
 LUMO      9.1     0.178505 =       4.8574eV
 LUMO-HOMO         0.548304 =      14.9201eV


 **********************************************************************************************************************************
 DATASETS  * FILE   NREC   LENGTH (MB)   RECORD NAMES
              1      19       30.64       500      610      700      900      950      970     1000      129      960     1100   
                                          VAR    BASINP    GEOM    SYMINP    ZMAT    AOBASIS   BASIS     P2S    ABASIS      S 
                                         1400     1410     1200     1210     1080     1600     1650     1300     1700   
                                           T        V       H0       H01     AOSYM     SMH    MOLCAS    ERIS     OPER   

              2       4        2.86       700     1000      520     2100   
                                         GEOM     BASIS   MCVARS     RHF  

 PROGRAMS   *        TOTAL    HF-SCF       INT
 CPU TIMES  *         0.46      0.11      0.25
 REAL TIME  *         0.69 SEC
 DISK USED  *        35.45 MB
 **********************************************************************************************************************************


 PROGRAM * MULTI (Direct Multiconfiguration SCF)       Authors: P.J. Knowles, H.-J. Werner (1984)


 Number of closed-shell orbitals:   7 (   7 )
 Number of active  orbitals:        2 (   2 )
 Number of external orbitals:      27 (  27 )

 State symmetry 1

 Number of electrons:     2    Spin symmetry=Singlet   Space symmetry=1
 Number of states:        3
 Number of CSFs:          3   (4 determinants, 4 intermediate states)

 Molecular orbitals read from record     2100.2  Type=RHF/CANONICAL (state 1.1)

 EXTRA SYMMETRY OF MOS IN SYMMETRY 1:   1 1 1 1 1 1 1 2 2 1   1 1 1 1 1 1 2 1 2 1   1 1 1 1 1 1 2 2 2 1   1 1 1 2 1 1

 Wavefunction dump at record             2140.2

 Convergence thresholds  0.10E-01 (gradient)  0.10E-05 (energy)  0.10E-02 (step length)

 Weight factors for state symmetry  1:    0.33333   0.33333   0.33333

 Number of orbital rotations:      257   (    14 Core/Active    189 Core/Virtual   0 Active/Active     54 Active/Virtual)
 Total number of variables:        269

 Micro-Iterations solved by the two-step solver

 ITER. MIC  NCI  NEG     ENERGY(VAR)     ENERGY(PROJ)   ENERGY CHANGE     GRAD(0)  GRAD(ORB)   GRAD(CI)     STEP       TIME

   1    3    3    0     -77.72654430     -77.73280023   -0.00625593    0.13263961 0.00000155 0.00000000  0.63D-01      0.06
   2    2    3    0     -77.73270125     -77.73270505   -0.00000380    0.00305498 0.00000188 0.00000000  0.16D-02      0.10
   3    2    3    0     -77.73270505     -77.73270505   -0.00000000    0.00000218 0.00000000 0.00000000  0.13D-05      0.13

 ** WVFN ****  CONVERGENCE REACHED, FINAL GRADIENT:  0.13D-11



 Results for state 1.1
 =====================

 !MCSCF STATE  1.1 Energy             -78.045745426184
 Nuclear energy                        33.34080031
 Kinetic energy                        78.05855940
 One electron energy                 -170.14918642
 Two electron energy                   58.76264068
 Virial ratio                           1.99983584

 !MCSCF STATE  1.1 Dipole moment        0.00000000    -0.00879993     0.00000000
 Dipole moment /Debye                   0.00000000    -0.02236572     0.00000000

 Results for state 2.1
 =====================

 !MCSCF STATE  2.1 Energy             -77.669436183934
 Nuclear energy                        33.34080031
 Kinetic energy                        78.23903329
 One electron energy                 -169.57530195
 Two electron energy                   58.56506545
 Virial ratio                           1.99271978

 !MCSCF STATE  2.1 Dipole moment        0.00000000    -0.00915994     0.00000000
 Dipole moment /Debye                   0.00000000    -0.02328072     0.00000000

 Results for state 3.1
 =====================

 !MCSCF STATE  3.1 Energy             -77.482933542051
 Nuclear energy                        33.34080031
 Kinetic energy                        78.41950719
 One electron energy                 -169.00141748
 Two electron energy                   58.17768363
 Virial ratio                           1.98805688

 !MCSCF STATE  3.1 Dipole moment        0.00000000    -0.00951996     0.00000000
 Dipole moment /Debye                   0.00000000    -0.02419573     0.00000000

 State-averaged charge density matrix saved on record  2140.2 (density set 1)

 !MCSCF expec         <1.1|DMY|1.1>    -0.008799926222 au =    -0.022365716488 Debye
 !MCSCF expec         <2.1|DMY|2.1>    -0.009159940794 au =    -0.023280722323 Debye
 !MCSCF trans         <3.1|DMY|1.1>     0.000151198592 au =     0.000384283316 Debye
 !MCSCF expec         <3.1|DMY|3.1>    -0.009519955366 au =    -0.024195728158 Debye

 !MCSCF trans         <2.1|DMZ|1.1>    -1.510387848870 au =    -3.838771548931 Debye
 !MCSCF trans         <3.1|DMZ|2.1>    -2.272515570613 au =    -5.775780123960 Debye


 NATURAL ORBITALS (state averaged)
 =================================

  Orbital  Occupation    Energy     Coefficients
    1.1     2.00000   -11.24261     1 1s    0.70420     2 1s    0.70420
    2.1     2.00000   -11.24129     1 1s    0.70451     2 1s   -0.70451
    3.1     2.00000    -1.04202     1 1s    0.30972     2 1s    0.30972
    4.1     2.00000    -0.79743     1 1s    0.28802     2 1s   -0.28802
    5.1     2.00000    -0.65083     1 2py   0.32147     2 2py   0.32147
    6.1     2.00000    -0.59671     1 2pz   0.40324     2 2pz  -0.40324
    7.1     2.00000    -0.50870     1 2py   0.31086     2 2py  -0.31086
    8.1     1.00000     0.03362     1 2px   0.38038     1 2px   0.68654     2 2px  -0.38038     2 2px  -0.68654
    9.1     1.00000    -0.22584     1 2px   0.35809     1 2px   0.31914     2 2px   0.35809     2 2px   0.31914
   10.1    -0.00000     0.25868     1 1s   -1.33912     1 2py   0.34954     1 2pz  -0.55958     2 1s   -1.33912     2 2py   0.34954
                                    2 2pz   0.55958     3 1s    0.56146     4 1s    1.32323     5 1s    0.56146     6 1s    1.32323
   11.1    -0.00000     0.28674     1 1s   -0.62536     1 2py  -0.71043     1 2pz  -0.33674     2 1s   -0.62536     2 2py  -0.71043
                                    2 2pz   0.33674     3 1s    1.42827     4 1s   -0.59380     5 1s    1.42827     6 1s   -0.59380
   12.1    -0.00000     0.30436     1 1s   -1.88215     2 1s    1.88215     3 1s    1.22789     4 1s    0.89289     5 1s   -1.22789
                                    6 1s   -0.89289
   13.1    -0.00000     0.38863     1 1s   -0.53993     1 2py   0.25343     1 2py   1.83535     1 2pz   0.27984     2 1s    0.53993
                                    2 2py  -0.25343     2 2py  -1.83535     2 2pz   0.27984     3 1s   -1.47172     4 1s    1.73773
                                    5 1s    1.47172     6 1s   -1.73773
   14.1    -0.00000     0.48712     1 1s   -3.00982     1 2pz   2.95971     2 1s    3.00982     2 2pz   2.95971     3 1s   -0.74133
                                    4 1s   -0.45658     5 1s    0.74133     6 1s    0.45658
   15.1    -0.00000     0.65705     1 1s    0.27182     1 2pz  -0.53159     1 2pz   0.97739     2 1s    0.27182     2 2pz   0.53159
                                    2 2pz  -0.97739
   16.1    -0.00000     0.75954     1 1s    0.39066     1 2py  -0.39242     1 2py   0.74209     1 2pz   0.39975     2 1s    0.39066
                                    2 2py  -0.39242     2 2py   0.74209     2 2pz  -0.39975     3 1s   -0.46212     4 1s    0.26691
                                    5 1s   -0.46212     6 1s    0.26691
   17.1    -0.00000     0.77062     1 2px  -0.74705     1 2px   0.63436     2 2px  -0.74705     2 2px   0.63436
   18.1    -0.00000     0.86604     1 1s   -0.86995     1 1s    1.41959     1 2py  -0.25237     1 2pz   0.31642     2 1s   -0.86995
                                    2 1s    1.41959     2 2py  -0.25237     2 2pz  -0.31642     3 1s   -0.30543     4 1s   -0.46936
                                    4 1s   -0.28651     5 1s   -0.30543     6 1s   -0.46936     6 1s   -0.28651
   19.1    -0.00000     0.87233     1 2px  -0.80286     1 2px   1.10453     2 2px   0.80286     2 2px  -1.10453
   20.1    -0.00000     0.92970     1 1s   -0.66693     1 2pz   0.59065     1 2pz  -0.55682     2 1s    0.66693     2 2pz   0.59065
                                    2 2pz  -0.55682     3 1s    0.43845     4 1s    0.33752     5 1s   -0.43845     6 1s   -0.33752
   21.1    -0.00000     1.09289     1 2py  -0.67164     1 2py   1.08095     2 2py  -0.67164     2 2py   1.08095     3 1s    0.33686
                                    3 1s   -1.00046     4 1s   -0.43041     4 1s    1.10631     5 1s    0.33686     5 1s   -1.00046
                                    6 1s   -0.43041     6 1s    1.10631
   22.1    -0.00000     1.14402     1 2py   0.90966     1 2py  -2.90669     1 2pz  -0.45717     2 2py  -0.90966     2 2py   2.90669
                                    2 2pz  -0.45717     3 1s    1.59552     4 1s   -1.39336     5 1s   -1.59552     6 1s    1.39336
   23.1    -0.00000     1.20868     1 1s    1.02367     1 1s   -1.71149     1 2pz   0.36866     1 2pz  -0.51024     2 1s    1.02367
                                    2 1s   -1.71149     2 2pz  -0.36866     2 2pz   0.51024     3 1s   -0.47854     3 1s    0.97839
                                    4 1s   -0.39730     4 1s    0.74372     5 1s   -0.47854     5 1s    0.97839     6 1s   -0.39730
                                    6 1s    0.74372
   24.1    -0.00000     1.21406     1 1s   -0.44043     1 2pz  -0.64556     1 2pz   1.35174     2 1s    0.44043     2 2pz  -0.64556
                                    2 2pz   1.35174     3 1s    0.45496     3 1s   -0.95523     4 1s    0.48530     4 1s   -0.96049
                                    5 1s   -0.45496     5 1s    0.95523     6 1s   -0.48530     6 1s    0.96049
   25.1    -0.00000     1.31682     1 1s   -1.58862     1 1s    5.25473     1 2pz  -1.79462     2 1s    1.58862     2 1s   -5.25473
                                    2 2pz  -1.79462     4 1s   -0.52788     6 1s    0.52788
   26.1    -0.00000     1.46753     1 1s    0.29204     1 1s   -1.83171     1 2py   2.49852     1 2pz   1.12334     2 1s   -0.29204
                                    2 1s    1.83171     2 2py  -2.49852     2 2pz   1.12334     3 1s   -0.66450     3 1s   -0.72290
                                    4 1s    0.70893     4 1s    0.61161     5 1s    0.66450     5 1s    0.72290     6 1s   -0.70893
                                    6 1s   -0.61161
   27.1    -0.00000     1.71296     1 3d1+  0.61850     2 3d1+ -0.61850
   28.1    -0.00000     1.80852     1 3d2-  0.68093     2 3d2-  0.68093
   29.1    -0.00000     2.10556     1 3d2-  0.73616     2 3d2- -0.73616
   30.1    -0.00000     2.19248     1 1s   -0.58704     1 3d2+  0.71225     2 1s   -0.58704     2 3d2+  0.71225     3 1s    0.41126
                                    4 1s    0.35380     5 1s    0.41126     6 1s    0.35380
   31.1    -0.00000     2.27651     1 1s    0.26629     1 2pz   0.25397     1 3d0  -0.28348     1 3d1-  0.62051     2 1s    0.26629
                                    2 2pz  -0.25397     2 3d0  -0.28348     2 3d1- -0.62051     3 1s   -0.49894     4 1s    0.38874
                                    5 1s   -0.49894     6 1s    0.38874
   32.1    -0.00000     2.41597     1 1s   -0.43840     1 2pz   0.26632     1 2pz  -0.37119     1 3d0   0.63552     1 3d1-  0.28144
                                    2 1s   -0.43840     2 2pz  -0.26632     2 2pz   0.37119     2 3d0   0.63552     2 3d1- -0.28144
                                    4 1s    0.38996     6 1s    0.38996
   33.1    -0.00000     2.60987     1 1s    0.30275     1 1s   -1.50369     1 2py   0.43420     1 2pz   0.40715     1 3d2+  0.79642
                                    2 1s   -0.30275     2 1s    1.50369     2 2py  -0.43420     2 2pz   0.40715     2 3d2+ -0.79642
                                    3 1s    0.33125     4 1s    0.55014     5 1s   -0.33125     6 1s   -0.55014
   34.1    -0.00000     2.68498     1 2px  -0.26535     1 3d1+  0.90305     2 2px   0.26535     2 3d1+  0.90305
   35.1    -0.00000     2.99872     1 1s   -1.53489     1 2pz   0.52448     1 2py   0.38846     1 2pz   0.98514     1 3d0  -0.70065
                                    1 3d1-  0.74013     2 1s    1.53489     2 2pz   0.52448     2 2py  -0.38846     2 2pz   0.98514
                                    2 3d0   0.70065     2 3d1-  0.74013     3 1s   -0.36920     4 1s    0.27947     5 1s    0.36920
                                    6 1s   -0.27947
   36.1    -0.00000     3.08536     1 1s    0.25499     1 1s    1.37221     1 2pz  -0.58570     1 2py   0.32373     1 2pz  -0.72413
                                    1 3d0   0.86870     1 3d1-  0.62230     2 1s   -0.25499     2 1s   -1.37221     2 2pz  -0.58570
                                    2 2py  -0.32373     2 2pz  -0.72413     2 3d0  -0.86870     2 3d1-  0.62230     3 1s   -0.36615
                                    4 1s    0.29982     5 1s    0.36615     6 1s   -0.29982


 Natural orbital dump (state averaged) at molpro section  2140.2    (Orbital set 2)



 **********************************************************************************************************************************
 DATASETS  * FILE   NREC   LENGTH (MB)   RECORD NAMES
              1      20       31.36       500      610      700      900      950      970     1000      129      960     1100   
                                          VAR    BASINP    GEOM    SYMINP    ZMAT    AOBASIS   BASIS     P2S    ABASIS      S 
                                         1400     1410     1200     1210     1080     1600     1650     1300     1700     1380   
                                           T        V       H0       H01     AOSYM     SMH    MOLCAS    ERIS     OPER     JKOP   

              2       5        5.42       700     1000      520     2100     2140   
                                         GEOM     BASIS   MCVARS     RHF     MCSCF   

 PROGRAMS   *        TOTAL     MULTI    HF-SCF       INT
 CPU TIMES  *         0.63      0.17      0.11      0.25
 REAL TIME  *         0.89 SEC
 DISK USED  *        38.55 MB
 **********************************************************************************************************************************
 Molecular orbitals read from record     2140.2  Type=MCSCF/NATURAL (state averaged)
 Occupation numbers read from record     2140.2  Type=MCSCF/NATURAL (state averaged)
 Orbital energies read from record       2140.2  Type=MCSCF/NATURAL (state averaged)
 Redundancy group numbers read from rec  2140.2  Type=MCSCF/NATURAL (state averaged)

 MULTI/6-31G* energy=    -77.482933542051

           MULTI          HF-SCF
    -77.48293354    -78.02809364
 **********************************************************************************************************************************
 Molpro calculation terminated
