
 Primary working directories    : /scratch.local/johan406.molpro_temp/molpro.qwwtKBEcwi
 Secondary working directories  : /scratch.local/johan406.molpro_temp/molpro.qwwtKBEcwi
 Wavefunction directory         : /home/goodpast/johan406/wfu/
 Main file repository           : /scratch.local/johan406.molpro_temp/molpro.qwwtKBEcwi/

 id        : roweumn

 Nodes     nprocs
 cn0117       1

 Using customized tuning parameters: mindgm=1; mindgv=20; mindgc=4; mindgr=1; noblas=0; minvec=7
 default implementation of scratch files=df  


 Variables initialized (934), CPU time= 0.01 sec
                                                                                 !leave this line blank
 
 gprint, orbitals=30
 memory, 125., m
 symmetry, nosym
 nelect=16
 basis=6-31g*
 
 geometry={
 C -0.0 0.009 0.6691
 C 0.0 0.009 -0.6691
 H 0.0 0.8611 1.3333
 H 0.0 -0.9687 1.1362
 H 0.0 0.8611 -1.3333
 H 0.0 -0.9687 -1.1362
 }
 
 hf
 {multi,
 closed 7
 occ 9
 wf,spin=0;STATE,3
 }
 
 Commands  initialized (763), CPU time= 0.01 sec, 617 directives.
 Default parameters read. Elapsed time= 0.08 sec

 Checking input...
 Passed
1


                                         ***  PROGRAM SYSTEM MOLPRO  ***
                                       Copyright, TTI GmbH Stuttgart, 2015
                                    Version 2019.2 linked Oct 25 2019 22:50:27


 **********************************************************************************************************************************
 LABEL *                                                                                 
  64 bit serial version                                                                  DATE: 26-Jan-23          TIME: 19:37:21  
 **********************************************************************************************************************************

 SHA1:             8dbd9ae1082e4ce945b0f27595c9eb2d4aa09004
 **********************************************************************************************************************************


 Variable memory set to  125000000 words,  buffer space 

 SETTING NELECT         =        16.00000000                                  
 SETTING BASIS          =    6-31G*
 ZSYMEL=NOSYM


Geometry recognized as XYZ



 Recomputing integrals since basis changed


 Using spherical harmonics

 Library entry C      S 6-31G                selected for orbital group  1
 Library entry C      P 6-31G                selected for orbital group  1
 Library entry C      D 6-31G*               selected for orbital group  1
 Library entry H      S 6-31G                selected for orbital group  2


 PROGRAM * SEWARD (Integral evaluation for generally contracted gaussian basis sets)     Author: Roland Lindh, 1990

 Geometry written to block  1 of record 700


 Point group  C1  



 ATOMIC COORDINATES

 NR  ATOM    CHARGE       X              Y              Z

   1  C       6.00    0.000000000    0.017007535    1.264415750
   2  C       6.00    0.000000000    0.017007535   -1.264415750
   3  H       1.00    0.000000000    1.627243166    2.519571842
   4  H       1.00    0.000000000   -1.830577697    2.147106823
   5  H       1.00    0.000000000    1.627243166   -2.519571842
   6  H       1.00    0.000000000   -1.830577697   -2.147106823

 Bond lengths in Bohr (Angstrom)

 1-2  2.528831500  1-3  2.041635521  1-4  2.047611955  2-5  2.041635521  2-6  2.047611955
     ( 1.338200000)     ( 1.080386991)     ( 1.083549584)     ( 1.080386991)     ( 1.083549584)

 Bond angles

  1-2-5  127.93591531   1-2-6  115.53632111   2-1-3  127.93591531   2-1-4  115.53632111

  3-1-4  116.52776358   5-2-6  116.52776358

 NUCLEAR CHARGE:                   16
 NUMBER OF PRIMITIVE AOS:          72
 NUMBER OF SYMMETRY AOS:           70
 NUMBER OF CONTRACTIONS:           36   (   36A   )
 NUMBER OF CORE ORBITALS:           2   (    2A   )
 NUMBER OF VALENCE ORBITALS:       12   (   12A   )


 NUCLEAR REPULSION ENERGY   33.33574886

 EXTRA SYMMETRY OF AOS IN SYMMETRY 1:   1 1 1 2 1 1 2 1 1 1   2 2 1 1 1 1 1 2 1 1   2 1 1 1 2 2 1 1 1 1   1 1 1 1 1 1

 Eigenvalues of metric

         1 0.745E-02 0.194E-01 0.384E-01 0.464E-01 0.714E-01 0.190E+00 0.216E+00 0.227E+00


 Contracted 2-electron integrals neglected if value below      1.0D-11
 AO integral compression algorithm  1   Integral accuracy      1.0D-11

     0.786 MB (compressed) written to integral file ( 38.1%)


 NUMBER OF SORTED TWO-ELECTRON INTEGRALS:     222111.     BUFFER LENGTH:  32768
 NUMBER OF SEGMENTS:   1  SEGMENT LENGTH:     222111      RECORD LENGTH: 524288

 Memory used in sort:       0.78 MW

 SORT1 READ      284735. AND WROTE       98967. INTEGRALS IN      1 RECORDS. CPU TIME:     0.01 SEC, REAL TIME:     0.01 SEC
 SORT2 READ       98967. AND WROTE      222111. INTEGRALS IN      3 RECORDS. CPU TIME:     0.02 SEC, REAL TIME:     0.02 SEC

 FILE SIZES:   FILE 1:    30.9 MBYTE,  FILE 4:     4.2 MBYTE,   TOTAL:     35.1 MBYTE

 OPERATOR DM      FOR CENTER  0  COORDINATES:    0.000000    0.000000    0.000000


 **********************************************************************************************************************************
 DATASETS  * FILE   NREC   LENGTH (MB)   RECORD NAMES
              1      19       30.63       500      610      700      900      950      970     1000      129      960     1100   
                                          VAR    BASINP    GEOM    SYMINP    ZMAT    AOBASIS   BASIS     P2S    ABASIS      S 
                                         1400     1410     1200     1210     1080     1600     1650     1300     1700   
                                           T        V       H0       H01     AOSYM     SMH    MOLCAS    ERIS     OPER   

 PROGRAMS   *        TOTAL       INT
 CPU TIMES  *         0.34      0.24
 REAL TIME  *         0.56 SEC
 DISK USED  *        35.45 MB
 **********************************************************************************************************************************


 PROGRAM * RHF-SCF (CLOSED SHELL)       Authors: W. Meyer, H.-J. Werner


 NUMBER OF ELECTRONS:       8+    8-    SPACE SYMMETRY=1    SPIN SYMMETRY: Singlet 
 CONVERGENCE THRESHOLDS:    1.00E-05 (Density)    1.00E-07 (Energy)
 MAX. NUMBER OF ITERATIONS:       60
 INTERPOLATION TYPE:            DIIS
 INTERPOLATION STEPS:              2 (START)      1 (STEP)
 LEVEL SHIFTS:                  0.00 (CLOSED)  0.00 (OPEN) 



 Orbital guess generated from atomic densities. Full valence occupancy:    8

 Molecular orbital dump at record        2100.2

 Initial occupancy:   8

 ITERATION    DDIFF          GRAD             ENERGY        2-EL.EN.            DIPOLE MOMENTS         DIIS   ORB.
    1      0.000D+00      0.000D+00       -78.00385968    118.579980    0.00000   -0.05972   -0.00000    0    start
    2      0.000D+00      0.854D-02       -78.02555682    116.750159   -0.00000   -0.00687   -0.00000    1    diag
    3      0.820D-02      0.291D-02       -78.02766723    117.382199   -0.00000   -0.01008   -0.00000    2    diag
    4      0.266D-02      0.710D-03       -78.02787453    117.282581   -0.00000   -0.00603   -0.00000    3    diag
    5      0.107D-02      0.681D-04       -78.02787666    117.285595   -0.00000   -0.00570    0.00000    4    diag
    6      0.146D-03      0.849D-05       -78.02787669    117.285171    0.00000   -0.00573    0.00000    5    diag
    7      0.164D-04      0.125D-05       -78.02787670    117.285176    0.00000   -0.00573    0.00000    6    diag
    8      0.198D-05      0.171D-06       -78.02787670    117.285171   -0.00000   -0.00573   -0.00000    0    orth

 Final occupancy:   8

 !RHF STATE  1.1 Energy               -78.027876695198
 Nuclear energy                        33.33574886
 One-electron energy                 -170.00621094
 Two-electron energy                   58.64258538
 Virial quotient                       -1.00051953
 !RHF STATE  1.1 Dipole moment         -0.00000000    -0.00572842    -0.00000000
 Dipole moment /Debye                  -0.00000000    -0.01455923    -0.00000000

 ELECTRON ORBITALS
 =================

  Orbital  Occupation    Energy     Coefficients
    1.1     2.00000   -11.22711     1 1s    0.70419     2 1s    0.70419
    2.1     2.00000   -11.22552     1 1s    0.70455     2 1s   -0.70455
    3.1     2.00000    -1.02717     1 1s    0.30174     2 1s    0.30174
    4.1     2.00000    -0.78953     2 1s   -0.24224
    5.1     2.00000    -0.63832     1 2py   0.31413     2 2py   0.31413
    6.1     2.00000    -0.58129     1 2pz   0.39972     2 2pz  -0.39972
    7.1     2.00000    -0.50173     1 2py   0.30431     2 2py  -0.30431
    8.1     2.00000    -0.36984     1 2px   0.37352     1 2px   0.30769     2 2px   0.37352     2 2px   0.30769
    9.1     0.00000     0.17850     1 2px   0.34240     1 2px   0.73357     2 2px  -0.34240     2 2px  -0.73357
   10.1     0.00000     0.26243     1 1s   -1.38699     1 2py   0.29581     1 2pz  -0.57742     2 1s   -1.38699     2 2py   0.29581
                                    2 2pz   0.57742     3 1s    0.67317     4 1s    1.27144     5 1s    0.67317     6 1s    1.27144
   11.1     0.00000     0.29386     1 1s   -0.51726     1 2py  -0.74419     1 2pz  -0.29432     2 1s   -0.51726     2 2py  -0.74419
                                    2 2pz   0.29432     3 1s    1.38611     4 1s   -0.70585     5 1s    1.38611     6 1s   -0.70585
   12.1     0.00000     0.30720     1 1s   -1.84690     2 1s    1.84690     3 1s    1.24730     4 1s    0.88291     5 1s   -1.24730
                                    6 1s   -0.88291
   13.1     0.00000     0.39309     1 1s   -0.56666     1 2py   1.84650     1 2pz   0.29080     2 1s    0.56666     2 2py  -1.84650
                                    2 2pz   0.29080     3 1s   -1.46787     4 1s    1.75034     5 1s    1.46787     6 1s   -1.75034
   14.1     0.00000     0.49002     1 1s   -3.03807     1 2pz   2.98042     2 1s    3.03807     2 2pz   2.98042     3 1s   -0.73470
                                    4 1s   -0.44294     5 1s    0.73470     6 1s    0.44294
   15.1     0.00000     0.66896     1 2pz  -0.54071     1 2pz   1.00029     2 2pz   0.54071     2 2pz  -1.00029
   16.1     0.00000     0.76894     1 1s    0.45882     1 2py  -0.37848     1 2py   0.72332     1 2pz   0.40691     2 1s    0.45882
                                    2 2py  -0.37848     2 2py   0.72332     2 2pz  -0.40691     3 1s   -0.48069     4 1s    0.25058
                                    5 1s   -0.48069     6 1s    0.25058
   17.1     0.00000     0.77655     1 2px  -0.74040     1 2px   0.63965     2 2px  -0.74040     2 2px   0.63965
   18.1     0.00000     0.87052     1 1s   -0.86903     1 1s    1.37578     1 2py  -0.28171     1 2pz   0.25611     2 1s   -0.86903
                                    2 1s    1.37578     2 2py  -0.28171     2 2pz  -0.25611     3 1s   -0.28397     4 1s   -0.47941
                                    4 1s   -0.27696     5 1s   -0.28397     6 1s   -0.47941     6 1s   -0.27696
   19.1     0.00000     0.88988     1 2px  -0.81846     1 2px   1.07406     2 2px   0.81846     2 2px  -1.07406
   20.1     0.00000     0.94739     1 1s   -0.81474     1 2pz   0.58360     1 2pz  -0.47552     2 1s    0.81474     2 2pz   0.58360
                                    2 2pz  -0.47552     3 1s    0.44548     4 1s    0.33150     5 1s   -0.44548     6 1s   -0.33150
   21.1     0.00000     1.10767     1 2py  -0.68276     1 2py   1.07809     2 2py  -0.68276     2 2py   1.07809     3 1s    0.33324
                                    3 1s   -0.98392     4 1s   -0.43191     4 1s    1.10164     5 1s    0.33324     5 1s   -0.98392
                                    6 1s   -0.43191     6 1s    1.10164
   22.1     0.00000     1.15602     1 2py   0.91044     1 2py  -2.89836     1 2pz  -0.48754     2 2py  -0.91044     2 2py   2.89836
                                    2 2pz  -0.48754     3 1s    1.60535     4 1s   -1.36271     5 1s   -1.60535     6 1s    1.36271
   23.1     0.00000     1.21155     1 1s    1.02765     1 1s   -1.71384     1 2pz   0.36507     1 2pz  -0.50524     2 1s    1.02765
                                    2 1s   -1.71384     2 2pz  -0.36507     2 2pz   0.50524     3 1s   -0.48076     3 1s    0.98500
                                    4 1s   -0.39330     4 1s    0.73636     5 1s   -0.48076     5 1s    0.98500     6 1s   -0.39330
                                    6 1s    0.73636
   24.1     0.00000     1.21610     1 1s   -0.50010     1 1s    0.41598     1 2pz  -0.63129     1 2pz   1.26833     2 1s    0.50010
                                    2 1s   -0.41598     2 2pz  -0.63129     2 2pz   1.26833     3 1s    0.44854     3 1s   -0.93545
                                    4 1s    0.48681     4 1s   -1.00485     5 1s   -0.44854     5 1s    0.93545     6 1s   -0.48681
                                    6 1s    1.00485
   25.1     0.00000     1.33629     1 1s   -1.56276     1 1s    5.19820     1 2pz   0.27885     1 2pz  -1.83316     2 1s    1.56276
                                    2 1s   -5.19820     2 2pz   0.27885     2 2pz  -1.83316     4 1s   -0.48882     6 1s    0.48882
   26.1     0.00000     1.47675     1 1s    0.31588     1 1s   -1.95301     1 2py   2.49184     1 2pz   1.18580     2 1s   -0.31588
                                    2 1s    1.95301     2 2py  -2.49184     2 2pz   1.18580     3 1s   -0.65748     3 1s   -0.72534
                                    4 1s    0.71467     4 1s    0.60858     5 1s    0.65748     5 1s    0.72534     6 1s   -0.71467
                                    6 1s   -0.60858
   27.1     0.00000     1.73858     1 3d1+  0.61867     2 3d1+ -0.61867
   28.1     0.00000     1.82238     1 3d2-  0.68082     2 3d2-  0.68082
   29.1     0.00000     2.12867     1 3d2-  0.73616     2 3d2- -0.73616
   30.1     0.00000     2.20781     1 1s   -0.58970     1 3d2+  0.71234     2 1s   -0.58970     2 3d2+  0.71234     3 1s    0.41052
                                    4 1s    0.35134     5 1s    0.41052     6 1s    0.35134
   31.1     0.00000     2.29142     1 1s    0.26655     1 2pz   0.25289     1 3d0  -0.27861     1 3d1-  0.62346     2 1s    0.26655
                                    2 2pz  -0.25289     2 3d0  -0.27861     2 3d1- -0.62346     3 1s   -0.49441     4 1s    0.38828
                                    5 1s   -0.49441     6 1s    0.38828
   32.1     0.00000     2.43639     1 1s   -0.44122     1 2pz   0.26229     1 2pz  -0.36902     1 3d0   0.63829     1 3d1-  0.27715
                                    2 1s   -0.44122     2 2pz  -0.26229     2 2pz   0.36902     2 3d0   0.63829     2 3d1- -0.27715
                                    4 1s    0.38613     6 1s    0.38613
   33.1     0.00000     2.62942     1 1s    0.30260     1 1s   -1.50731     1 2py   0.44671     1 2pz   0.41750     1 3d2+  0.79700
                                    2 1s   -0.30260     2 1s    1.50731     2 2py  -0.44671     2 2pz   0.41750     2 3d2+ -0.79700
                                    3 1s    0.32334     4 1s    0.55054     5 1s   -0.32334     6 1s   -0.55054
   34.1     0.00000     2.70742     1 2px  -0.26459     1 3d1+  0.90267     2 2px   0.26459     2 3d1+  0.90267
   35.1     0.00000     3.01201     1 1s   -1.47221     1 2pz   0.50954     1 2py   0.39387     1 2pz   0.95608     1 3d0  -0.66899
                                    1 3d1-  0.76098     2 1s    1.47221     2 2pz   0.50954     2 2py  -0.39387     2 2pz   0.95608
                                    2 3d0   0.66899     2 3d1-  0.76098     3 1s   -0.38068     4 1s    0.28200     5 1s    0.38068
                                    6 1s   -0.28200
   36.1     0.00000     3.10210     1 1s    0.26638     1 1s    1.40189     1 2pz  -0.60826     1 2py   0.30758     1 2pz  -0.74261
                                    1 3d0   0.89149     1 3d1-  0.59685     2 1s   -0.26638     2 1s   -1.40189     2 2pz  -0.60826
                                    2 2py  -0.30758     2 2pz  -0.74261     2 3d0  -0.89149     2 3d1-  0.59685     3 1s   -0.35311
                                    4 1s    0.28802     5 1s    0.35311     6 1s   -0.28802


 HOMO      8.1    -0.369843 =     -10.0639eV
 LUMO      9.1     0.178495 =       4.8571eV
 LUMO-HOMO         0.548338 =      14.9210eV


 **********************************************************************************************************************************
 DATASETS  * FILE   NREC   LENGTH (MB)   RECORD NAMES
              1      19       30.63       500      610      700      900      950      970     1000      129      960     1100   
                                          VAR    BASINP    GEOM    SYMINP    ZMAT    AOBASIS   BASIS     P2S    ABASIS      S 
                                         1400     1410     1200     1210     1080     1600     1650     1300     1700   
                                           T        V       H0       H01     AOSYM     SMH    MOLCAS    ERIS     OPER   

              2       4        2.86       700     1000      520     2100   
                                         GEOM     BASIS   MCVARS     RHF  

 PROGRAMS   *        TOTAL    HF-SCF       INT
 CPU TIMES  *         0.44      0.10      0.24
 REAL TIME  *         0.69 SEC
 DISK USED  *        35.45 MB
 **********************************************************************************************************************************


 PROGRAM * MULTI (Direct Multiconfiguration SCF)       Authors: P.J. Knowles, H.-J. Werner (1984)


 Number of closed-shell orbitals:   7 (   7 )
 Number of active  orbitals:        2 (   2 )
 Number of external orbitals:      27 (  27 )

 State symmetry 1

 Number of electrons:     2    Spin symmetry=Singlet   Space symmetry=1
 Number of states:        3
 Number of CSFs:          3   (4 determinants, 4 intermediate states)

 Molecular orbitals read from record     2100.2  Type=RHF/CANONICAL (state 1.1)

 EXTRA SYMMETRY OF MOS IN SYMMETRY 1:   1 1 1 1 1 1 1 2 2 1   1 1 1 1 1 1 2 1 2 1   1 1 1 1 1 1 2 2 2 1   1 1 1 2 1 1

 Wavefunction dump at record             2140.2

 Convergence thresholds  0.10E-01 (gradient)  0.10E-05 (energy)  0.10E-02 (step length)

 Weight factors for state symmetry  1:    0.33333   0.33333   0.33333

 Number of orbital rotations:      257   (    14 Core/Active    189 Core/Virtual   0 Active/Active     54 Active/Virtual)
 Total number of variables:        269

 Micro-Iterations solved by the two-step solver

 ITER. MIC  NCI  NEG     ENERGY(VAR)     ENERGY(PROJ)   ENERGY CHANGE     GRAD(0)  GRAD(ORB)   GRAD(CI)     STEP       TIME

   1    3    3    0     -77.72629963     -77.73255626   -0.00625663    0.13263913 0.00000156 0.00000000  0.63D-01      0.07
   2    2    3    0     -77.73245724     -77.73246105   -0.00000380    0.00305574 0.00000188 0.00000000  0.16D-02      0.10
   3    2    3    0     -77.73246105     -77.73246105   -0.00000000    0.00000218 0.00000000 0.00000000  0.13D-05      0.13

 ** WVFN ****  CONVERGENCE REACHED, FINAL GRADIENT:  0.13D-11



 Results for state 1.1
 =====================

 !MCSCF STATE  1.1 Energy             -78.045527190992
 Nuclear energy                        33.33574886
 Kinetic energy                        78.05609403
 One electron energy                 -170.13920746
 Two electron energy                   58.75793141
 Virial ratio                           1.99986462

 !MCSCF STATE  1.1 Dipole moment        0.00000000    -0.00902598    -0.00000000
 Dipole moment /Debye                   0.00000000    -0.02294025    -0.00000000

 Results for state 2.1
 =====================

 !MCSCF STATE  2.1 Energy             -77.669190675455
 Nuclear energy                        33.33574886
 Kinetic energy                        78.23659111
 One electron energy                 -169.56530510
 Two electron energy                   58.56036556
 Virial ratio                           1.99274763

 !MCSCF STATE  2.1 Dipole moment        0.00000000    -0.00940047    -0.00000000
 Dipole moment /Debye                   0.00000000    -0.02389206    -0.00000000

 Results for state 3.1
 =====================

 !MCSCF STATE  3.1 Energy             -77.482665274978
 Nuclear energy                        33.33574886
 Kinetic energy                        78.41708819
 One electron energy                 -168.99140273
 Two electron energy                   58.17298860
 Virial ratio                           1.98808394

 !MCSCF STATE  3.1 Dipole moment        0.00000000    -0.00977497    -0.00000000
 Dipole moment /Debye                   0.00000000    -0.02484386    -0.00000000

 State-averaged charge density matrix saved on record  2140.2 (density set 1)

 !MCSCF expec         <1.1|DMY|1.1>    -0.009025979451 au =    -0.022940248854 Debye
 !MCSCF expec         <2.1|DMY|2.1>    -0.009400473472 au =    -0.023892055366 Debye
 !MCSCF trans         <3.1|DMY|1.1>     0.000157267883 au =     0.000399708907 Debye
 !MCSCF expec         <3.1|DMY|3.1>    -0.009774967492 au =    -0.024843861878 Debye

 !MCSCF trans         <2.1|DMZ|1.1>    -1.510382171618 au =    -3.838757119742 Debye
 !MCSCF trans         <3.1|DMZ|2.1>    -2.272441156416 au =    -5.775590994325 Debye


 NATURAL ORBITALS (state averaged)
 =================================

  Orbital  Occupation    Energy     Coefficients
    1.1     2.00000   -11.24275     1 1s    0.70420     2 1s    0.70420
    2.1     2.00000   -11.24143     1 1s    0.70451     2 1s   -0.70451
    3.1     2.00000    -1.04204     1 1s    0.30969     2 1s    0.30969
    4.1     2.00000    -0.79724     1 1s    0.28809     2 1s   -0.28809
    5.1     2.00000    -0.65078     1 2py   0.32099     2 2py   0.32099
    6.1     2.00000    -0.59661     1 2pz   0.40278     2 2pz  -0.40278
    7.1     2.00000    -0.50841     1 2py   0.31078     2 2py  -0.31078
    8.1     1.00000     0.03361     1 2px   0.38041     1 2px   0.68651     2 2px  -0.38041     2 2px  -0.68651
    9.1     1.00000    -0.22587     1 2px   0.35811     1 2px   0.31912     2 2px   0.35811     2 2px   0.31912
   10.1    -0.00000     0.25829     1 1s   -1.32912     1 2py   0.35942     1 2pz  -0.55352     2 1s   -1.32912     2 2py   0.35942
                                    2 2pz   0.55352     3 1s    0.54466     4 1s    1.32730     5 1s    0.54466     6 1s    1.32730
   11.1    -0.00000     0.28678     1 1s   -0.64372     1 2py  -0.70469     1 2pz  -0.34665     2 1s   -0.64372     2 2py  -0.70469
                                    2 2pz   0.34665     3 1s    1.43534     4 1s   -0.57651     5 1s    1.43534     6 1s   -0.57651
   12.1    -0.00000     0.30419     1 1s   -1.87641     2 1s    1.87641     3 1s    1.23268     4 1s    0.88660     5 1s   -1.23268
                                    6 1s   -0.88660
   13.1    -0.00000     0.38873     1 1s   -0.55647     1 2py   0.25362     1 2py   1.83302     1 2pz   0.28874     2 1s    0.55647
                                    2 2py  -0.25362     2 2py  -1.83302     2 2pz   0.28874     3 1s   -1.46568     4 1s    1.74037
                                    5 1s    1.46568     6 1s   -1.74037
   14.1    -0.00000     0.48706     1 1s   -3.01328     1 2pz   2.96156     2 1s    3.01328     2 2pz   2.96156     3 1s   -0.74740
                                    4 1s   -0.45011     5 1s    0.74740     6 1s    0.45011
   15.1    -0.00000     0.65701     1 1s    0.27303     1 2pz  -0.53050     1 2pz   0.97492     2 1s    0.27303     2 2pz   0.53050
                                    2 2pz  -0.97492
   16.1    -0.00000     0.76007     1 1s    0.40562     1 2py  -0.39114     1 2py   0.73922     1 2pz   0.41330     2 1s    0.40562
                                    2 2py  -0.39114     2 2py   0.73922     2 2pz  -0.41330     3 1s   -0.46451     4 1s    0.26194
                                    5 1s   -0.46451     6 1s    0.26194
   17.1    -0.00000     0.77057     1 2px  -0.74704     1 2px   0.63437     2 2px  -0.74704     2 2px   0.63437
   18.1    -0.00000     0.86655     1 1s   -0.86897     1 1s    1.41402     1 2py  -0.26191     1 2pz   0.31109     2 1s   -0.86897
                                    2 1s    1.41402     2 2py  -0.26191     2 2pz  -0.31109     3 1s   -0.30146     4 1s   -0.47176
                                    4 1s   -0.28721     5 1s   -0.30146     6 1s   -0.47176     6 1s   -0.28721
   19.1    -0.00000     0.87229     1 2px  -0.80285     1 2px   1.10455     2 2px   0.80285     2 2px  -1.10455
   20.1    -0.00000     0.92929     1 1s   -0.66353     1 2pz   0.58947     1 2pz  -0.55742     2 1s    0.66353     2 2pz   0.58947
                                    2 2pz  -0.55742     3 1s    0.44038     4 1s    0.33611     5 1s   -0.44038     6 1s   -0.33611
   21.1    -0.00000     1.09224     1 2py  -0.67109     1 2py   1.07915     2 2py  -0.67109     2 2py   1.07915     3 1s    0.33493
                                    3 1s   -0.99657     4 1s   -0.43248     4 1s    1.10709     5 1s    0.33493     5 1s   -0.99657
                                    6 1s   -0.43248     6 1s    1.10709
   22.1    -0.00000     1.14367     1 2py   0.90880     1 2py  -2.90325     1 2pz  -0.47169     2 2py  -0.90880     2 2py   2.90325
                                    2 2pz  -0.47169     3 1s    1.59579     4 1s   -1.38930     5 1s   -1.59579     6 1s    1.38930
   23.1    -0.00000     1.20834     1 1s    1.02306     1 1s   -1.71057     1 2pz   0.36859     1 2pz  -0.51092     2 1s    1.02306
                                    2 1s   -1.71057     2 2pz  -0.36859     2 2pz   0.51092     3 1s   -0.48004     3 1s    0.98286
                                    4 1s   -0.39531     4 1s    0.73838     5 1s   -0.48004     5 1s    0.98286     6 1s   -0.39531
                                    6 1s    0.73838
   24.1    -0.00000     1.21357     1 1s   -0.43991     1 2pz  -0.64590     1 2pz   1.35503     2 1s    0.43991     2 2pz  -0.64590
                                    2 2pz   1.35503     3 1s    0.45403     3 1s   -0.95883     4 1s    0.48572     4 1s   -0.95809
                                    5 1s   -0.45403     5 1s    0.95883     6 1s   -0.48572     6 1s    0.95809
   25.1    -0.00000     1.31666     1 1s   -1.58633     1 1s    5.24229     1 2pz   0.25115     1 2pz  -1.79031     2 1s    1.58633
                                    2 1s   -5.24229     2 2pz   0.25115     2 2pz  -1.79031     4 1s   -0.53287     6 1s    0.53287
   26.1    -0.00000     1.46768     1 1s    0.30326     1 1s   -1.89866     1 2py   2.49517     1 2pz   1.16424     2 1s   -0.30326
                                    2 1s    1.89866     2 2py  -2.49517     2 2pz   1.16424     3 1s   -0.66326     3 1s   -0.72451
                                    4 1s    0.70870     4 1s    0.60944     5 1s    0.66326     5 1s    0.72451     6 1s   -0.70870
                                    6 1s   -0.60944
   27.1    -0.00000     1.71292     1 3d1+  0.61848     2 3d1+ -0.61848
   28.1    -0.00000     1.80857     1 3d2-  0.68090     2 3d2-  0.68090
   29.1    -0.00000     2.10563     1 3d2-  0.73616     2 3d2- -0.73616
   30.1    -0.00000     2.19239     1 1s   -0.58554     1 3d2+  0.71200     2 1s   -0.58554     2 3d2+  0.71200     3 1s    0.41350
                                    4 1s    0.35242     5 1s    0.41350     6 1s    0.35242
   31.1    -0.00000     2.27421     1 1s    0.27055     1 2pz   0.25753     1 3d0  -0.28617     1 3d1-  0.61855     2 1s    0.27055
                                    2 2pz  -0.25753     2 3d0  -0.28617     2 3d1- -0.61855     3 1s   -0.49536     4 1s    0.38716
                                    5 1s   -0.49536     6 1s    0.38716
   32.1    -0.00000     2.41735     1 1s   -0.43649     1 2pz   0.26624     1 2pz  -0.36851     1 3d0   0.63485     1 3d1-  0.28369
                                    2 1s   -0.43649     2 2pz  -0.26624     2 2pz   0.36851     2 3d0   0.63485     2 3d1- -0.28369
                                    4 1s    0.39157     6 1s    0.39157
   33.1    -0.00000     2.60989     1 1s    0.30360     1 1s   -1.51451     1 2py   0.44914     1 2pz   0.41718     1 3d2+  0.79623
                                    2 1s   -0.30360     2 1s    1.51451     2 2py  -0.44914     2 2pz   0.41718     2 3d2+ -0.79623
                                    3 1s    0.32647     4 1s    0.55354     5 1s   -0.32647     6 1s   -0.55354
   34.1    -0.00000     2.68493     1 2px  -0.26536     1 3d1+  0.90305     2 2px   0.26536     2 3d1+  0.90305
   35.1    -0.00000     2.99674     1 1s   -1.53220     1 2pz   0.52153     1 2py   0.38665     1 2pz   0.98764     1 3d0  -0.69497
                                    1 3d1-  0.74365     2 1s    1.53220     2 2pz   0.52153     2 2py  -0.38665     2 2pz   0.98764
                                    2 3d0   0.69497     2 3d1-  0.74365     3 1s   -0.37103     4 1s    0.27716     5 1s    0.37103
                                    6 1s   -0.27716
   36.1    -0.00000     3.08652     1 1s    0.25660     1 1s    1.37577     1 2pz  -0.58801     1 2py   0.31804     1 2pz  -0.72404
                                    1 3d0   0.87349     1 3d1-  0.61770     2 1s   -0.25660     2 1s   -1.37577     2 2pz  -0.58801
                                    2 2py  -0.31804     2 2pz  -0.72404     2 3d0  -0.87349     2 3d1-  0.61770     3 1s   -0.36602
                                    4 1s    0.29670     5 1s    0.36602     6 1s   -0.29670


 Natural orbital dump (state averaged) at molpro section  2140.2    (Orbital set 2)



 **********************************************************************************************************************************
 DATASETS  * FILE   NREC   LENGTH (MB)   RECORD NAMES
              1      20       31.36       500      610      700      900      950      970     1000      129      960     1100   
                                          VAR    BASINP    GEOM    SYMINP    ZMAT    AOBASIS   BASIS     P2S    ABASIS      S 
                                         1400     1410     1200     1210     1080     1600     1650     1300     1700     1380   
                                           T        V       H0       H01     AOSYM     SMH    MOLCAS    ERIS     OPER     JKOP   

              2       5        5.42       700     1000      520     2100     2140   
                                         GEOM     BASIS   MCVARS     RHF     MCSCF   

 PROGRAMS   *        TOTAL     MULTI    HF-SCF       INT
 CPU TIMES  *         0.61      0.17      0.10      0.24
 REAL TIME  *         0.88 SEC
 DISK USED  *        38.55 MB
 **********************************************************************************************************************************
 Molecular orbitals read from record     2140.2  Type=MCSCF/NATURAL (state averaged)
 Occupation numbers read from record     2140.2  Type=MCSCF/NATURAL (state averaged)
 Orbital energies read from record       2140.2  Type=MCSCF/NATURAL (state averaged)
 Redundancy group numbers read from rec  2140.2  Type=MCSCF/NATURAL (state averaged)

 MULTI/6-31G* energy=    -77.482665274978

           MULTI          HF-SCF
    -77.48266527    -78.02787670
 **********************************************************************************************************************************
 Molpro calculation terminated
