
 Primary working directories    : /scratch.local/johan406.molpro_temp/molpro.sjaK1mGPzQ
 Secondary working directories  : /scratch.local/johan406.molpro_temp/molpro.sjaK1mGPzQ
 Wavefunction directory         : /home/goodpast/johan406/wfu/
 Main file repository           : /scratch.local/johan406.molpro_temp/molpro.sjaK1mGPzQ/

 id        : roweumn

 Nodes     nprocs
 cn0117       1

 Using customized tuning parameters: mindgm=1; mindgv=20; mindgc=4; mindgr=1; noblas=0; minvec=7
 default implementation of scratch files=df  


 Variables initialized (934), CPU time= 0.01 sec
                                                                                 !leave this line blank
 
 gprint, orbitals=30
 memory, 125., m
 symmetry, nosym
 nelect=16
 basis=6-31g*
 
 geometry={
 C -0.0115 0.0 0.6691
 C -0.0115 0.0 -0.6691
 H 0.072 0.9149 1.2348
 H 0.072 -0.9149 1.2348
 H 0.072 0.9149 -1.2348
 H 0.072 -0.9149 -1.2348
 }
 
 hf
 {multi,
 closed 7
 occ 9
 wf,spin=0;STATE,3
 }
 
 Commands  initialized (763), CPU time= 0.01 sec, 617 directives.
 Default parameters read. Elapsed time= 0.08 sec

 Checking input...
 Passed
1


                                         ***  PROGRAM SYSTEM MOLPRO  ***
                                       Copyright, TTI GmbH Stuttgart, 2015
                                    Version 2019.2 linked Oct 25 2019 22:50:27


 **********************************************************************************************************************************
 LABEL *                                                                                 
  64 bit serial version                                                                  DATE: 26-Jan-23          TIME: 19:45:07  
 **********************************************************************************************************************************

 SHA1:             8dbd9ae1082e4ce945b0f27595c9eb2d4aa09004
 **********************************************************************************************************************************


 Variable memory set to  125000000 words,  buffer space 

 SETTING NELECT         =        16.00000000                                  
 SETTING BASIS          =    6-31G*
 ZSYMEL=NOSYM


Geometry recognized as XYZ



 Recomputing integrals since basis changed


 Using spherical harmonics

 Library entry C      S 6-31G                selected for orbital group  1
 Library entry C      P 6-31G                selected for orbital group  1
 Library entry C      D 6-31G*               selected for orbital group  1
 Library entry H      S 6-31G                selected for orbital group  2


 PROGRAM * SEWARD (Integral evaluation for generally contracted gaussian basis sets)     Author: Roland Lindh, 1990

 Geometry written to block  1 of record 700


 Point group  C1  



 ATOMIC COORDINATES

 NR  ATOM    CHARGE       X              Y              Z

   1  C       6.00   -0.021731850    0.000000000    1.264415750
   2  C       6.00   -0.021731850    0.000000000   -1.264415750
   3  H       1.00    0.136060281    1.728910431    2.333433819
   4  H       1.00    0.136060281   -1.728910431    2.333433819
   5  H       1.00    0.136060281    1.728910431   -2.333433819
   6  H       1.00    0.136060281   -1.728910431   -2.333433819

 Bond lengths in Bohr (Angstrom)

 1-2  2.528831500  1-3  2.038830368  1-4  2.038830368  2-5  2.038830368  2-6  2.038830368
     ( 1.338200000)     ( 1.078902567)     ( 1.078902567)     ( 1.078902567)     ( 1.078902567)

 Bond angles

  1-2-5  121.62308881   1-2-6  121.62308881   2-1-3  121.62308881   2-1-4  121.62308881

  3-1-4  115.98772112   5-2-6  115.98772112

 NUCLEAR CHARGE:                   16
 NUMBER OF PRIMITIVE AOS:          72
 NUMBER OF SYMMETRY AOS:           70
 NUMBER OF CONTRACTIONS:           36   (   36A   )
 NUMBER OF CORE ORBITALS:           2   (    2A   )
 NUMBER OF VALENCE ORBITALS:       12   (   12A   )


 NUCLEAR REPULSION ENERGY   33.36635340


 Eigenvalues of metric

         1 0.830E-02 0.180E-01 0.378E-01 0.459E-01 0.721E-01 0.192E+00 0.211E+00 0.225E+00


 Contracted 2-electron integrals neglected if value below      1.0D-11
 AO integral compression algorithm  1   Integral accuracy      1.0D-11

     1.049 MB (compressed) written to integral file ( 50.7%)


 NUMBER OF SORTED TWO-ELECTRON INTEGRALS:     222111.     BUFFER LENGTH:  32768
 NUMBER OF SEGMENTS:   1  SEGMENT LENGTH:     222111      RECORD LENGTH: 524288

 Memory used in sort:       0.78 MW

 SORT1 READ      284735. AND WROTE      157563. INTEGRALS IN      1 RECORDS. CPU TIME:     0.01 SEC, REAL TIME:     0.00 SEC
 SORT2 READ      157563. AND WROTE      222111. INTEGRALS IN      4 RECORDS. CPU TIME:     0.02 SEC, REAL TIME:     0.03 SEC

 FILE SIZES:   FILE 1:    31.1 MBYTE,  FILE 4:     4.2 MBYTE,   TOTAL:     35.4 MBYTE

 OPERATOR DM      FOR CENTER  0  COORDINATES:    0.000000    0.000000    0.000000


 **********************************************************************************************************************************
 DATASETS  * FILE   NREC   LENGTH (MB)   RECORD NAMES
              1      19       30.88       500      610      700      900      950      970     1000      129      960     1100   
                                          VAR    BASINP    GEOM    SYMINP    ZMAT    AOBASIS   BASIS     P2S    ABASIS      S 
                                         1400     1410     1200     1210     1080     1600     1650     1300     1700   
                                           T        V       H0       H01     AOSYM     SMH    MOLCAS    ERIS     OPER   

 PROGRAMS   *        TOTAL       INT
 CPU TIMES  *         0.36      0.26
 REAL TIME  *         0.57 SEC
 DISK USED  *        35.71 MB
 **********************************************************************************************************************************


 PROGRAM * RHF-SCF (CLOSED SHELL)       Authors: W. Meyer, H.-J. Werner


 NUMBER OF ELECTRONS:       8+    8-    SPACE SYMMETRY=1    SPIN SYMMETRY: Singlet 
 CONVERGENCE THRESHOLDS:    1.00E-05 (Density)    1.00E-07 (Energy)
 MAX. NUMBER OF ITERATIONS:       60
 INTERPOLATION TYPE:            DIIS
 INTERPOLATION STEPS:              2 (START)      1 (STEP)
 LEVEL SHIFTS:                  0.00 (CLOSED)  0.00 (OPEN) 



 Orbital guess generated from atomic densities. Full valence occupancy:    8

 Molecular orbital dump at record        2100.2

 Initial occupancy:   8

 ITERATION    DDIFF          GRAD             ENERGY        2-EL.EN.            DIPOLE MOMENTS         DIIS   ORB.
    1      0.000D+00      0.000D+00       -78.00464587    118.647030    0.10427   -0.00000    0.00000    0    start
    2      0.000D+00      0.857D-02       -78.02651007    116.807744    0.08629   -0.00000   -0.00000    1    diag
    3      0.818D-02      0.292D-02       -78.02864091    117.439855    0.09493   -0.00000   -0.00000    2    diag
    4      0.263D-02      0.713D-03       -78.02885146    117.340578    0.09404   -0.00000   -0.00000    3    diag
    5      0.107D-02      0.686D-04       -78.02885363    117.343525    0.09424    0.00000    0.00000    4    diag
    6      0.147D-03      0.842D-05       -78.02885367    117.343083    0.09421   -0.00000   -0.00000    5    diag
    7      0.161D-04      0.126D-05       -78.02885367    117.343091    0.09421    0.00000    0.00000    6    diag
    8      0.216D-05      0.176D-06       -78.02885367    117.343085    0.09421   -0.00000   -0.00000    0    orth

 Final occupancy:   8

 !RHF STATE  1.1 Energy               -78.028853666102
 Nuclear energy                        33.36635340
 One-electron energy                 -170.06674953
 Two-electron energy                   58.67154247
 Virial quotient                       -1.00031760
 !RHF STATE  1.1 Dipole moment          0.09421081    -0.00000000    -0.00000000
 Dipole moment /Debye                   0.23944431    -0.00000000    -0.00000000

 ELECTRON ORBITALS
 =================

  Orbital  Occupation    Energy     Coefficients
    1.1     2.00000   -11.22609     1 1s    0.70419     2 1s    0.70419
    2.1     2.00000   -11.22449     1 1s    0.70455     2 1s   -0.70455
    3.1     2.00000    -1.02688     1 1s    0.30201     2 1s    0.30201
    4.1     2.00000    -0.79116     1 1s    0.24326
    5.1     2.00000    -0.63698     1 2py   0.32142     2 2py   0.32142
    6.1     2.00000    -0.58300     1 2pz   0.40583     2 2pz  -0.40583
    7.1     2.00000    -0.50374     1 2py   0.30484     2 2py  -0.30484
    8.1     2.00000    -0.36950     1 2px   0.37199     1 2px   0.30723     2 2px   0.37199     2 2px   0.30723
    9.1     0.00000     0.17607     1 2px   0.33999     1 2px   0.72192     2 2px  -0.33999     2 2px  -0.72192
   10.1     0.00000     0.26592     1 1s   -1.48895     1 2pz  -0.64378     2 1s   -1.48895     2 2pz   0.64378     3 1s    1.03832
                                    4 1s    1.03832     5 1s    1.03832     6 1s    1.03832
   11.1     0.00000     0.29280     1 2py  -0.25178     1 2py  -0.80393     2 2py  -0.25178     2 2py  -0.80393     3 1s    1.09327
                                    4 1s   -1.09327     5 1s    1.09327     6 1s   -1.09327
   12.1     0.00000     0.30937     1 1s    1.94093     2 1s   -1.94093     3 1s   -1.07295     4 1s   -1.07295     5 1s    1.07295
                                    6 1s    1.07295
   13.1     0.00000     0.39209     1 2py  -1.85598     2 2py   1.85598     3 1s    1.61469     4 1s   -1.61469     5 1s   -1.61469
                                    6 1s    1.61469
   14.1     0.00000     0.49136     1 1s   -2.99332     1 2pz   2.95302     2 1s    2.99332     2 2pz   2.95302     3 1s   -0.59208
                                    4 1s   -0.59208     5 1s    0.59208     6 1s    0.59208
   15.1     0.00000     0.66930     1 2pz  -0.55648     1 2pz   1.03669     2 2pz   0.55648     2 2pz  -1.03669
   16.1     0.00000     0.76210     1 2py  -0.40172     1 2py   0.76539     2 2py  -0.40172     2 2py   0.76539     3 1s   -0.38589
                                    4 1s    0.38589     5 1s   -0.38589     6 1s    0.38589
   17.1     0.00000     0.77702     1 2px  -0.73930     1 2px   0.63938     2 2px  -0.73930     2 2px   0.63938
   18.1     0.00000     0.86588     1 1s   -0.88398     1 1s    1.46233     1 2pz   0.34289     2 1s   -0.88398     2 1s    1.46233
                                    2 2pz  -0.34289     3 1s   -0.39827     4 1s   -0.39827     5 1s   -0.39827     6 1s   -0.39827
   19.1     0.00000     0.89004     1 2px  -0.81628     1 2px   1.07985     2 2px   0.81628     2 2px  -1.07985
   20.1     0.00000     0.95864     1 1s   -0.82695     1 2pz   0.60870     1 2pz  -0.49656     2 1s    0.82695     2 2pz   0.60870
                                    2 2pz  -0.49656     3 1s    0.38245     4 1s    0.38245     5 1s   -0.38245     6 1s   -0.38245
   21.1     0.00000     1.11245     1 2py  -0.68686     1 2py   1.09159     2 2py  -0.68686     2 2py   1.09159     3 1s    0.38299
                                    3 1s   -1.05597     4 1s   -0.38299     4 1s    1.05597     5 1s    0.38299     5 1s   -1.05597
                                    6 1s   -0.38299     6 1s    1.05597
   22.1     0.00000     1.15384     1 2py   0.92149     1 2py  -2.96278     2 2py  -0.92149     2 2py   2.96278     3 1s    1.49713
                                    4 1s   -1.49713     5 1s   -1.49713     6 1s    1.49713
   23.1     0.00000     1.21355     1 1s    1.03718     1 1s   -1.72831     1 2pz   0.36428     1 2pz  -0.49574     2 1s    1.03718
                                    2 1s   -1.72831     2 2pz  -0.36428     2 2pz   0.49574     3 1s   -0.43847     3 1s    0.86694
                                    4 1s   -0.43847     4 1s    0.86694     5 1s   -0.43847     5 1s    0.86694     6 1s   -0.43847
                                    6 1s    0.86694
   24.1     0.00000     1.22075     1 1s   -0.53804     1 1s    0.53909     1 2pz  -0.62027     1 2pz   1.21028     2 1s    0.53804
                                    2 1s   -0.53909     2 2pz  -0.62027     2 2pz   1.21028     3 1s    0.46970     3 1s   -0.97030
                                    4 1s    0.46970     4 1s   -0.97030     5 1s   -0.46970     5 1s    0.97030     6 1s   -0.46970
                                    6 1s    0.97030
   25.1     0.00000     1.34015     1 1s   -1.59003     1 1s    5.39088     1 2pz   0.26296     1 2pz  -1.91834     2 1s    1.59003
                                    2 1s   -5.39088     2 2pz   0.26296     2 2pz  -1.91834     3 1s   -0.32775     4 1s   -0.32775
                                    5 1s    0.32775     6 1s    0.32775
   26.1     0.00000     1.43936     1 2py   2.30686     2 2py  -2.30686     3 1s   -0.68832     3 1s   -0.55061     4 1s    0.68832
                                    4 1s    0.55061     5 1s    0.68832     5 1s    0.55061     6 1s   -0.68832     6 1s   -0.55061
   27.1     0.00000     1.73941     1 3d1+  0.61560     2 3d1+ -0.61560
   28.1     0.00000     1.82062     1 3d2-  0.67305     2 3d2-  0.67305
   29.1     0.00000     2.15605     1 2py   0.58963     1 3d2-  0.72884     2 2py  -0.58963     2 3d2- -0.72884
   30.1     0.00000     2.20167     1 1s   -0.60883     1 3d2+  0.70885     2 1s   -0.60883     2 3d2+  0.70885     3 1s    0.37185
                                    4 1s    0.37185     5 1s    0.37185     6 1s    0.37185
   31.1     0.00000     2.33256     1 2py   0.27195     1 3d1-  0.68367     2 2py   0.27195     2 3d1- -0.68367     3 1s   -0.51606
                                    4 1s    0.51606     5 1s   -0.51606     6 1s    0.51606
   32.1     0.00000     2.40825     1 1s   -0.50755     1 2pz   0.28290     1 2pz  -0.44628     1 3d0   0.68996     2 1s   -0.50755
                                    2 2pz  -0.28290     2 2pz   0.44628     2 3d0   0.68996
   33.1     0.00000     2.60515     1 1s    0.28291     1 1s   -1.29287     1 2pz   0.25093     1 3d1+  0.26034     1 3d2+  0.75974
                                    2 1s   -0.28291     2 1s    1.29287     2 2pz   0.25093     2 3d1+  0.26034     2 3d2+ -0.75974
                                    3 1s    0.41240     4 1s    0.41240     5 1s   -0.41240     6 1s   -0.41240
   34.1     0.00000     2.71996     1 1s    0.44994     1 3d1+  0.86495     2 1s   -0.44994     2 3d1+  0.86495
   35.1     0.00000     3.05833     1 2py   0.53561     1 3d1-  0.96414     2 2py  -0.53561     2 3d1-  0.96414     3 1s   -0.47434
                                    4 1s    0.47434     5 1s    0.47434     6 1s   -0.47434
   36.1     0.00000     3.06228     1 1s    0.31724     1 1s    2.01750     1 2pz  -0.79682     1 2pz  -1.17636     1 3d0   1.11198
                                    2 1s   -0.31724     2 1s   -2.01750     2 2pz  -0.79682     2 2pz  -1.17636     2 3d0  -1.11198


 HOMO      8.1    -0.369496 =     -10.0545eV
 LUMO      9.1     0.176066 =       4.7910eV
 LUMO-HOMO         0.545562 =      14.8455eV


 **********************************************************************************************************************************
 DATASETS  * FILE   NREC   LENGTH (MB)   RECORD NAMES
              1      19       30.88       500      610      700      900      950      970     1000      129      960     1100   
                                          VAR    BASINP    GEOM    SYMINP    ZMAT    AOBASIS   BASIS     P2S    ABASIS      S 
                                         1400     1410     1200     1210     1080     1600     1650     1300     1700   
                                           T        V       H0       H01     AOSYM     SMH    MOLCAS    ERIS     OPER   

              2       4        2.86       700     1000      520     2100   
                                         GEOM     BASIS   MCVARS     RHF  

 PROGRAMS   *        TOTAL    HF-SCF       INT
 CPU TIMES  *         0.46      0.10      0.26
 REAL TIME  *         0.69 SEC
 DISK USED  *        35.71 MB
 **********************************************************************************************************************************


 PROGRAM * MULTI (Direct Multiconfiguration SCF)       Authors: P.J. Knowles, H.-J. Werner (1984)


 Number of closed-shell orbitals:   7 (   7 )
 Number of active  orbitals:        2 (   2 )
 Number of external orbitals:      27 (  27 )

 State symmetry 1

 Number of electrons:     2    Spin symmetry=Singlet   Space symmetry=1
 Number of states:        3
 Number of CSFs:          3   (4 determinants, 4 intermediate states)

 Molecular orbitals read from record     2100.2  Type=RHF/CANONICAL (state 1.1)

 Wavefunction dump at record             2140.2

 Convergence thresholds  0.10E-01 (gradient)  0.10E-05 (energy)  0.10E-02 (step length)

 Weight factors for state symmetry  1:    0.33333   0.33333   0.33333

 Number of orbital rotations:      257   (    14 Core/Active    189 Core/Virtual   0 Active/Active     54 Active/Virtual)
 Total number of variables:        269

 Micro-Iterations solved by the two-step solver

 ITER. MIC  NCI  NEG     ENERGY(VAR)     ENERGY(PROJ)   ENERGY CHANGE     GRAD(0)  GRAD(ORB)   GRAD(CI)     STEP       TIME

   1    6    5    0     -77.72932447     -77.73604922   -0.00672475    0.13423573 0.00065323 0.00000000  0.86D-01      0.10
   2    5    5    0     -77.73584522     -77.73586205   -0.00001682    0.00641508 0.00000528 0.00000000  0.41D-02      0.17
   3    3    4    0     -77.73586207     -77.73586207   -0.00000000    0.00001034 0.00000000 0.00000000  0.13D-04      0.22

 ** WVFN ****  CONVERGENCE REACHED, FINAL GRADIENT:  0.14D-09



 Results for state 1.1
 =====================

 !MCSCF STATE  1.1 Energy             -78.046330291772
 Nuclear energy                        33.36635340
 Kinetic energy                        78.07585690
 One electron energy                 -170.20078000
 Two electron energy                   58.78809631
 Virial ratio                           1.99962182

 !MCSCF STATE  1.1 Dipole moment        0.09417120    -0.00000000     0.00000000
 Dipole moment /Debye                   0.23934364    -0.00000000     0.00000000

 Results for state 2.1
 =====================

 !MCSCF STATE  2.1 Energy             -77.673196151895
 Nuclear energy                        33.36635340
 Kinetic energy                        78.25631989
 One electron energy                 -169.62526115
 Two electron energy                   58.58571159
 Virial ratio                           1.99254854

 !MCSCF STATE  2.1 Dipole moment        0.13890072    -0.00000000     0.00000000
 Dipole moment /Debye                   0.35302730    -0.00000000     0.00000000

 Results for state 3.1
 =====================

 !MCSCF STATE  3.1 Energy             -77.488059751693
 Nuclear energy                        33.36635340
 Kinetic energy                        78.43678288
 One electron energy                 -169.04974229
 Two electron energy                   58.19532914
 Virial ratio                           1.98790461

 !MCSCF STATE  3.1 Dipole moment        0.18363025    -0.00000000     0.00000000
 Dipole moment /Debye                   0.46671097    -0.00000000     0.00000000

 State-averaged charge density matrix saved on record  2140.2 (density set 1)

 !MCSCF expec         <1.1|DMX|1.1>     0.094171199207 au =     0.239343636482 Debye
 !MCSCF expec         <2.1|DMX|2.1>     0.138900723673 au =     0.353027301272 Debye
 !MCSCF trans         <3.1|DMX|1.1>    -0.018853181731 au =    -0.047916869624 Debye
 !MCSCF expec         <3.1|DMX|3.1>     0.183630248138 au =     0.466710966062 Debye

 !MCSCF trans         <2.1|DMZ|1.1>    -1.500934903242 au =    -3.814746131383 Debye
 !MCSCF trans         <3.1|DMZ|2.1>    -2.261446264087 au =    -5.747646595879 Debye


 NATURAL ORBITALS (state averaged)
 =================================

  Orbital  Occupation    Energy     Coefficients
    1.1     2.00000   -11.24195     1 1s    0.70420     2 1s    0.70420
    2.1     2.00000   -11.24062     1 1s    0.70451     2 1s   -0.70451
    3.1     2.00000    -1.04184     1 1s    0.31007     2 1s    0.31007
    4.1     2.00000    -0.79914     1 1s    0.28930     2 1s   -0.28930
    5.1     2.00000    -0.64998     1 2py   0.32716     2 2py   0.32716
    6.1     2.00000    -0.59807     1 2pz   0.40621     2 2pz  -0.40621
    7.1     2.00000    -0.51056     1 2py   0.31141     2 2py  -0.31141
    8.1     1.00000     0.03159     1 2px   0.37882     1 2px   0.67947     2 2px  -0.37882     2 2px  -0.67947
    9.1     1.00000    -0.22563     1 2px   0.35565     1 2px   0.31853     2 2px   0.35565     2 2px   0.31853
   10.1    -0.00000     0.26292     1 1s   -1.48496     1 2pz  -0.64942     2 1s   -1.48496     2 2pz   0.64942     3 1s    1.03759
                                    4 1s    1.03759     5 1s    1.03759     6 1s    1.03759
   11.1    -0.00000     0.28428     1 2py  -0.25047     1 2py  -0.79392     2 2py  -0.25047     2 2py  -0.79392     3 1s    1.08471
                                    4 1s   -1.08471     5 1s    1.08471     6 1s   -1.08471
   12.1    -0.00000     0.30590     1 1s    1.96304     2 1s   -1.96304     3 1s   -1.06869     4 1s   -1.06869     5 1s    1.06869
                                    6 1s    1.06869
   13.1    -0.00000     0.38764     1 2py  -0.25368     1 2py  -1.84137     2 2py   0.25368     2 2py   1.84137     3 1s    1.60775
                                    4 1s   -1.60775     5 1s   -1.60775     6 1s    1.60775
   14.1    -0.00000     0.48827     1 1s   -2.96974     1 2pz   2.93512     2 1s    2.96974     2 2pz   2.93512     3 1s   -0.60116
                                    4 1s   -0.60116     5 1s    0.60116     6 1s    0.60116
   15.1    -0.00000     0.65802     1 1s    0.25880     1 2pz  -0.54828     1 2pz   1.01379     2 1s    0.25880     2 2pz   0.54828
                                    2 2pz  -1.01379
   16.1    -0.00000     0.75174     1 2py  -0.41251     1 2py   0.77281     2 2py  -0.41251     2 2py   0.77281     3 1s   -0.38130
                                    4 1s    0.38130     5 1s   -0.38130     6 1s    0.38130
   17.1    -0.00000     0.77121     1 2px  -0.74657     1 2px   0.63648     2 2px  -0.74657     2 2px   0.63648
   18.1    -0.00000     0.86256     1 1s   -0.87918     1 1s    1.48628     1 2pz   0.38824     2 1s   -0.87918     2 1s    1.48628
                                    2 2pz  -0.38824     3 1s   -0.39964     4 1s   -0.39964     5 1s   -0.39964     6 1s   -0.39964
   19.1    -0.00000     0.87257     1 2px  -0.80063     1 2px   1.11255     2 2px   0.80063     2 2px  -1.11255
   20.1    -0.00000     0.93973     1 1s   -0.66801     1 2pz   0.61315     1 2pz  -0.57836     2 1s    0.66801     2 2pz   0.61315
                                    2 2pz  -0.57836     3 1s    0.38229     4 1s    0.38229     5 1s   -0.38229     6 1s   -0.38229
   21.1    -0.00000     1.09703     1 2py  -0.67533     1 2py   1.09338     2 2py  -0.67533     2 2py   1.09338     3 1s    0.38372
                                    3 1s   -1.06499     4 1s   -0.38372     4 1s    1.06499     5 1s    0.38372     5 1s   -1.06499
                                    6 1s   -0.38372     6 1s    1.06499
   22.1    -0.00000     1.14141     1 2py   0.91855     1 2py  -2.96504     2 2py  -0.91855     2 2py   2.96504     3 1s    1.50452
                                    4 1s   -1.50452     5 1s   -1.50452     6 1s    1.50452
   23.1    -0.00000     1.20990     1 1s    1.03237     1 1s   -1.72455     1 2pz   0.36816     1 2pz  -0.50135     2 1s    1.03237
                                    2 1s   -1.72455     2 2pz  -0.36816     2 2pz   0.50135     3 1s   -0.43902     3 1s    0.86665
                                    4 1s   -0.43902     4 1s    0.86665     5 1s   -0.43902     5 1s    0.86665     6 1s   -0.43902
                                    6 1s    0.86665
   24.1    -0.00000     1.21806     1 1s   -0.48089     1 1s    0.35037     1 2pz  -0.63352     1 2pz   1.28026     2 1s    0.48089
                                    2 1s   -0.35037     2 2pz  -0.63352     2 2pz   1.28026     3 1s    0.47221     3 1s   -0.95808
                                    4 1s    0.47221     4 1s   -0.95808     5 1s   -0.47221     5 1s    0.95808     6 1s   -0.47221
                                    6 1s    0.95808
   25.1    -0.00000     1.32035     1 1s   -1.61026     1 1s    5.41977     1 2pz  -1.87161     2 1s    1.61026     2 1s   -5.41977
                                    2 2pz  -1.87161     3 1s   -0.36472     4 1s   -0.36472     5 1s    0.36472     6 1s    0.36472
   26.1    -0.00000     1.43093     1 2py   2.31215     2 2py  -2.31215     3 1s   -0.68687     3 1s   -0.55267     4 1s    0.68687
                                    4 1s    0.55267     5 1s    0.68687     5 1s    0.55267     6 1s   -0.68687     6 1s   -0.55267
   27.1    -0.00000     1.71401     1 3d1+  0.61545     2 3d1+ -0.61545
   28.1    -0.00000     1.80671     1 3d2-  0.67307     2 3d2-  0.67307
   29.1    -0.00000     2.13304     1 2py   0.59809     1 3d2-  0.72863     2 2py  -0.59809     2 3d2- -0.72863
   30.1    -0.00000     2.18630     1 1s   -0.60467     1 3d2+  0.70855     2 1s   -0.60467     2 3d2+  0.70855     3 1s    0.37378
                                    4 1s    0.37378     5 1s    0.37378     6 1s    0.37378
   31.1    -0.00000     2.31632     1 2py   0.27844     1 3d1-  0.68199     2 2py   0.27844     2 3d1- -0.68199     3 1s   -0.51936
                                    4 1s    0.51936     5 1s   -0.51936     6 1s    0.51936
   32.1    -0.00000     2.38805     1 1s   -0.50574     1 2pz   0.28875     1 2pz  -0.44899     1 3d0   0.68978     2 1s   -0.50574
                                    2 2pz  -0.28875     2 2pz   0.44899     2 3d0   0.68978
   33.1    -0.00000     2.58596     1 1s    0.28401     1 1s   -1.30178     1 2pz   0.25141     1 3d1+  0.26029     1 3d2+  0.75906
                                    2 1s   -0.28401     2 1s    1.30178     2 2pz   0.25141     2 3d1+  0.26029     2 3d2+ -0.75906
                                    3 1s    0.41526     4 1s    0.41526     5 1s   -0.41526     6 1s   -0.41526
   34.1    -0.00000     2.69715     1 1s    0.44136     1 3d1+  0.86537     2 1s   -0.44136     2 3d1+  0.86537
   35.1    -0.00000     3.04403     1 1s    0.30995     1 1s    2.04369     1 2pz  -0.78936     1 2pz  -1.18993     1 3d0   1.11362
                                    2 1s   -0.30995     2 1s   -2.04369     2 2pz  -0.78936     2 2pz  -1.18993     2 3d0  -1.11362
   36.1    -0.00000     3.04557     1 2py   0.53596     1 3d1-  0.96374     2 2py  -0.53596     2 3d1-  0.96374     3 1s   -0.47659
                                    4 1s    0.47659     5 1s    0.47659     6 1s   -0.47659


 Natural orbital dump (state averaged) at molpro section  2140.2    (Orbital set 2)



 **********************************************************************************************************************************
 DATASETS  * FILE   NREC   LENGTH (MB)   RECORD NAMES
              1      20       31.61       500      610      700      900      950      970     1000      129      960     1100   
                                          VAR    BASINP    GEOM    SYMINP    ZMAT    AOBASIS   BASIS     P2S    ABASIS      S 
                                         1400     1410     1200     1210     1080     1600     1650     1300     1700     1380   
                                           T        V       H0       H01     AOSYM     SMH    MOLCAS    ERIS     OPER     JKOP   

              2       5        5.42       700     1000      520     2100     2140   
                                         GEOM     BASIS   MCVARS     RHF     MCSCF   

 PROGRAMS   *        TOTAL     MULTI    HF-SCF       INT
 CPU TIMES  *         0.74      0.28      0.10      0.26
 REAL TIME  *         1.01 SEC
 DISK USED  *        38.79 MB
 **********************************************************************************************************************************
 Molecular orbitals read from record     2140.2  Type=MCSCF/NATURAL (state averaged)
 Occupation numbers read from record     2140.2  Type=MCSCF/NATURAL (state averaged)
 Orbital energies read from record       2140.2  Type=MCSCF/NATURAL (state averaged)
 Redundancy group numbers read from rec  2140.2  Type=MCSCF/NATURAL (state averaged)

 MULTI/6-31G* energy=    -77.488059751693

           MULTI          HF-SCF
    -77.48805975    -78.02885367
 **********************************************************************************************************************************
 Molpro calculation terminated
