
 Primary working directories    : /scratch.local/johan406.molpro_temp/molpro.HigXEgO3Vf
 Secondary working directories  : /scratch.local/johan406.molpro_temp/molpro.HigXEgO3Vf
 Wavefunction directory         : /home/goodpast/johan406/wfu/
 Main file repository           : /scratch.local/johan406.molpro_temp/molpro.HigXEgO3Vf/

 id        : roweumn

 Nodes     nprocs
 cn0117       1

 Using customized tuning parameters: mindgm=1; mindgv=20; mindgc=4; mindgr=1; noblas=0; minvec=7
 default implementation of scratch files=df  


 Variables initialized (934), CPU time= 0.00 sec
                                                                                 !leave this line blank
 
 gprint, orbitals=30
 memory, 125., m
 symmetry, nosym
 nelect=16
 basis=6-31g*
 
 geometry={
 C -0.0154 0.0 0.6691
 C -0.0154 0.0 -0.6691
 H 0.096 0.9149 1.2348
 H 0.096 -0.9149 1.2348
 H 0.096 0.9149 -1.2348
 H 0.096 -0.9149 -1.2348
 }
 
 hf
 {multi,
 closed 7
 occ 9
 wf,spin=0;STATE,3
 }
 
 Commands  initialized (763), CPU time= 0.01 sec, 617 directives.
 Default parameters read. Elapsed time= 0.09 sec

 Checking input...
 Passed
1


                                         ***  PROGRAM SYSTEM MOLPRO  ***
                                       Copyright, TTI GmbH Stuttgart, 2015
                                    Version 2019.2 linked Oct 25 2019 22:50:27


 **********************************************************************************************************************************
 LABEL *                                                                                 
  64 bit serial version                                                                  DATE: 26-Jan-23          TIME: 19:46:18  
 **********************************************************************************************************************************

 SHA1:             8dbd9ae1082e4ce945b0f27595c9eb2d4aa09004
 **********************************************************************************************************************************


 Variable memory set to  125000000 words,  buffer space 

 SETTING NELECT         =        16.00000000                                  
 SETTING BASIS          =    6-31G*
 ZSYMEL=NOSYM


Geometry recognized as XYZ



 Recomputing integrals since basis changed


 Using spherical harmonics

 Library entry C      S 6-31G                selected for orbital group  1
 Library entry C      P 6-31G                selected for orbital group  1
 Library entry C      D 6-31G*               selected for orbital group  1
 Library entry H      S 6-31G                selected for orbital group  2


 PROGRAM * SEWARD (Integral evaluation for generally contracted gaussian basis sets)     Author: Roland Lindh, 1990

 Geometry written to block  1 of record 700


 Point group  C1  



 ATOMIC COORDINATES

 NR  ATOM    CHARGE       X              Y              Z

   1  C       6.00   -0.029101782    0.000000000    1.264415750
   2  C       6.00   -0.029101782    0.000000000   -1.264415750
   3  H       1.00    0.181413708    1.728910431    2.333433819
   4  H       1.00    0.181413708   -1.728910431    2.333433819
   5  H       1.00    0.181413708    1.728910431   -2.333433819
   6  H       1.00    0.181413708   -1.728910431   -2.333433819

 Bond lengths in Bohr (Angstrom)

 1-2  2.528831500  1-3  2.043586965  1-4  2.043586965  2-5  2.043586965  2-6  2.043586965
     ( 1.338200000)     ( 1.081419650)     ( 1.081419650)     ( 1.081419650)     ( 1.081419650)

 Bond angles

  1-2-5  121.54100721   1-2-6  121.54100721   2-1-3  121.54100721   2-1-4  121.54100721

  3-1-4  115.56224417   5-2-6  115.56224417

 NUCLEAR CHARGE:                   16
 NUMBER OF PRIMITIVE AOS:          72
 NUMBER OF SYMMETRY AOS:           70
 NUMBER OF CONTRACTIONS:           36   (   36A   )
 NUMBER OF CORE ORBITALS:           2   (    2A   )
 NUMBER OF VALENCE ORBITALS:       12   (   12A   )


 NUCLEAR REPULSION ENERGY   33.33530267


 Eigenvalues of metric

         1 0.829E-02 0.186E-01 0.379E-01 0.458E-01 0.730E-01 0.192E+00 0.212E+00 0.226E+00


 Contracted 2-electron integrals neglected if value below      1.0D-11
 AO integral compression algorithm  1   Integral accuracy      1.0D-11

     1.049 MB (compressed) written to integral file ( 50.8%)


 NUMBER OF SORTED TWO-ELECTRON INTEGRALS:     222111.     BUFFER LENGTH:  32768
 NUMBER OF SEGMENTS:   1  SEGMENT LENGTH:     222111      RECORD LENGTH: 524288

 Memory used in sort:       0.78 MW

 SORT1 READ      284735. AND WROTE      157583. INTEGRALS IN      1 RECORDS. CPU TIME:     0.00 SEC, REAL TIME:     0.00 SEC
 SORT2 READ      157583. AND WROTE      222111. INTEGRALS IN      4 RECORDS. CPU TIME:     0.02 SEC, REAL TIME:     0.02 SEC

 FILE SIZES:   FILE 1:    31.1 MBYTE,  FILE 4:     4.2 MBYTE,   TOTAL:     35.4 MBYTE

 OPERATOR DM      FOR CENTER  0  COORDINATES:    0.000000    0.000000    0.000000


 **********************************************************************************************************************************
 DATASETS  * FILE   NREC   LENGTH (MB)   RECORD NAMES
              1      19       30.88       500      610      700      900      950      970     1000      129      960     1100   
                                          VAR    BASINP    GEOM    SYMINP    ZMAT    AOBASIS   BASIS     P2S    ABASIS      S 
                                         1400     1410     1200     1210     1080     1600     1650     1300     1700   
                                           T        V       H0       H01     AOSYM     SMH    MOLCAS    ERIS     OPER   

 PROGRAMS   *        TOTAL       INT
 CPU TIMES  *         0.35      0.25
 REAL TIME  *         0.57 SEC
 DISK USED  *        35.71 MB
 **********************************************************************************************************************************


 PROGRAM * RHF-SCF (CLOSED SHELL)       Authors: W. Meyer, H.-J. Werner


 NUMBER OF ELECTRONS:       8+    8-    SPACE SYMMETRY=1    SPIN SYMMETRY: Singlet 
 CONVERGENCE THRESHOLDS:    1.00E-05 (Density)    1.00E-07 (Energy)
 MAX. NUMBER OF ITERATIONS:       60
 INTERPOLATION TYPE:            DIIS
 INTERPOLATION STEPS:              2 (START)      1 (STEP)
 LEVEL SHIFTS:                  0.00 (CLOSED)  0.00 (OPEN) 



 Orbital guess generated from atomic densities. Full valence occupancy:    8

 Molecular orbital dump at record        2100.2

 Initial occupancy:   8

 ITERATION    DDIFF          GRAD             ENERGY        2-EL.EN.            DIPOLE MOMENTS         DIIS   ORB.
    1      0.000D+00      0.000D+00       -78.00316059    118.588198    0.13909    0.00000    0.00000    0    start
    2      0.000D+00      0.856D-02       -78.02495214    116.748915    0.11464    0.00000    0.00000    1    diag
    3      0.817D-02      0.292D-02       -78.02708635    117.382193    0.12621    0.00000    0.00000    2    diag
    4      0.263D-02      0.714D-03       -78.02729799    117.282463    0.12497    0.00000    0.00000    3    diag
    5      0.107D-02      0.693D-04       -78.02730021    117.285445    0.12524    0.00000   -0.00000    4    diag
    6      0.148D-03      0.868D-05       -78.02730025    117.284996    0.12520    0.00000    0.00000    5    diag
    7      0.166D-04      0.133D-05       -78.02730025    117.285002    0.12520    0.00000    0.00000    6    diag
    8      0.242D-05      0.200D-06       -78.02730025    117.284997    0.12520   -0.00000   -0.00000    0    orth

 Final occupancy:   8

 !RHF STATE  1.1 Energy               -78.027300246615
 Nuclear energy                        33.33530267
 One-electron energy                 -170.00510122
 Two-electron energy                   58.64249830
 Virial quotient                       -1.00048146
 !RHF STATE  1.1 Dipole moment          0.12519965    -0.00000000    -0.00000000
 Dipole moment /Debye                   0.31820493    -0.00000000    -0.00000000

 ELECTRON ORBITALS
 =================

  Orbital  Occupation    Energy     Coefficients
    1.1     2.00000   -11.22688     1 1s    0.70419     2 1s    0.70419
    2.1     2.00000   -11.22529     1 1s    0.70455     2 1s   -0.70455
    3.1     2.00000    -1.02686     1 1s    0.30191     2 1s    0.30191
    4.1     2.00000    -0.79034     2 1s   -0.24437
    5.1     2.00000    -0.63570     1 2py   0.32116     2 2py   0.32116
    6.1     2.00000    -0.58313     1 2pz   0.40473     2 2pz  -0.40473
    7.1     2.00000    -0.50216     1 2py   0.30439     2 2py  -0.30439
    8.1     2.00000    -0.36969     1 2px   0.37100     1 2px   0.30670     2 2px   0.37100     2 2px   0.30670
    9.1     0.00000     0.17412     1 2px   0.33845     1 2px   0.71290     2 2px  -0.33845     2 2px  -0.71290
   10.1     0.00000     0.26544     1 1s   -1.48223     1 2pz  -0.64082     2 1s   -1.48223     2 2pz   0.64082     3 1s    1.03552
                                    4 1s    1.03552     5 1s    1.03552     6 1s    1.03552
   11.1     0.00000     0.29136     1 2py  -0.25158     1 2py  -0.79902     2 2py  -0.25158     2 2py  -0.79902     3 1s    1.08594
                                    4 1s   -1.08594     5 1s    1.08594     6 1s   -1.08594
   12.1     0.00000     0.30913     1 1s    1.94239     2 1s   -1.94239     3 1s   -1.06984     4 1s   -1.06984     5 1s    1.06984
                                    6 1s    1.06984
   13.1     0.00000     0.39263     1 2py  -0.25180     1 2py  -1.83741     2 2py   0.25180     2 2py   1.83741     3 1s    1.60039
                                    4 1s   -1.60039     5 1s   -1.60039     6 1s    1.60039
   14.1     0.00000     0.49181     1 1s   -2.99588     1 2pz   2.95006     2 1s    2.99588     2 2pz   2.95006     3 1s   -0.59179
                                    4 1s   -0.59179     5 1s    0.59179     6 1s    0.59179
   15.1     0.00000     0.66928     1 2pz  -0.55685     1 2pz   1.03488     2 2pz   0.55685     2 2pz  -1.03488
   16.1     0.00000     0.76187     1 2py  -0.40408     1 2py   0.76000     2 2py  -0.40408     2 2py   0.76000     3 1s   -0.38544
                                    4 1s    0.38544     5 1s   -0.38544     6 1s    0.38544
   17.1     0.00000     0.77683     1 2px  -0.73829     1 2px   0.63922     2 2px  -0.73829     2 2px   0.63922
   18.1     0.00000     0.86848     1 1s   -0.88082     1 1s    1.45959     1 2pz   0.34587     2 1s   -0.88082     2 1s    1.45959
                                    2 2pz  -0.34587     3 1s   -0.40053     4 1s   -0.40053     5 1s   -0.40053     6 1s   -0.40053
   19.1     0.00000     0.88970     1 2px  -0.81469     1 2px   1.08411     2 2px   0.81469     2 2px  -1.08411
   20.1     0.00000     0.96194     1 1s   -0.79479     1 2pz   0.61326     1 2pz  -0.51818     2 1s    0.79479     2 2pz   0.61326
                                    2 2pz  -0.51818     3 1s    0.38122     4 1s    0.38122     5 1s   -0.38122     6 1s   -0.38122
   21.1     0.00000     1.10912     1 2py  -0.68452     1 2py   1.08369     2 2py  -0.68452     2 2py   1.08369     3 1s    0.38390
                                    3 1s   -1.04992     4 1s   -0.38390     4 1s    1.04992     5 1s    0.38390     5 1s   -1.04992
                                    6 1s   -0.38390     6 1s    1.04992
   22.1     0.00000     1.14832     1 2py   0.91777     1 2py  -2.97267     2 2py  -0.91777     2 2py   2.97267     3 1s    1.48391
                                    4 1s   -1.48391     5 1s   -1.48391     6 1s    1.48391
   23.1     0.00000     1.21110     1 1s    1.03798     1 1s   -1.72910     1 2pz   0.36283     1 2pz  -0.49529     2 1s    1.03798
                                    2 1s   -1.72910     2 2pz  -0.36283     2 2pz   0.49529     3 1s   -0.43699     3 1s    0.86688
                                    4 1s   -0.43699     4 1s    0.86688     5 1s   -0.43699     5 1s    0.86688     6 1s   -0.43699
                                    6 1s    0.86688
   24.1     0.00000     1.21903     1 1s   -0.54828     1 1s    0.57690     1 2pz  -0.61496     1 2pz   1.18989     2 1s    0.54828
                                    2 1s   -0.57690     2 2pz  -0.61496     2 2pz   1.18989     3 1s    0.46959     3 1s   -0.97057
                                    4 1s    0.46959     4 1s   -0.97057     5 1s   -0.46959     5 1s    0.97057     6 1s   -0.46959
                                    6 1s    0.97057
   25.1     0.00000     1.34147     1 1s   -1.58771     1 1s    5.39378     1 2pz   0.26376     1 2pz  -1.92307     2 1s    1.58771
                                    2 1s   -5.39378     2 2pz   0.26376     2 2pz  -1.92307     3 1s   -0.32246     4 1s   -0.32246
                                    5 1s    0.32246     6 1s    0.32246
   26.1     0.00000     1.41590     1 2py   2.14218     2 2py  -2.14218     3 1s   -0.68320     3 1s   -0.46550     4 1s    0.68320
                                    4 1s    0.46550     5 1s    0.68320     5 1s    0.46550     6 1s   -0.68320     6 1s   -0.46550
   27.1     0.00000     1.73961     1 3d1+  0.61293     2 3d1+ -0.61293
   28.1     0.00000     1.81975     1 3d2-  0.66687     2 3d2-  0.66687
   29.1     0.00000     2.17495     1 2py   0.72373     1 3d2-  0.72468     2 2py  -0.72373     2 3d2- -0.72468     3 1s   -0.25434
                                    4 1s    0.25434     5 1s    0.25434     6 1s   -0.25434
   30.1     0.00000     2.19652     1 1s   -0.60889     1 3d2+  0.70526     2 1s   -0.60889     2 3d2+  0.70526     3 1s    0.36951
                                    4 1s    0.36951     5 1s    0.36951     6 1s    0.36951
   31.1     0.00000     2.33163     1 2py   0.26726     1 3d1-  0.67710     2 2py   0.26726     2 3d1- -0.67710     3 1s   -0.51346
                                    4 1s    0.51346     5 1s   -0.51346     6 1s    0.51346
   32.1     0.00000     2.40857     1 1s   -0.50707     1 2pz   0.28365     1 2pz  -0.44546     1 3d0   0.69034     2 1s   -0.50707
                                    2 2pz  -0.28365     2 2pz   0.44546     2 3d0   0.69034
   33.1     0.00000     2.59099     1 1s    0.28322     1 1s   -1.28236     1 3d1+  0.29193     1 3d2+  0.74743     2 1s   -0.28322
                                    2 1s    1.28236     2 3d1+  0.29193     2 3d2+ -0.74743     3 1s    0.39936     4 1s    0.39936
                                    5 1s   -0.39936     6 1s   -0.39936
   34.1     0.00000     2.72614     1 1s    0.52082     1 3d1+  0.85526     1 3d2+ -0.26893     2 1s   -0.52082     2 3d1+  0.85526
                                    2 3d2+  0.26893
   35.1     0.00000     3.05315     1 2py   0.51147     1 3d1-  0.95883     2 2py  -0.51147     2 3d1-  0.95883     3 1s   -0.47052
                                    4 1s    0.47052     5 1s    0.47052     6 1s   -0.47052
   36.1     0.00000     3.06231     1 1s    0.31823     1 1s    2.01243     1 2pz  -0.79696     1 2pz  -1.17461     1 3d0   1.11198
                                    2 1s   -0.31823     2 1s   -2.01243     2 2pz  -0.79696     2 2pz  -1.17461     2 3d0  -1.11198


 HOMO      8.1    -0.369693 =     -10.0599eV
 LUMO      9.1     0.174117 =       4.7380eV
 LUMO-HOMO         0.543810 =      14.7978eV


 **********************************************************************************************************************************
 DATASETS  * FILE   NREC   LENGTH (MB)   RECORD NAMES
              1      19       30.88       500      610      700      900      950      970     1000      129      960     1100   
                                          VAR    BASINP    GEOM    SYMINP    ZMAT    AOBASIS   BASIS     P2S    ABASIS      S 
                                         1400     1410     1200     1210     1080     1600     1650     1300     1700   
                                           T        V       H0       H01     AOSYM     SMH    MOLCAS    ERIS     OPER   

              2       4        2.86       700     1000      520     2100   
                                         GEOM     BASIS   MCVARS     RHF  

 PROGRAMS   *        TOTAL    HF-SCF       INT
 CPU TIMES  *         0.45      0.10      0.25
 REAL TIME  *         0.69 SEC
 DISK USED  *        35.71 MB
 **********************************************************************************************************************************


 PROGRAM * MULTI (Direct Multiconfiguration SCF)       Authors: P.J. Knowles, H.-J. Werner (1984)


 Number of closed-shell orbitals:   7 (   7 )
 Number of active  orbitals:        2 (   2 )
 Number of external orbitals:      27 (  27 )

 State symmetry 1

 Number of electrons:     2    Spin symmetry=Singlet   Space symmetry=1
 Number of states:        3
 Number of CSFs:          3   (4 determinants, 4 intermediate states)

 Molecular orbitals read from record     2100.2  Type=RHF/CANONICAL (state 1.1)

 Wavefunction dump at record             2140.2

 Convergence thresholds  0.10E-01 (gradient)  0.10E-05 (energy)  0.10E-02 (step length)

 Weight factors for state symmetry  1:    0.33333   0.33333   0.33333

 Number of orbital rotations:      257   (    14 Core/Active    189 Core/Virtual   0 Active/Active     54 Active/Virtual)
 Total number of variables:        269

 Micro-Iterations solved by the two-step solver

 ITER. MIC  NCI  NEG     ENERGY(VAR)     ENERGY(PROJ)   ENERGY CHANGE     GRAD(0)  GRAD(ORB)   GRAD(CI)     STEP       TIME

   1    6    5    0     -77.72904905     -77.73608731   -0.00703826    0.13537087 0.00163737 0.00000000  0.92D-01      0.09
   2    5    5    0     -77.73585083     -77.73587062   -0.00001979    0.00708762 0.00000487 0.00000000  0.42D-02      0.17
   3    3    4    0     -77.73587064     -77.73587064   -0.00000000    0.00001177 0.00000000 0.00000000  0.15D-04      0.22

 ** WVFN ****  CONVERGENCE REACHED, FINAL GRADIENT:  0.16D-09



 Results for state 1.1
 =====================

 !MCSCF STATE  1.1 Energy             -78.044636520719
 Nuclear energy                        33.33530267
 Kinetic energy                        78.06414890
 One electron energy                 -170.14057886
 Two electron energy                   58.76063967
 Virial ratio                           1.99975005

 !MCSCF STATE  1.1 Dipole moment        0.12517919     0.00000000    -0.00000000
 Dipole moment /Debye                   0.31815293     0.00000000    -0.00000000

 Results for state 2.1
 =====================

 !MCSCF STATE  2.1 Energy             -77.673641154006
 Nuclear energy                        33.33530267
 Kinetic energy                        78.24481134
 One electron energy                 -169.56354300
 Two electron energy                   58.55459918
 Virial ratio                           1.99270022

 !MCSCF STATE  2.1 Dipole moment        0.18341829     0.00000000    -0.00000000
 Dipole moment /Debye                   0.46617226     0.00000000    -0.00000000

 Results for state 3.1
 =====================

 !MCSCF STATE  3.1 Energy             -77.489334240469
 Nuclear energy                        33.33530267
 Kinetic energy                        78.42547377
 One electron energy                 -168.98650715
 Two electron energy                   58.16187024
 Virial ratio                           1.98806332

 !MCSCF STATE  3.1 Dipole moment        0.24165739     0.00000000    -0.00000000
 Dipole moment /Debye                   0.61419159     0.00000000    -0.00000000

 State-averaged charge density matrix saved on record  2140.2 (density set 1)

 !MCSCF expec         <1.1|DMX|1.1>     0.125179193313 au =     0.318152934139 Debye
 !MCSCF expec         <2.1|DMX|2.1>     0.183418291244 au =     0.466172260660 Debye
 !MCSCF trans         <3.1|DMX|1.1>    -0.024598987502 au =    -0.062520294656 Debye
 !MCSCF expec         <3.1|DMX|3.1>     0.241657389176 au =     0.614191587181 Debye

 !MCSCF trans         <2.1|DMZ|1.1>    -1.493739537710 au =    -3.796458534252 Debye
 !MCSCF trans         <3.1|DMZ|2.1>    -2.252443550836 au =    -5.724765479933 Debye


 NATURAL ORBITALS (state averaged)
 =================================

  Orbital  Occupation    Energy     Coefficients
    1.1     2.00000   -11.24283     1 1s    0.70421     2 1s    0.70421
    2.1     2.00000   -11.24151     1 1s    0.70451     2 1s   -0.70451
    3.1     2.00000    -1.04200     1 1s    0.30999     2 1s    0.30999
    4.1     2.00000    -0.79845     1 1s    0.29090     2 1s   -0.29090
    5.1     2.00000    -0.64881     1 2py   0.32693     2 2py   0.32693
    6.1     2.00000    -0.59813     1 2pz   0.40412     2 2pz  -0.40412
    7.1     2.00000    -0.50913     1 2py   0.31101     2 2py  -0.31101
    8.1     1.00000     0.02995     1 2px   0.37790     1 2px   0.67376     2 2px  -0.37790     2 2px  -0.67376
    9.1     1.00000    -0.22582     1 2px   0.35394     1 2px   0.31791     2 2px   0.35394     2 2px   0.31791
   10.1    -0.00000     0.26225     1 1s   -1.47824     1 2pz  -0.64631     2 1s   -1.47824     2 2pz   0.64631     3 1s    1.03459
                                    4 1s    1.03459     5 1s    1.03459     6 1s    1.03459
   11.1    -0.00000     0.28279     1 2py  -0.25053     1 2py  -0.78877     2 2py  -0.25053     2 2py  -0.78877     3 1s    1.07736
                                    4 1s   -1.07736     5 1s    1.07736     6 1s   -1.07736
   12.1    -0.00000     0.30538     1 1s    1.96306     2 1s   -1.96306     3 1s   -1.06645     4 1s   -1.06645     5 1s    1.06645
                                    6 1s    1.06645
   13.1    -0.00000     0.38796     1 2py  -0.25564     1 2py  -1.82264     2 2py   0.25564     2 2py   1.82264     3 1s    1.59334
                                    4 1s   -1.59334     5 1s   -1.59334     6 1s    1.59334
   14.1    -0.00000     0.48849     1 1s   -2.97147     1 2pz   2.93244     2 1s    2.97147     2 2pz   2.93244     3 1s   -0.60070
                                    4 1s   -0.60070     5 1s    0.60070     6 1s    0.60070
   15.1    -0.00000     0.65809     1 1s    0.26116     1 2pz  -0.54848     1 2pz   1.01244     2 1s    0.26116     2 2pz   0.54848
                                    2 2pz  -1.01244
   16.1    -0.00000     0.75164     1 2py  -0.41446     1 2py   0.76750     2 2py  -0.41446     2 2py   0.76750     3 1s   -0.38091
                                    4 1s    0.38091     5 1s   -0.38091     6 1s    0.38091
   17.1    -0.00000     0.77120     1 2px  -0.74606     1 2px   0.63803     2 2px  -0.74606     2 2px   0.63803
   18.1    -0.00000     0.86480     1 1s   -0.87740     1 1s    1.48331     1 2pz   0.38999     2 1s   -0.87740     2 1s    1.48331
                                    2 2pz  -0.38999     3 1s   -0.40164     4 1s   -0.40164     5 1s   -0.40164     6 1s   -0.40164
   19.1    -0.00000     0.87237     1 2px  -0.79915     1 2px   1.11847     2 2px   0.79915     2 2px  -1.11847
   20.1    -0.00000     0.94304     1 1s   -0.63556     1 2pz   0.61764     1 2pz  -0.59810     2 1s    0.63556     2 2pz   0.61764
                                    2 2pz  -0.59810     3 1s    0.38093     4 1s    0.38093     5 1s   -0.38093     6 1s   -0.38093
   21.1    -0.00000     1.09380     1 2py  -0.67306     1 2py   1.08559     2 2py  -0.67306     2 2py   1.08559     3 1s    0.38463
                                    3 1s   -1.05894     4 1s   -0.38463     4 1s    1.05894     5 1s    0.38463     5 1s   -1.05894
                                    6 1s   -0.38463     6 1s    1.05894
   22.1    -0.00000     1.13603     1 2py   0.91491     1 2py  -2.97302     2 2py  -0.91491     2 2py   2.97302     3 1s    1.49097
                                    4 1s   -1.49097     5 1s   -1.49097     6 1s    1.49097
   23.1    -0.00000     1.20717     1 1s    1.03321     1 1s   -1.72542     1 2pz   0.36690     1 2pz  -0.50089     2 1s    1.03321
                                    2 1s   -1.72542     2 2pz  -0.36690     2 2pz   0.50089     3 1s   -0.43758     3 1s    0.86666
                                    4 1s   -0.43758     4 1s    0.86666     5 1s   -0.43758     5 1s    0.86666     6 1s   -0.43758
                                    6 1s    0.86666
   24.1    -0.00000     1.21612     1 1s   -0.49711     1 1s    0.40784     1 2pz  -0.62780     1 2pz   1.25357     2 1s    0.49711
                                    2 1s   -0.40784     2 2pz  -0.62780     2 2pz   1.25357     3 1s    0.47187     3 1s   -0.95994
                                    4 1s    0.47187     4 1s   -0.95994     5 1s   -0.47187     5 1s    0.95994     6 1s   -0.47187
                                    6 1s    0.95994
   25.1    -0.00000     1.32163     1 1s   -1.60643     1 1s    5.42244     1 2pz  -1.88119     2 1s    1.60643     2 1s   -5.42244
                                    2 2pz  -1.88119     3 1s   -0.35610     4 1s   -0.35610     5 1s    0.35610     6 1s    0.35610
   26.1    -0.00000     1.40760     1 2py   2.14952     2 2py  -2.14952     3 1s   -0.68162     3 1s   -0.46845     4 1s    0.68162
                                    4 1s    0.46845     5 1s    0.68162     5 1s    0.46845     6 1s   -0.68162     6 1s   -0.46845
   27.1    -0.00000     1.71445     1 3d1+  0.61288     2 3d1+ -0.61288
   28.1    -0.00000     1.80582     1 3d2-  0.66689     2 3d2-  0.66689
   29.1    -0.00000     2.15200     1 2py   0.73377     1 3d2-  0.72438     2 2py  -0.73377     2 3d2- -0.72438     3 1s   -0.25835
                                    4 1s    0.25835     5 1s    0.25835     6 1s   -0.25835
   30.1    -0.00000     2.18119     1 1s   -0.60471     1 3d2+  0.70509     2 1s   -0.60471     2 3d2+  0.70509     3 1s    0.37145
                                    4 1s    0.37145     5 1s    0.37145     6 1s    0.37145
   31.1    -0.00000     2.31541     1 2py   0.27345     1 3d1-  0.67548     2 2py   0.27345     2 3d1- -0.67548     3 1s   -0.51667
                                    4 1s    0.51667     5 1s   -0.51667     6 1s    0.51667
   32.1    -0.00000     2.38832     1 1s   -0.50536     1 2pz   0.28946     1 2pz  -0.44811     1 3d0   0.69019     2 1s   -0.50536
                                    2 2pz  -0.28946     2 2pz   0.44811     2 3d0   0.69019
   33.1    -0.00000     2.57217     1 1s    0.28454     1 1s   -1.29305     1 3d1+  0.29147     1 3d2+  0.74689     2 1s   -0.28454
                                    2 1s    1.29305     2 3d1+  0.29147     2 3d2+ -0.74689     3 1s    0.40221     4 1s    0.40221
                                    5 1s   -0.40221     6 1s   -0.40221
   34.1    -0.00000     2.70321     1 1s    0.50874     1 3d1+  0.85582     1 3d2+ -0.26815     2 1s   -0.50874     2 3d1+  0.85582
                                    2 3d2+  0.26815
   35.1    -0.00000     3.04044     1 2py   0.51200     1 3d1-  0.95843     2 2py  -0.51200     2 3d1-  0.95843     3 1s   -0.47274
                                    4 1s    0.47274     5 1s    0.47274     6 1s   -0.47274
   36.1    -0.00000     3.04393     1 1s    0.31080     1 1s    2.03899     1 2pz  -0.78955     1 2pz  -1.18830     1 3d0   1.11363
                                    2 1s   -0.31080     2 1s   -2.03899     2 2pz  -0.78955     2 2pz  -1.18830     2 3d0  -1.11363


 Natural orbital dump (state averaged) at molpro section  2140.2    (Orbital set 2)



 **********************************************************************************************************************************
 DATASETS  * FILE   NREC   LENGTH (MB)   RECORD NAMES
              1      20       31.61       500      610      700      900      950      970     1000      129      960     1100   
                                          VAR    BASINP    GEOM    SYMINP    ZMAT    AOBASIS   BASIS     P2S    ABASIS      S 
                                         1400     1410     1200     1210     1080     1600     1650     1300     1700     1380   
                                           T        V       H0       H01     AOSYM     SMH    MOLCAS    ERIS     OPER     JKOP   

              2       5        5.42       700     1000      520     2100     2140   
                                         GEOM     BASIS   MCVARS     RHF     MCSCF   

 PROGRAMS   *        TOTAL     MULTI    HF-SCF       INT
 CPU TIMES  *         0.73      0.28      0.10      0.25
 REAL TIME  *         1.00 SEC
 DISK USED  *        38.79 MB
 **********************************************************************************************************************************
 Molecular orbitals read from record     2140.2  Type=MCSCF/NATURAL (state averaged)
 Occupation numbers read from record     2140.2  Type=MCSCF/NATURAL (state averaged)
 Orbital energies read from record       2140.2  Type=MCSCF/NATURAL (state averaged)
 Redundancy group numbers read from rec  2140.2  Type=MCSCF/NATURAL (state averaged)

 MULTI/6-31G* energy=    -77.489334240469

           MULTI          HF-SCF
    -77.48933424    -78.02730025
 **********************************************************************************************************************************
 Molpro calculation terminated
