
 Primary working directories    : /scratch.local/johan406.molpro_temp/molpro.XAb0ziDKrb
 Secondary working directories  : /scratch.local/johan406.molpro_temp/molpro.XAb0ziDKrb
 Wavefunction directory         : /home/goodpast/johan406/wfu/
 Main file repository           : /scratch.local/johan406.molpro_temp/molpro.XAb0ziDKrb/

 id        : roweumn

 Nodes     nprocs
 cn0117       1

 Using customized tuning parameters: mindgm=1; mindgv=20; mindgc=4; mindgr=1; noblas=0; minvec=7
 default implementation of scratch files=df  


 Variables initialized (934), CPU time= 0.00 sec
                                                                                 !leave this line blank
 
 gprint, orbitals=30
 memory, 125., m
 symmetry, nosym
 nelect=16
 basis=6-31g*
 
 geometry={
 C -0.0195 0.0 0.6691
 C -0.0195 0.0 -0.6691
 H 0.122 0.9149 1.2348
 H 0.122 -0.9149 1.2348
 H 0.122 0.9149 -1.2348
 H 0.122 -0.9149 -1.2348
 }
 
 hf
 {multi,
 closed 7
 occ 9
 wf,spin=0;STATE,3
 }
 
 Commands  initialized (763), CPU time= 0.01 sec, 617 directives.
 Default parameters read. Elapsed time= 0.08 sec

 Checking input...
 Passed
1


                                         ***  PROGRAM SYSTEM MOLPRO  ***
                                       Copyright, TTI GmbH Stuttgart, 2015
                                    Version 2019.2 linked Oct 25 2019 22:50:27


 **********************************************************************************************************************************
 LABEL *                                                                                 
  64 bit serial version                                                                  DATE: 26-Jan-23          TIME: 19:47:34  
 **********************************************************************************************************************************

 SHA1:             8dbd9ae1082e4ce945b0f27595c9eb2d4aa09004
 **********************************************************************************************************************************


 Variable memory set to  125000000 words,  buffer space 

 SETTING NELECT         =        16.00000000                                  
 SETTING BASIS          =    6-31G*
 ZSYMEL=NOSYM


Geometry recognized as XYZ



 Recomputing integrals since basis changed


 Using spherical harmonics

 Library entry C      S 6-31G                selected for orbital group  1
 Library entry C      P 6-31G                selected for orbital group  1
 Library entry C      D 6-31G*               selected for orbital group  1
 Library entry H      S 6-31G                selected for orbital group  2


 PROGRAM * SEWARD (Integral evaluation for generally contracted gaussian basis sets)     Author: Roland Lindh, 1990

 Geometry written to block  1 of record 700


 Point group  C1  



 ATOMIC COORDINATES

 NR  ATOM    CHARGE       X              Y              Z

   1  C       6.00   -0.036849659    0.000000000    1.264415750
   2  C       6.00   -0.036849659    0.000000000   -1.264415750
   3  H       1.00    0.230546587    1.728910431    2.333433819
   4  H       1.00    0.230546587   -1.728910431    2.333433819
   5  H       1.00    0.230546587    1.728910431   -2.333433819
   6  H       1.00    0.230546587   -1.728910431   -2.333433819

 Bond lengths in Bohr (Angstrom)

 1-2  2.528831500  1-3  2.050227222  1-4  2.050227222  2-5  2.050227222  2-6  2.050227222
     ( 1.338200000)     ( 1.084933523)     ( 1.084933523)     ( 1.084933523)     ( 1.084933523)

 Bond angles

  1-2-5  121.42717690   1-2-6  121.42717690   2-1-3  121.42717690   2-1-4  121.42717690

  3-1-4  114.97569673   5-2-6  114.97569673

 NUCLEAR CHARGE:                   16
 NUMBER OF PRIMITIVE AOS:          72
 NUMBER OF SYMMETRY AOS:           70
 NUMBER OF CONTRACTIONS:           36   (   36A   )
 NUMBER OF CORE ORBITALS:           2   (    2A   )
 NUMBER OF VALENCE ORBITALS:       12   (   12A   )


 NUCLEAR REPULSION ENERGY   33.29216509


 Eigenvalues of metric

         1 0.828E-02 0.195E-01 0.380E-01 0.457E-01 0.743E-01 0.192E+00 0.212E+00 0.226E+00


 Contracted 2-electron integrals neglected if value below      1.0D-11
 AO integral compression algorithm  1   Integral accuracy      1.0D-11

     1.049 MB (compressed) written to integral file ( 50.9%)


 NUMBER OF SORTED TWO-ELECTRON INTEGRALS:     222111.     BUFFER LENGTH:  32768
 NUMBER OF SEGMENTS:   1  SEGMENT LENGTH:     222111      RECORD LENGTH: 524288

 Memory used in sort:       0.78 MW

 SORT1 READ      284735. AND WROTE      157595. INTEGRALS IN      1 RECORDS. CPU TIME:     0.00 SEC, REAL TIME:     0.01 SEC
 SORT2 READ      157595. AND WROTE      222111. INTEGRALS IN      4 RECORDS. CPU TIME:     0.02 SEC, REAL TIME:     0.02 SEC

 FILE SIZES:   FILE 1:    31.1 MBYTE,  FILE 4:     4.2 MBYTE,   TOTAL:     35.4 MBYTE

 OPERATOR DM      FOR CENTER  0  COORDINATES:    0.000000    0.000000    0.000000


 **********************************************************************************************************************************
 DATASETS  * FILE   NREC   LENGTH (MB)   RECORD NAMES
              1      19       30.88       500      610      700      900      950      970     1000      129      960     1100   
                                          VAR    BASINP    GEOM    SYMINP    ZMAT    AOBASIS   BASIS     P2S    ABASIS      S 
                                         1400     1410     1200     1210     1080     1600     1650     1300     1700   
                                           T        V       H0       H01     AOSYM     SMH    MOLCAS    ERIS     OPER   

 PROGRAMS   *        TOTAL       INT
 CPU TIMES  *         0.36      0.26
 REAL TIME  *         0.57 SEC
 DISK USED  *        35.71 MB
 **********************************************************************************************************************************


 PROGRAM * RHF-SCF (CLOSED SHELL)       Authors: W. Meyer, H.-J. Werner


 NUMBER OF ELECTRONS:       8+    8-    SPACE SYMMETRY=1    SPIN SYMMETRY: Singlet 
 CONVERGENCE THRESHOLDS:    1.00E-05 (Density)    1.00E-07 (Energy)
 MAX. NUMBER OF ITERATIONS:       60
 INTERPOLATION TYPE:            DIIS
 INTERPOLATION STEPS:              2 (START)      1 (STEP)
 LEVEL SHIFTS:                  0.00 (CLOSED)  0.00 (OPEN) 



 Orbital guess generated from atomic densities. Full valence occupancy:    8

 Molecular orbital dump at record        2100.2

 Initial occupancy:   8

 ITERATION    DDIFF          GRAD             ENERGY        2-EL.EN.            DIPOLE MOMENTS         DIIS   ORB.
    1      0.000D+00      0.000D+00       -78.00103438    118.506359    0.17662   -0.00000   -0.00000    0    start
    2      0.000D+00      0.853D-02       -78.02272665    116.667046    0.14478    0.00000   -0.00000    1    diag
    3      0.814D-02      0.292D-02       -78.02486587    117.301973    0.15956   -0.00000   -0.00000    2    diag
    4      0.264D-02      0.715D-03       -78.02507910    117.201609    0.15790    0.00000   -0.00000    3    diag
    5      0.107D-02      0.703D-04       -78.02508140    117.204640    0.15823    0.00000   -0.00000    4    diag
    6      0.149D-03      0.905D-05       -78.02508144    117.204180    0.15818    0.00000   -0.00000    5    diag
    7      0.173D-04      0.142D-05       -78.02508144    117.204186    0.15818    0.00000    0.00000    6    diag
    8      0.276D-05      0.229D-06       -78.02508144    117.204180    0.15818   -0.00000    0.00000    0    orth

 Final occupancy:   8

 !RHF STATE  1.1 Energy               -78.025081444261
 Nuclear energy                        33.29216509
 One-electron energy                 -169.91933667
 Two-electron energy                   58.60209014
 Virial quotient                       -1.00070772
 !RHF STATE  1.1 Dipole moment          0.15817926    -0.00000000     0.00000000
 Dipole moment /Debye                   0.40202526    -0.00000000     0.00000000

 ELECTRON ORBITALS
 =================

  Orbital  Occupation    Energy     Coefficients
    1.1     2.00000   -11.22799     1 1s    0.70419     2 1s    0.70419
    2.1     2.00000   -11.22639     1 1s    0.70455     2 1s   -0.70455
    3.1     2.00000    -1.02684     1 1s    0.30176     2 1s    0.30176
    4.1     2.00000    -0.78919     1 1s    0.24592
    5.1     2.00000    -0.63392     1 2py   0.32080     2 2py   0.32080
    6.1     2.00000    -0.58331     1 2pz   0.40321     2 2pz  -0.40321
    7.1     2.00000    -0.49996     1 2py   0.30376     2 2py  -0.30376
    8.1     2.00000    -0.36997     1 2px   0.36964     1 2px   0.30595     2 2px   0.36964     2 2px   0.30595
    9.1     0.00000     0.17144     1 2px   0.33638     1 2px   0.70077     2 2px  -0.33638     2 2px  -0.70077
   10.1     0.00000     0.26475     1 1s   -1.47288     1 2pz  -0.63671     2 1s   -1.47288     2 2pz   0.63671     3 1s    1.03158
                                    4 1s    1.03158     5 1s    1.03158     6 1s    1.03158
   11.1     0.00000     0.28936     1 2py  -0.25132     1 2py  -0.79224     2 2py  -0.25132     2 2py  -0.79224     3 1s    1.07587
                                    4 1s   -1.07587     5 1s    1.07587     6 1s   -1.07587
   12.1     0.00000     0.30879     1 1s    1.94420     1 2px   0.27048     2 1s   -1.94420     2 2px  -0.27048     3 1s   -1.06562
                                    4 1s   -1.06562     5 1s    1.06562     6 1s    1.06562
   13.1     0.00000     0.39329     1 2py   0.25428     1 2py   1.81255     2 2py  -0.25428     2 2py  -1.81255     3 1s   -1.58107
                                    4 1s    1.58107     5 1s    1.58107     6 1s   -1.58107
   14.1     0.00000     0.49241     1 1s   -2.99951     1 2pz   2.94584     2 1s    2.99951     2 2pz   2.94584     3 1s   -0.59120
                                    4 1s   -0.59120     5 1s    0.59120     6 1s    0.59120
   15.1     0.00000     0.66925     1 2pz  -0.55733     1 2pz   1.03239     2 2pz   0.55733     2 2pz  -1.03239
   16.1     0.00000     0.76163     1 2py  -0.40731     1 2py   0.75273     2 2py  -0.40731     2 2py   0.75273     3 1s   -0.38484
                                    4 1s    0.38484     5 1s   -0.38484     6 1s    0.38484
   17.1     0.00000     0.77657     1 2px  -0.73687     1 2px   0.63894     2 2px  -0.73687     2 2px   0.63894
   18.1     0.00000     0.87212     1 1s   -0.87625     1 1s    1.45523     1 2pz   0.34965     2 1s   -0.87625     2 1s    1.45523
                                    2 2pz  -0.34965     3 1s   -0.40369     4 1s   -0.40369     5 1s   -0.40369     6 1s   -0.40369
   19.1     0.00000     0.88928     1 2px  -0.81268     1 2px   1.08948     2 2px   0.81268     2 2px  -1.08948
   20.1     0.00000     0.96648     1 1s   -0.74907     1 2pz   0.61941     1 2pz  -0.54842     2 1s    0.74907     2 2pz   0.61941
                                    2 2pz  -0.54842     3 1s    0.37962     4 1s    0.37962     5 1s   -0.37962     6 1s   -0.37962
   21.1     0.00000     1.10458     1 2py  -0.68132     1 2py   1.07302     2 2py  -0.68132     2 2py   1.07302     3 1s    0.38515
                                    3 1s   -1.04180     4 1s   -0.38515     4 1s    1.04180     5 1s    0.38515     5 1s   -1.04180
                                    6 1s   -0.38515     6 1s    1.04180
   22.1     0.00000     1.14064     1 2py   0.91181     1 2py  -2.98245     2 2py  -0.91181     2 2py   2.98245     3 1s    1.46312
                                    4 1s   -1.46312     5 1s   -1.46312     6 1s    1.46312
   23.1     0.00000     1.20771     1 1s    1.03924     1 1s   -1.73042     1 2pz   0.36083     1 2pz  -0.49474     2 1s    1.03924
                                    2 1s   -1.73042     2 2pz  -0.36083     2 2pz   0.49474     3 1s   -0.43486     3 1s    0.86682
                                    4 1s   -0.43486     4 1s    0.86682     5 1s   -0.43486     5 1s    0.86682     6 1s   -0.43486
                                    6 1s    0.86682
   24.1     0.00000     1.21657     1 1s   -0.56175     1 1s    0.62700     1 2pz  -0.60772     1 2pz   1.16237     2 1s    0.56175
                                    2 1s   -0.62700     2 2pz  -0.60772     2 2pz   1.16237     3 1s    0.46937     3 1s   -0.97070
                                    4 1s    0.46937     4 1s   -0.97070     5 1s   -0.46937     5 1s    0.97070     6 1s   -0.46937
                                    6 1s    0.97070
   25.1     0.00000     1.34343     1 1s   -1.58464     1 1s    5.39757     1 2pz   0.26431     1 2pz  -1.92847     2 1s    1.58464
                                    2 1s   -5.39757     2 2pz   0.26431     2 2pz  -1.92847     3 1s   -0.31568     4 1s   -0.31568
                                    5 1s    0.31568     6 1s    0.31568
   26.1     0.00000     1.38739     1 2py   1.93058     2 2py  -1.93058     3 1s   -0.67770     3 1s   -0.35589     4 1s    0.67770
                                    4 1s    0.35589     5 1s    0.67770     5 1s    0.35589     6 1s   -0.67770     6 1s   -0.35589
   27.1     0.00000     1.73990     1 3d1+  0.60924     2 3d1+ -0.60924
   28.1     0.00000     1.81854     1 3d2-  0.65845     2 3d2-  0.65845
   29.1     0.00000     2.18943     1 1s   -0.60888     1 3d2+  0.70026     2 1s   -0.60888     2 3d2+  0.70026     3 1s    0.36628
                                    4 1s    0.36628     5 1s    0.36628     6 1s    0.36628
   30.1     0.00000     2.19796     1 2py   0.82869     1 3d2-  0.72025     2 2py  -0.82869     2 3d2- -0.72025     3 1s   -0.28744
                                    4 1s    0.28744     5 1s    0.28744     6 1s   -0.28744
   31.1     0.00000     2.33017     1 2py   0.26085     1 3d1-  0.66813     2 2py   0.26085     2 3d1- -0.66813     3 1s   -0.50984
                                    4 1s    0.50984     5 1s   -0.50984     6 1s    0.50984
   32.1     0.00000     2.40899     1 1s   -0.50641     1 2pz   0.28466     1 2pz  -0.44435     1 3d0   0.69084     2 1s   -0.50641
                                    2 2pz  -0.28466     2 2pz   0.44435     2 3d0   0.69084
   33.1     0.00000     2.57365     1 1s    0.28645     1 1s   -1.28274     1 3d1+  0.30774     1 3d2+  0.73860     2 1s   -0.28645
                                    2 1s    1.28274     2 3d1+  0.30774     2 3d2+ -0.73860     3 1s    0.38734     4 1s    0.38734
                                    5 1s   -0.38734     6 1s   -0.38734
   34.1     0.00000     2.73254     1 1s    0.57212     1 3d1+  0.85029     1 3d2+ -0.28412     2 1s   -0.57212     2 3d1+  0.85029
                                    2 3d2+  0.28412
   35.1     0.00000     3.04600     1 2py   0.47988     1 3d1-  0.95176     2 2py  -0.47988     2 3d1-  0.95176     3 1s   -0.46533
                                    4 1s    0.46533     5 1s    0.46533     6 1s   -0.46533
   36.1     0.00000     3.06238     1 1s    0.31958     1 1s    2.00558     1 2pz  -0.79710     1 2pz  -1.17223     1 3d0   1.11197
                                    2 1s   -0.31958     2 1s   -2.00558     2 2pz  -0.79710     2 2pz  -1.17223     2 3d0  -1.11197


 HOMO      8.1    -0.369967 =     -10.0673eV
 LUMO      9.1     0.171441 =       4.6651eV
 LUMO-HOMO         0.541408 =      14.7325eV


 **********************************************************************************************************************************
 DATASETS  * FILE   NREC   LENGTH (MB)   RECORD NAMES
              1      19       30.88       500      610      700      900      950      970     1000      129      960     1100   
                                          VAR    BASINP    GEOM    SYMINP    ZMAT    AOBASIS   BASIS     P2S    ABASIS      S 
                                         1400     1410     1200     1210     1080     1600     1650     1300     1700   
                                           T        V       H0       H01     AOSYM     SMH    MOLCAS    ERIS     OPER   

              2       4        2.86       700     1000      520     2100   
                                         GEOM     BASIS   MCVARS     RHF  

 PROGRAMS   *        TOTAL    HF-SCF       INT
 CPU TIMES  *         0.46      0.10      0.26
 REAL TIME  *         0.69 SEC
 DISK USED  *        35.71 MB
 **********************************************************************************************************************************


 PROGRAM * MULTI (Direct Multiconfiguration SCF)       Authors: P.J. Knowles, H.-J. Werner (1984)


 Number of closed-shell orbitals:   7 (   7 )
 Number of active  orbitals:        2 (   2 )
 Number of external orbitals:      27 (  27 )

 State symmetry 1

 Number of electrons:     2    Spin symmetry=Singlet   Space symmetry=1
 Number of states:        3
 Number of CSFs:          3   (4 determinants, 4 intermediate states)

 Molecular orbitals read from record     2100.2  Type=RHF/CANONICAL (state 1.1)

 Wavefunction dump at record             2140.2

 Convergence thresholds  0.10E-01 (gradient)  0.10E-05 (energy)  0.10E-02 (step length)

 Weight factors for state symmetry  1:    0.33333   0.33333   0.33333

 Number of orbital rotations:      257   (    14 Core/Active    189 Core/Virtual   0 Active/Active     54 Active/Virtual)
 Total number of variables:        269

 Micro-Iterations solved by the two-step solver

 ITER. MIC  NCI  NEG     ENERGY(VAR)     ENERGY(PROJ)   ENERGY CHANGE     GRAD(0)  GRAD(ORB)   GRAD(CI)     STEP       TIME

   1    6    5    0     -77.72860533     -77.73604344   -0.00743811    0.13682363 0.00292086 0.00000000  0.98D-01      0.10
   2    4    4    0     -77.73578071     -77.73580224   -0.00002152    0.00750957 0.00000395 0.00000000  0.41D-02      0.17
   3    3    4    0     -77.73580226     -77.73580226   -0.00000000    0.00001235 0.00000000 0.00000000  0.14D-04      0.22

 ** WVFN ****  CONVERGENCE REACHED, FINAL GRADIENT:  0.16D-09



 Results for state 1.1
 =====================

 !MCSCF STATE  1.1 Energy             -78.042235613519
 Nuclear energy                        33.29216509
 Kinetic energy                        78.04787741
 One electron energy                 -170.05684465
 Two electron energy                   58.72244395
 Virial ratio                           1.99992771

 !MCSCF STATE  1.1 Dipole moment        0.15823642     0.00000000    -0.00000000
 Dipole moment /Debye                   0.40217051     0.00000000    -0.00000000

 Results for state 2.1
 =====================

 !MCSCF STATE  2.1 Energy             -77.674156721079
 Nuclear energy                        33.29216509
 Kinetic energy                        78.22877786
 One electron energy                 -169.47767393
 Two electron energy                   58.51135212
 Virial ratio                           1.99291027

 !MCSCF STATE  2.1 Dipole moment        0.22970724    -0.00000000     0.00000000
 Dipole moment /Debye                   0.58381932    -0.00000000     0.00000000

 Results for state 3.1
 =====================

 !MCSCF STATE  3.1 Energy             -77.491014443123
 Nuclear energy                        33.29216509
 Kinetic energy                        78.40967832
 One electron energy                 -168.89850320
 Two electron energy                   58.11532367
 Virial ratio                           1.98828379

 !MCSCF STATE  3.1 Dipole moment        0.30117806    -0.00000000     0.00000000
 Dipole moment /Debye                   0.76546813    -0.00000000     0.00000000

 State-averaged charge density matrix saved on record  2140.2 (density set 1)

 !MCSCF expec         <1.1|DMX|1.1>     0.158236415636 au =     0.402170509251 Debye
 !MCSCF expec         <2.1|DMX|2.1>     0.229707236595 au =     0.583819318386 Debye
 !MCSCF trans         <3.1|DMX|1.1>    -0.030280752394 au =    -0.076960954669 Debye
 !MCSCF expec         <3.1|DMX|3.1>     0.301178057555 au =     0.765468127522 Debye

 !MCSCF trans         <2.1|DMZ|1.1>    -1.483969958203 au =    -3.771628366370 Debye
 !MCSCF trans         <3.1|DMZ|2.1>    -2.240393915378 au =    -5.694140367445 Debye


 NATURAL ORBITALS (state averaged)
 =================================

  Orbital  Occupation    Energy     Coefficients
    1.1     2.00000   -11.24406     1 1s    0.70421     2 1s    0.70421
    2.1     2.00000   -11.24274     1 1s    0.70451     2 1s   -0.70451
    3.1     2.00000    -1.04220     1 1s    0.30988     2 1s    0.30988
    4.1     2.00000    -0.79747     1 1s    0.29312     2 1s   -0.29312
    5.1     2.00000    -0.64718     1 2py   0.32663     2 2py   0.32663
    6.1     2.00000    -0.59821     1 2pz   0.40127     2 2pz  -0.40127
    7.1     2.00000    -0.50714     1 2py   0.31043     2 2py  -0.31043
    8.1     1.00000     0.02769     1 2px   0.37661     1 2px   0.66596     2 2px  -0.37661     2 2px  -0.66596
    9.1     1.00000    -0.22609     1 2px   0.35163     1 2px   0.31704     2 2px   0.35163     2 2px   0.31704
   10.1    -0.00000     0.26132     1 1s   -1.46887     1 2pz  -0.64200     2 1s   -1.46887     2 2pz   0.64200     3 1s    1.03037
                                    4 1s    1.03037     5 1s    1.03037     6 1s    1.03037
   11.1    -0.00000     0.28071     1 2py  -0.25062     1 2py  -0.78166     2 2py  -0.25062     2 2py  -0.78166     3 1s    1.06727
                                    4 1s   -1.06727     5 1s    1.06727     6 1s   -1.06727
   12.1    -0.00000     0.30467     1 1s    1.96294     2 1s   -1.96294     3 1s   -1.06333     4 1s   -1.06333     5 1s    1.06333
                                    6 1s    1.06333
   13.1    -0.00000     0.38835     1 2py   0.25830     1 2py   1.79753     2 2py  -0.25830     2 2py  -1.79753     3 1s   -1.57388
                                    4 1s    1.57388     5 1s    1.57388     6 1s   -1.57388
   14.1    -0.00000     0.48877     1 1s   -2.97395     1 2pz   2.92859     2 1s    2.97395     2 2pz   2.92859     3 1s   -0.59989
                                    4 1s   -0.59989     5 1s    0.59989     6 1s    0.59989
   15.1    -0.00000     0.65817     1 1s    0.26432     1 2pz  -0.54876     1 2pz   1.01058     2 1s    0.26432     2 2pz   0.54876
                                    2 2pz  -1.01058
   16.1    -0.00000     0.75155     1 2py  -0.41716     1 2py   0.76035     2 2py  -0.41716     2 2py   0.76035     3 1s   -0.38038
                                    4 1s    0.38038     5 1s   -0.38038     6 1s    0.38038
   17.1    -0.00000     0.77118     1 2px  -0.74531     1 2px   0.63998     2 2px  -0.74531     2 2px   0.63998
   18.1    -0.00000     0.86794     1 1s   -0.87467     1 1s    1.47880     1 2pz   0.39222     2 1s   -0.87467     2 1s    1.47880
                                    2 2pz  -0.39222     3 1s   -0.40447     4 1s   -0.40447     5 1s   -0.40447     6 1s   -0.40447
   19.1    -0.00000     0.87215     1 2px  -0.79743     1 2px   1.12606     2 2px   0.79743     2 2px  -1.12606
   20.1    -0.00000     0.94758     1 1s   -0.58970     1 2pz   0.62374     1 2pz  -0.62599     2 1s    0.58970     2 2pz   0.62374
                                    2 2pz  -0.62599     3 1s    0.37922     4 1s    0.37922     5 1s   -0.37922     6 1s   -0.37922
   21.1    -0.00000     1.08938     1 2py  -0.66996     1 2py   1.07506     2 2py  -0.66996     2 2py   1.07506     3 1s    0.38588
                                    3 1s   -1.05081     4 1s   -0.38588     4 1s    1.05081     5 1s    0.38588     5 1s   -1.05081
                                    6 1s   -0.38588     6 1s    1.05081
   22.1    -0.00000     1.12857     1 2py   0.90914     1 2py  -2.98046     2 2py  -0.90914     2 2py   2.98046     3 1s    1.46994
                                    4 1s   -1.46994     5 1s   -1.46994     6 1s    1.46994
   23.1    -0.00000     1.20339     1 1s    1.03449     1 1s   -1.72681     1 2pz   0.36517     1 2pz  -0.50031     2 1s    1.03449
                                    2 1s   -1.72681     2 2pz  -0.36517     2 2pz   0.50031     3 1s   -0.43550     3 1s    0.86669
                                    4 1s   -0.43550     4 1s    0.86669     5 1s   -0.43550     5 1s    0.86669     6 1s   -0.43550
                                    6 1s    0.86669
   24.1    -0.00000     1.21338     1 1s   -0.51811     1 1s    0.48278     1 2pz  -0.62006     1 2pz   1.21807     2 1s    0.51811
                                    2 1s   -0.48278     2 2pz  -0.62006     2 2pz   1.21807     3 1s    0.47131     3 1s   -0.96202
                                    4 1s    0.47131     4 1s   -0.96202     5 1s   -0.47131     5 1s    0.96202     6 1s   -0.47131
                                    6 1s    0.96202
   25.1    -0.00000     1.32353     1 1s   -1.60130     1 1s    5.42547     1 2pz  -1.89247     2 1s    1.60130     2 1s   -5.42547
                                    2 2pz  -1.89247     3 1s   -0.34511     4 1s   -0.34511     5 1s    0.34511     6 1s    0.34511
   26.1    -0.00000     1.37923     1 2py   1.94146     2 2py  -1.94146     3 1s   -0.67602     3 1s   -0.36032     4 1s    0.67602
                                    4 1s    0.36032     5 1s    0.67602     5 1s    0.36032     6 1s   -0.67602     6 1s   -0.36032
   27.1    -0.00000     1.71507     1 3d1+  0.60932     2 3d1+ -0.60932
   28.1    -0.00000     1.80458     1 3d2-  0.65847     2 3d2-  0.65847
   29.1    -0.00000     2.17416     1 1s   -0.60466     1 3d2+  0.70027     2 1s   -0.60466     2 3d2+  0.70027     3 1s    0.36825
                                    4 1s    0.36825     5 1s    0.36825     6 1s    0.36825
   30.1    -0.00000     2.17507     1 2py   0.83983     1 3d2-  0.71985     2 2py  -0.83983     2 3d2- -0.71985     3 1s   -0.29192
                                    4 1s    0.29192     5 1s    0.29192     6 1s   -0.29192
   31.1    -0.00000     2.31397     1 2py   0.26664     1 3d1-  0.66658     2 2py   0.26664     2 3d1- -0.66658     3 1s   -0.51294
                                    4 1s    0.51294     5 1s   -0.51294     6 1s    0.51294
   32.1    -0.00000     2.38868     1 1s   -0.50483     1 2pz   0.29041     1 2pz  -0.44694     1 3d0   0.69073     2 1s   -0.50483
                                    2 2pz  -0.29041     2 2pz   0.44694     2 3d0   0.69073
   33.1    -0.00000     2.55527     1 1s    0.28806     1 1s   -1.29536     1 3d1+  0.30679     1 3d2+  0.73823     2 1s   -0.28806
                                    2 1s    1.29536     2 3d1+  0.30679     2 3d2+ -0.73823     3 1s    0.39024     4 1s    0.39024
                                    5 1s   -0.39024     6 1s   -0.39024
   34.1    -0.00000     2.70949     1 1s    0.55622     1 3d1+  0.85104     1 3d2+ -0.28291     2 1s   -0.55622     2 3d1+  0.85104
                                    2 3d2+  0.28291
   35.1    -0.00000     3.03334     1 2py   0.48062     1 3d1-  0.95135     2 2py  -0.48062     2 3d1-  0.95135     3 1s   -0.46752
                                    4 1s    0.46752     5 1s    0.46752     6 1s   -0.46752
   36.1    -0.00000     3.04380     1 1s    0.31198     1 1s    2.03263     1 2pz  -0.78977     1 2pz  -1.18607     1 3d0   1.11364
                                    2 1s   -0.31198     2 1s   -2.03263     2 2pz  -0.78977     2 2pz  -1.18607     2 3d0  -1.11364


 Natural orbital dump (state averaged) at molpro section  2140.2    (Orbital set 2)



 **********************************************************************************************************************************
 DATASETS  * FILE   NREC   LENGTH (MB)   RECORD NAMES
              1      20       31.61       500      610      700      900      950      970     1000      129      960     1100   
                                          VAR    BASINP    GEOM    SYMINP    ZMAT    AOBASIS   BASIS     P2S    ABASIS      S 
                                         1400     1410     1200     1210     1080     1600     1650     1300     1700     1380   
                                           T        V       H0       H01     AOSYM     SMH    MOLCAS    ERIS     OPER     JKOP   

              2       5        5.42       700     1000      520     2100     2140   
                                         GEOM     BASIS   MCVARS     RHF     MCSCF   

 PROGRAMS   *        TOTAL     MULTI    HF-SCF       INT
 CPU TIMES  *         0.73      0.27      0.10      0.26
 REAL TIME  *         1.00 SEC
 DISK USED  *        38.79 MB
 **********************************************************************************************************************************
 Molecular orbitals read from record     2140.2  Type=MCSCF/NATURAL (state averaged)
 Occupation numbers read from record     2140.2  Type=MCSCF/NATURAL (state averaged)
 Orbital energies read from record       2140.2  Type=MCSCF/NATURAL (state averaged)
 Redundancy group numbers read from rec  2140.2  Type=MCSCF/NATURAL (state averaged)

 MULTI/6-31G* energy=    -77.491014443123

           MULTI          HF-SCF
    -77.49101444    -78.02508144
 **********************************************************************************************************************************
 Molpro calculation terminated
