
 Primary working directories    : /scratch.local/johan406.molpro_temp/molpro.cSr0BCWMOu
 Secondary working directories  : /scratch.local/johan406.molpro_temp/molpro.cSr0BCWMOu
 Wavefunction directory         : /home/goodpast/johan406/wfu/
 Main file repository           : /scratch.local/johan406.molpro_temp/molpro.cSr0BCWMOu/

 id        : roweumn

 Nodes     nprocs
 cn0117       1

 Using customized tuning parameters: mindgm=1; mindgv=20; mindgc=4; mindgr=1; noblas=0; minvec=7
 default implementation of scratch files=df  


 Variables initialized (934), CPU time= 0.01 sec
                                                                                 !leave this line blank
 
 gprint, orbitals=30
 memory, 125., m
 symmetry, nosym
 nelect=16
 basis=6-31g*
 
 geometry={
 C -0.0214 0.0 0.6691
 C -0.0214 0.0 -0.6691
 H 0.134 0.9149 1.2348
 H 0.134 -0.9149 1.2348
 H 0.134 0.9149 -1.2348
 H 0.134 -0.9149 -1.2348
 }
 
 hf
 {multi,
 closed 7
 occ 9
 wf,spin=0;STATE,3
 }
 
 Commands  initialized (763), CPU time= 0.01 sec, 617 directives.
 Default parameters read. Elapsed time= 0.08 sec

 Checking input...
 Passed
1


                                         ***  PROGRAM SYSTEM MOLPRO  ***
                                       Copyright, TTI GmbH Stuttgart, 2015
                                    Version 2019.2 linked Oct 25 2019 22:50:27


 **********************************************************************************************************************************
 LABEL *                                                                                 
  64 bit serial version                                                                  DATE: 26-Jan-23          TIME: 19:48:10  
 **********************************************************************************************************************************

 SHA1:             8dbd9ae1082e4ce945b0f27595c9eb2d4aa09004
 **********************************************************************************************************************************


 Variable memory set to  125000000 words,  buffer space 

 SETTING NELECT         =        16.00000000                                  
 SETTING BASIS          =    6-31G*
 ZSYMEL=NOSYM


Geometry recognized as XYZ



 Recomputing integrals since basis changed


 Using spherical harmonics

 Library entry C      S 6-31G                selected for orbital group  1
 Library entry C      P 6-31G                selected for orbital group  1
 Library entry C      D 6-31G*               selected for orbital group  1
 Library entry H      S 6-31G                selected for orbital group  2


 PROGRAM * SEWARD (Integral evaluation for generally contracted gaussian basis sets)     Author: Roland Lindh, 1990

 Geometry written to block  1 of record 700


 Point group  C1  



 ATOMIC COORDINATES

 NR  ATOM    CHARGE       X              Y              Z

   1  C       6.00   -0.040440139    0.000000000    1.264415750
   2  C       6.00   -0.040440139    0.000000000   -1.264415750
   3  H       1.00    0.253223301    1.728910431    2.333433819
   4  H       1.00    0.253223301   -1.728910431    2.333433819
   5  H       1.00    0.253223301    1.728910431   -2.333433819
   6  H       1.00    0.253223301   -1.728910431   -2.333433819

 Bond lengths in Bohr (Angstrom)

 1-2  2.528831500  1-3  2.053818182  1-4  2.053818182  2-5  2.053818182  2-6  2.053818182
     ( 1.338200000)     ( 1.086833778)     ( 1.086833778)     ( 1.086833778)     ( 1.086833778)

 Bond angles

  1-2-5  121.36598287   1-2-6  121.36598287   2-1-3  121.36598287   2-1-4  121.36598287

  3-1-4  114.66202196   5-2-6  114.66202196

 NUCLEAR CHARGE:                   16
 NUMBER OF PRIMITIVE AOS:          72
 NUMBER OF SYMMETRY AOS:           70
 NUMBER OF CONTRACTIONS:           36   (   36A   )
 NUMBER OF CORE ORBITALS:           2   (    2A   )
 NUMBER OF VALENCE ORBITALS:       12   (   12A   )


 NUCLEAR REPULSION ENERGY   33.26893789


 Eigenvalues of metric

         1 0.827E-02 0.199E-01 0.381E-01 0.457E-01 0.750E-01 0.192E+00 0.213E+00 0.226E+00


 Contracted 2-electron integrals neglected if value below      1.0D-11
 AO integral compression algorithm  1   Integral accuracy      1.0D-11

     1.049 MB (compressed) written to integral file ( 51.0%)


 NUMBER OF SORTED TWO-ELECTRON INTEGRALS:     222111.     BUFFER LENGTH:  32768
 NUMBER OF SEGMENTS:   1  SEGMENT LENGTH:     222111      RECORD LENGTH: 524288

 Memory used in sort:       0.78 MW

 SORT1 READ      284735. AND WROTE      157595. INTEGRALS IN      1 RECORDS. CPU TIME:     0.00 SEC, REAL TIME:     0.01 SEC
 SORT2 READ      157595. AND WROTE      222111. INTEGRALS IN      4 RECORDS. CPU TIME:     0.02 SEC, REAL TIME:     0.02 SEC

 FILE SIZES:   FILE 1:    31.1 MBYTE,  FILE 4:     4.2 MBYTE,   TOTAL:     35.4 MBYTE

 OPERATOR DM      FOR CENTER  0  COORDINATES:    0.000000    0.000000    0.000000


 **********************************************************************************************************************************
 DATASETS  * FILE   NREC   LENGTH (MB)   RECORD NAMES
              1      19       30.88       500      610      700      900      950      970     1000      129      960     1100   
                                          VAR    BASINP    GEOM    SYMINP    ZMAT    AOBASIS   BASIS     P2S    ABASIS      S 
                                         1400     1410     1200     1210     1080     1600     1650     1300     1700   
                                           T        V       H0       H01     AOSYM     SMH    MOLCAS    ERIS     OPER   

 PROGRAMS   *        TOTAL       INT
 CPU TIMES  *         0.35      0.26
 REAL TIME  *         0.55 SEC
 DISK USED  *        35.71 MB
 **********************************************************************************************************************************


 PROGRAM * RHF-SCF (CLOSED SHELL)       Authors: W. Meyer, H.-J. Werner


 NUMBER OF ELECTRONS:       8+    8-    SPACE SYMMETRY=1    SPIN SYMMETRY: Singlet 
 CONVERGENCE THRESHOLDS:    1.00E-05 (Density)    1.00E-07 (Energy)
 MAX. NUMBER OF ITERATIONS:       60
 INTERPOLATION TYPE:            DIIS
 INTERPOLATION STEPS:              2 (START)      1 (STEP)
 LEVEL SHIFTS:                  0.00 (CLOSED)  0.00 (OPEN) 



 Orbital guess generated from atomic densities. Full valence occupancy:    8

 Molecular orbital dump at record        2100.2

 Initial occupancy:   8

 ITERATION    DDIFF          GRAD             ENERGY        2-EL.EN.            DIPOLE MOMENTS         DIIS   ORB.
    1      0.000D+00      0.000D+00       -77.99985943    118.462242    0.19395    0.00000   -0.00000    0    start
    2      0.000D+00      0.852D-02       -78.02149902    116.622895    0.15852   -0.00000   -0.00000    1    diag
    3      0.813D-02      0.292D-02       -78.02364110    117.258724    0.17479   -0.00000    0.00000    2    diag
    4      0.264D-02      0.716D-03       -78.02385523    117.158017    0.17292   -0.00000    0.00000    3    diag
    5      0.107D-02      0.708D-04       -78.02385758    117.161075    0.17328   -0.00000   -0.00000    4    diag
    6      0.150D-03      0.924D-05       -78.02385762    117.160609    0.17322   -0.00000   -0.00000    5    diag
    7      0.177D-04      0.147D-05       -78.02385763    117.160614    0.17323   -0.00000   -0.00000    6    diag
    8      0.293D-05      0.242D-06       -78.02385763    117.160609    0.17322   -0.00000   -0.00000    0    orth

 Final occupancy:   8

 !RHF STATE  1.1 Energy               -78.023857625840
 Nuclear energy                        33.26893789
 One-electron energy                 -169.87309994
 Two-electron energy                   58.58030443
 Virial quotient                       -1.00082887
 !RHF STATE  1.1 Dipole moment          0.17322359    -0.00000000    -0.00000000
 Dipole moment /Debye                   0.44026162    -0.00000000    -0.00000000

 ELECTRON ORBITALS
 =================

  Orbital  Occupation    Energy     Coefficients
    1.1     2.00000   -11.22859     1 1s    0.70419     2 1s    0.70419
    2.1     2.00000   -11.22699     1 1s    0.70455     2 1s   -0.70455
    3.1     2.00000    -1.02682     1 1s    0.30169     2 1s    0.30169
    4.1     2.00000    -0.78858     1 1s    0.24677
    5.1     2.00000    -0.63296     1 2py   0.32061     2 2py   0.32061
    6.1     2.00000    -0.58340     1 2pz   0.40240     2 2pz  -0.40240
    7.1     2.00000    -0.49879     1 2py   0.30341     2 2py  -0.30341
    8.1     2.00000    -0.37011     1 2px   0.36891     1 2px   0.30555     2 2px   0.36891     2 2px   0.30555
    9.1     0.00000     0.17002     1 2px   0.33529     1 2px   0.69442     2 2px  -0.33529     2 2px  -0.69442
   10.1     0.00000     0.26438     1 1s   -1.46783     1 2pz  -0.63450     2 1s   -1.46783     2 2pz   0.63450     3 1s    1.02944
                                    4 1s    1.02944     5 1s    1.02944     6 1s    1.02944
   11.1     0.00000     0.28827     1 2py  -0.25119     1 2py  -0.78860     2 2py  -0.25119     2 2py  -0.78860     3 1s    1.07049
                                    4 1s   -1.07049     5 1s    1.07049     6 1s   -1.07049
   12.1     0.00000     0.30860     1 1s    1.94508     1 2px   0.29531     2 1s   -1.94508     2 2px  -0.29531     3 1s   -1.06339
                                    4 1s   -1.06339     5 1s    1.06339     6 1s    1.06339
   13.1     0.00000     0.39362     1 2py   0.25558     1 2py   1.79959     2 2py  -0.25558     2 2py  -1.79959     3 1s   -1.57092
                                    4 1s    1.57092     5 1s    1.57092     6 1s   -1.57092
   14.1     0.00000     0.49272     1 1s   -3.00150     1 2pz   2.94353     2 1s    3.00150     2 2pz   2.94353     3 1s   -0.59079
                                    4 1s   -0.59079     5 1s    0.59079     6 1s    0.59079
   15.1     0.00000     0.66922     1 2pz  -0.55758     1 2pz   1.03107     2 2pz   0.55758     2 2pz  -1.03107
   16.1     0.00000     0.76153     1 2py  -0.40904     1 2py   0.74891     2 2py  -0.40904     2 2py   0.74891     3 1s   -0.38452
                                    4 1s    0.38452     5 1s   -0.38452     6 1s    0.38452
   17.1     0.00000     0.77643     1 2px  -0.73611     1 2px   0.63876     2 2px  -0.73611     2 2px   0.63876
   18.1     0.00000     0.87408     1 1s   -0.87369     1 1s    1.45261     1 2pz   0.35151     2 1s   -0.87369     2 1s    1.45261
                                    2 2pz  -0.35151     3 1s   -0.40541     4 1s   -0.40541     5 1s   -0.40541     6 1s   -0.40541
   19.1     0.00000     0.88907     1 2px  -0.81166     1 2px   1.09213     2 2px   0.81166     2 2px  -1.09213
   20.1     0.00000     0.96891     1 1s   -0.72392     1 2pz   0.62264     1 2pz  -0.56480     2 1s    0.72392     2 2pz   0.62264
                                    2 2pz  -0.56480     3 1s    0.37879     4 1s    0.37879     5 1s   -0.37879     6 1s   -0.37879
   21.1     0.00000     1.10217     1 2py  -0.67962     1 2py   1.06743     2 2py  -0.67962     2 2py   1.06743     3 1s    0.38582
                                    3 1s   -1.03757     4 1s   -0.38582     4 1s    1.03757     5 1s    0.38582     5 1s   -1.03757
                                    6 1s   -0.38582     6 1s    1.03757
   22.1     0.00000     1.13652     1 2py  -0.90822     1 2py   2.98569     2 2py   0.90822     2 2py  -2.98569     3 1s   -1.45077
                                    4 1s    1.45077     5 1s    1.45077     6 1s   -1.45077
   23.1     0.00000     1.20588     1 1s    1.03999     1 1s   -1.73123     1 2pz   0.35977     1 2pz  -0.49448     2 1s    1.03999
                                    2 1s   -1.73123     2 2pz  -0.35977     2 2pz   0.49448     3 1s   -0.43367     3 1s    0.86680
                                    4 1s   -0.43367     4 1s    0.86680     5 1s   -0.43367     5 1s    0.86680     6 1s   -0.43367
                                    6 1s    0.86680
   24.1     0.00000     1.21523     1 1s   -0.56866     1 1s    0.65284     1 2pz  -0.60388     1 2pz   1.14795     2 1s    0.56866
                                    2 1s   -0.65284     2 2pz  -0.60388     2 2pz   1.14795     3 1s    0.46923     3 1s   -0.97065
                                    4 1s    0.46923     4 1s   -0.97065     5 1s   -0.46923     5 1s    0.97065     6 1s   -0.46923
                                    6 1s    0.97065
   25.1     0.00000     1.34454     1 1s   -1.58305     1 1s    5.39951     1 2pz   0.26433     1 2pz  -1.93082     2 1s    1.58305
                                    2 1s   -5.39951     2 2pz   0.26433     2 2pz  -1.93082     3 1s   -0.31229     4 1s   -0.31229
                                    5 1s    0.31229     6 1s    0.31229
   26.1     0.00000     1.37368     1 2py   1.82329     2 2py  -1.82329     3 1s   -0.67521     3 1s   -0.30038     4 1s    0.67521
                                    4 1s    0.30038     5 1s    0.67521     5 1s    0.30038     6 1s   -0.67521     6 1s   -0.30038
   27.1     0.00000     1.74007     1 3d1+  0.60725     2 3d1+ -0.60725
   28.1     0.00000     1.81789     1 3d2-  0.65400     2 3d2-  0.65400
   29.1     0.00000     2.18566     1 1s   -0.60883     1 3d2+  0.69758     2 1s   -0.60883     2 3d2+  0.69758     3 1s    0.36456
                                    4 1s    0.36456     5 1s    0.36456     6 1s    0.36456
   30.1     0.00000     2.20907     1 2py   0.86463     1 3d2-  0.71830     2 2py  -0.86463     2 3d2- -0.71830     3 1s   -0.29771
                                    4 1s    0.29771     5 1s    0.29771     6 1s   -0.29771
   31.1     0.00000     2.32930     1 2py   0.25746     1 3d1-  0.66338     2 2py   0.25746     2 3d1- -0.66338     3 1s   -0.50790
                                    4 1s    0.50790     5 1s   -0.50790     6 1s    0.50790
   32.1     0.00000     2.40921     1 1s   -0.50606     1 2pz   0.28519     1 2pz  -0.44377     1 3d0   0.69110     2 1s   -0.50606
                                    2 2pz  -0.28519     2 2pz   0.44377     2 3d0   0.69110
   33.1     0.00000     2.56509     1 1s    0.28883     1 1s   -1.28644     1 3d1+  0.31067     1 3d2+  0.73577     2 1s   -0.28883
                                    2 1s    1.28644     2 3d1+  0.31067     2 3d2+ -0.73577     3 1s    0.38240     4 1s    0.38240
                                    5 1s   -0.38240     6 1s   -0.38240
   34.1     0.00000     2.73527     1 1s    0.58993     1 3d1+  0.84952     1 3d2+ -0.28705     2 1s   -0.58993     2 3d1+  0.84952
                                    2 3d2+  0.28705
   35.1     0.00000     3.04216     1 2py   0.46372     1 3d1-  0.94809     2 2py  -0.46372     2 3d1-  0.94809     3 1s   -0.46259
                                    4 1s    0.46259     5 1s    0.46259     6 1s   -0.46259
   36.1     0.00000     3.06241     1 1s    0.32030     1 1s    2.00198     1 2pz  -0.79714     1 2pz  -1.17096     1 3d0   1.11196
                                    2 1s   -0.32030     2 1s   -2.00198     2 2pz  -0.79714     2 2pz  -1.17096     2 3d0  -1.11196


 HOMO      8.1    -0.370115 =     -10.0713eV
 LUMO      9.1     0.170015 =       4.6263eV
 LUMO-HOMO         0.540130 =      14.6977eV


 **********************************************************************************************************************************
 DATASETS  * FILE   NREC   LENGTH (MB)   RECORD NAMES
              1      19       30.88       500      610      700      900      950      970     1000      129      960     1100   
                                          VAR    BASINP    GEOM    SYMINP    ZMAT    AOBASIS   BASIS     P2S    ABASIS      S 
                                         1400     1410     1200     1210     1080     1600     1650     1300     1700   
                                           T        V       H0       H01     AOSYM     SMH    MOLCAS    ERIS     OPER   

              2       4        2.86       700     1000      520     2100   
                                         GEOM     BASIS   MCVARS     RHF  

 PROGRAMS   *        TOTAL    HF-SCF       INT
 CPU TIMES  *         0.45      0.10      0.26
 REAL TIME  *         0.68 SEC
 DISK USED  *        35.71 MB
 **********************************************************************************************************************************


 PROGRAM * MULTI (Direct Multiconfiguration SCF)       Authors: P.J. Knowles, H.-J. Werner (1984)


 Number of closed-shell orbitals:   7 (   7 )
 Number of active  orbitals:        2 (   2 )
 Number of external orbitals:      27 (  27 )

 State symmetry 1

 Number of electrons:     2    Spin symmetry=Singlet   Space symmetry=1
 Number of states:        3
 Number of CSFs:          3   (4 determinants, 4 intermediate states)

 Molecular orbitals read from record     2100.2  Type=RHF/CANONICAL (state 1.1)

 Wavefunction dump at record             2140.2

 Convergence thresholds  0.10E-01 (gradient)  0.10E-05 (energy)  0.10E-02 (step length)

 Weight factors for state symmetry  1:    0.33333   0.33333   0.33333

 Number of orbital rotations:      257   (    14 Core/Active    189 Core/Virtual   0 Active/Active     54 Active/Virtual)
 Total number of variables:        269

 Micro-Iterations solved by the two-step solver

 ITER. MIC  NCI  NEG     ENERGY(VAR)     ENERGY(PROJ)   ENERGY CHANGE     GRAD(0)  GRAD(ORB)   GRAD(CI)     STEP       TIME

   1    6    5    0     -77.72833652     -77.73597771   -0.00764119    0.13755197 0.00348486 0.00000000  0.10D+00      0.10
   2    4    4    0     -77.73570511     -77.73572706   -0.00002196    0.00763001 0.00000348 0.00000000  0.41D-02      0.17
   3    3    4    0     -77.73572708     -77.73572708   -0.00000000    0.00001240 0.00000000 0.00000000  0.14D-04      0.22

 ** WVFN ****  CONVERGENCE REACHED, FINAL GRADIENT:  0.15D-09



 Results for state 1.1
 =====================

 !MCSCF STATE  1.1 Energy             -78.040919540686
 Nuclear energy                        33.26893789
 Kinetic energy                        78.03911517
 One electron energy                 -170.01171028
 Two electron energy                   58.70185285
 Virial ratio                           2.00002312

 !MCSCF STATE  1.1 Dipole moment        0.17334805     0.00000000    -0.00000000
 Dipole moment /Debye                   0.44057794     0.00000000    -0.00000000

 Results for state 2.1
 =====================

 !MCSCF STATE  2.1 Energy             -77.674385841921
 Nuclear energy                        33.26893789
 Kinetic energy                        78.22012536
 One electron energy                 -169.43137811
 Two electron energy                   58.48805438
 Virial ratio                           1.99302303

 !MCSCF STATE  2.1 Dipole moment        0.25037470    -0.00000000     0.00000000
 Dipole moment /Debye                   0.63634733    -0.00000000     0.00000000

 Results for state 3.1
 =====================

 !MCSCF STATE  3.1 Energy             -77.491875870595
 Nuclear energy                        33.26893789
 Kinetic energy                        78.40113555
 One electron energy                 -168.85104594
 Two electron energy                   58.09023218
 Virial ratio                           1.98840247

 !MCSCF STATE  3.1 Dipole moment        0.32740135    -0.00000000     0.00000000
 Dipole moment /Debye                   0.83211672    -0.00000000     0.00000000

 State-averaged charge density matrix saved on record  2140.2 (density set 1)

 !MCSCF expec         <1.1|DMX|1.1>     0.173348050818 au =     0.440577938997 Debye
 !MCSCF expec         <2.1|DMX|2.1>     0.250374699539 au =     0.636347328853 Debye
 !MCSCF trans         <3.1|DMX|1.1>    -0.032690986580 au =    -0.083086757672 Debye
 !MCSCF expec         <3.1|DMX|3.1>     0.327401348259 au =     0.832116718709 Debye

 !MCSCF trans         <2.1|DMZ|1.1>    -1.478812492565 au =    -3.758520254854 Debye
 !MCSCF trans         <3.1|DMZ|2.1>    -2.234111503998 au =    -5.678173116332 Debye


 NATURAL ORBITALS (state averaged)
 =================================

  Orbital  Occupation    Energy     Coefficients
    1.1     2.00000   -11.24473     1 1s    0.70421     2 1s    0.70421
    2.1     2.00000   -11.24341     1 1s    0.70451     2 1s   -0.70451
    3.1     2.00000    -1.04231     1 1s    0.30982     2 1s    0.30982
    4.1     2.00000    -0.79695     1 1s    0.29431     2 1s   -0.29431
    5.1     2.00000    -0.64630     1 2py   0.32646     2 2py   0.32646
    6.1     2.00000    -0.59826     1 2pz   0.39976     2 2pz  -0.39976
    7.1     2.00000    -0.50606     1 2py   0.31012     2 2py  -0.31012
    8.1     1.00000     0.02647     1 2px   0.37592     1 2px   0.66182     2 2px  -0.37592     2 2px  -0.66182
    9.1     1.00000    -0.22623     1 2px   0.35040     1 2px   0.31658     2 2px   0.35040     2 2px   0.31658
   10.1    -0.00000     0.26081     1 1s   -1.46381     1 2pz  -0.63967     2 1s   -1.46381     2 2pz   0.63967     3 1s    1.02809
                                    4 1s    1.02809     5 1s    1.02809     6 1s    1.02809
   11.1    -0.00000     0.27959     1 2py  -0.25067     1 2py  -0.77786     2 2py  -0.25067     2 2py  -0.77786     3 1s    1.06188
                                    4 1s   -1.06188     5 1s    1.06188     6 1s   -1.06188
   12.1    -0.00000     0.30429     1 1s    1.96279     1 2px   0.26487     2 1s   -1.96279     2 2px  -0.26487     3 1s   -1.06165
                                    4 1s   -1.06165     5 1s    1.06165     6 1s    1.06165
   13.1    -0.00000     0.38853     1 2py   0.25969     1 2py   1.78443     2 2py  -0.25969     2 2py  -1.78443     3 1s   -1.56366
                                    4 1s    1.56366     5 1s    1.56366     6 1s   -1.56366
   14.1    -0.00000     0.48892     1 1s   -2.97532     1 2pz   2.92646     2 1s    2.97532     2 2pz   2.92646     3 1s   -0.59937
                                    4 1s   -0.59937     5 1s    0.59937     6 1s    0.59937
   15.1    -0.00000     0.65821     1 1s    0.26598     1 2pz  -0.54891     1 2pz   1.00958     2 1s    0.26598     2 2pz   0.54891
                                    2 2pz  -1.00958
   16.1    -0.00000     0.75153     1 2py  -0.41861     1 2py   0.75661     2 2py  -0.41861     2 2py   0.75661     3 1s   -0.38010
                                    4 1s    0.38010     5 1s   -0.38010     6 1s    0.38010
   17.1    -0.00000     0.77117     1 2px  -0.74489     1 2px   0.64092     2 2px  -0.74489     2 2px   0.64092
   18.1    -0.00000     0.86964     1 1s   -0.87307     1 1s    1.47617     1 2pz   0.39332     2 1s   -0.87307     2 1s    1.47617
                                    2 2pz  -0.39332     3 1s   -0.40603     4 1s   -0.40603     5 1s   -0.40603     6 1s   -0.40603
   19.1    -0.00000     0.87206     1 2px  -0.79663     1 2px   1.12984     2 2px   0.79663     2 2px  -1.12984
   20.1    -0.00000     0.95000     1 1s   -0.56458     1 2pz   0.62695     1 2pz  -0.64121     2 1s    0.56458     2 2pz   0.62695
                                    2 2pz  -0.64121     3 1s    0.37836     4 1s    0.37836     5 1s   -0.37836     6 1s   -0.37836
   21.1    -0.00000     1.08704     1 2py  -0.66830     1 2py   1.06952     2 2py  -0.66830     2 2py   1.06952     3 1s    0.38655
                                    3 1s   -1.04657     4 1s   -0.38655     4 1s    1.04657     5 1s    0.38655     5 1s   -1.04657
                                    6 1s   -0.38655     6 1s    1.04657
   22.1    -0.00000     1.12457     1 2py  -0.90569     1 2py   2.98260     2 2py   0.90569     2 2py  -2.98260     3 1s   -1.45758
                                    4 1s    1.45758     5 1s    1.45758     6 1s   -1.45758
   23.1    -0.00000     1.20136     1 1s    1.03525     1 1s   -1.72765     1 2pz   0.36423     1 2pz  -0.50003     2 1s    1.03525
                                    2 1s   -1.72765     2 2pz  -0.36423     2 2pz   0.50003     3 1s   -0.43434     3 1s    0.86672
                                    4 1s   -0.43434     4 1s    0.86672     5 1s   -0.43434     5 1s    0.86672     6 1s   -0.43434
                                    6 1s    0.86672
   24.1    -0.00000     1.21187     1 1s   -0.52871     1 1s    0.52087     1 2pz  -0.61599     1 2pz   1.19970     2 1s    0.52871
                                    2 1s   -0.52087     2 2pz  -0.61599     2 2pz   1.19970     3 1s    0.47097     3 1s   -0.96291
                                    4 1s    0.47097     4 1s   -0.96291     5 1s   -0.47097     5 1s    0.96291     6 1s   -0.47097
                                    6 1s    0.96291
   25.1    -0.00000     1.32462     1 1s   -1.59864     1 1s    5.42683     1 2pz  -1.89763     2 1s    1.59864     2 1s   -5.42683
                                    2 2pz  -1.89763     3 1s   -0.33964     4 1s   -0.33964     5 1s    0.33964     6 1s    0.33964
   26.1    -0.00000     1.36557     1 2py   1.83630     2 2py  -1.83630     3 1s   -0.67353     3 1s   -0.30567     4 1s    0.67353
                                    4 1s    0.30567     5 1s    0.67353     5 1s    0.30567     6 1s   -0.67353     6 1s   -0.30567
   27.1    -0.00000     1.71541     1 3d1+  0.60742     2 3d1+ -0.60742
   28.1    -0.00000     1.80391     1 3d2-  0.65402     2 3d2-  0.65402
   29.1    -0.00000     2.17040     1 1s   -0.60459     1 3d2+  0.69768     2 1s   -0.60459     2 3d2+  0.69768     3 1s    0.36654
                                    4 1s    0.36654     5 1s    0.36654     6 1s    0.36654
   30.1    -0.00000     2.18621     1 2py   0.87611     1 3d2-  0.71787     2 2py  -0.87611     2 3d2- -0.71787     3 1s   -0.30235
                                    4 1s    0.30235     5 1s    0.30235     6 1s   -0.30235
   31.1    -0.00000     2.31311     1 2py   0.26304     1 3d1-  0.66186     2 2py   0.26304     2 3d1- -0.66186     3 1s   -0.51094
                                    4 1s    0.51094     5 1s   -0.51094     6 1s    0.51094
   32.1    -0.00000     2.38887     1 1s   -0.50454     1 2pz   0.29090     1 2pz  -0.44632     1 3d0   0.69101     2 1s   -0.50454
                                    2 2pz  -0.29090     2 2pz   0.44632     2 3d0   0.69101
   33.1    -0.00000     2.54692     1 1s    0.29059     1 1s   -1.29993     1 3d1+  0.30951     1 3d2+  0.73547     2 1s   -0.29059
                                    2 1s    1.29993     2 3d1+  0.30951     2 3d2+ -0.73547     3 1s    0.38533     4 1s    0.38533
                                    5 1s   -0.38533     6 1s   -0.38533
   34.1    -0.00000     2.71218     1 1s    0.57229     1 3d1+  0.85035     1 3d2+ -0.28567     2 1s   -0.57229     2 3d1+  0.85035
                                    2 3d2+  0.28567
   35.1    -0.00000     3.02952     1 2py   0.46458     1 3d1-  0.94767     2 2py  -0.46458     2 3d1-  0.94767     3 1s   -0.46476
                                    4 1s    0.46476     5 1s    0.46476     6 1s   -0.46476
   36.1    -0.00000     3.04373     1 1s    0.31260     1 1s    2.02929     1 2pz  -0.78986     1 2pz  -1.18488     1 3d0   1.11363
                                    2 1s   -0.31260     2 1s   -2.02929     2 2pz  -0.78986     2 2pz  -1.18488     2 3d0  -1.11363


 Natural orbital dump (state averaged) at molpro section  2140.2    (Orbital set 2)



 **********************************************************************************************************************************
 DATASETS  * FILE   NREC   LENGTH (MB)   RECORD NAMES
              1      20       31.61       500      610      700      900      950      970     1000      129      960     1100   
                                          VAR    BASINP    GEOM    SYMINP    ZMAT    AOBASIS   BASIS     P2S    ABASIS      S 
                                         1400     1410     1200     1210     1080     1600     1650     1300     1700     1380   
                                           T        V       H0       H01     AOSYM     SMH    MOLCAS    ERIS     OPER     JKOP   

              2       5        5.42       700     1000      520     2100     2140   
                                         GEOM     BASIS   MCVARS     RHF     MCSCF   

 PROGRAMS   *        TOTAL     MULTI    HF-SCF       INT
 CPU TIMES  *         0.72      0.27      0.10      0.26
 REAL TIME  *         0.97 SEC
 DISK USED  *        38.79 MB
 **********************************************************************************************************************************
 Molecular orbitals read from record     2140.2  Type=MCSCF/NATURAL (state averaged)
 Occupation numbers read from record     2140.2  Type=MCSCF/NATURAL (state averaged)
 Orbital energies read from record       2140.2  Type=MCSCF/NATURAL (state averaged)
 Redundancy group numbers read from rec  2140.2  Type=MCSCF/NATURAL (state averaged)

 MULTI/6-31G* energy=    -77.491875870595

           MULTI          HF-SCF
    -77.49187587    -78.02385763
 **********************************************************************************************************************************
 Molpro calculation terminated
