
 Primary working directories    : /scratch.local/johan406.molpro_temp/molpro.Tbr6UAdHmP
 Secondary working directories  : /scratch.local/johan406.molpro_temp/molpro.Tbr6UAdHmP
 Wavefunction directory         : /home/goodpast/johan406/wfu/
 Main file repository           : /scratch.local/johan406.molpro_temp/molpro.Tbr6UAdHmP/

 id        : roweumn

 Nodes     nprocs
 cn0117       1

 Using customized tuning parameters: mindgm=1; mindgv=20; mindgc=4; mindgr=1; noblas=0; minvec=7
 default implementation of scratch files=df  


 Variables initialized (934), CPU time= 0.01 sec
                                                                                 !leave this line blank
 
 gprint, orbitals=30
 memory, 125., m
 symmetry, nosym
 nelect=16
 basis=6-31g*
 
 geometry={
 C 0.0162 0.0 0.6691
 C -0.0162 0.0 -0.6691
 H -0.0529 0.9149 1.2348
 H -0.0529 -0.9149 1.2348
 H 0.0529 0.9149 -1.2348
 H 0.0529 -0.9149 -1.2348
 }
 
 hf
 {multi,
 closed 7
 occ 9
 wf,spin=0;STATE,3
 }
 
 Commands  initialized (763), CPU time= 0.01 sec, 617 directives.
 Default parameters read. Elapsed time= 0.09 sec

 Checking input...
 Passed
1


                                         ***  PROGRAM SYSTEM MOLPRO  ***
                                       Copyright, TTI GmbH Stuttgart, 2015
                                    Version 2019.2 linked Oct 25 2019 22:50:27


 **********************************************************************************************************************************
 LABEL *                                                                                 
  64 bit serial version                                                                  DATE: 26-Jan-23          TIME: 19:24:47  
 **********************************************************************************************************************************

 SHA1:             8dbd9ae1082e4ce945b0f27595c9eb2d4aa09004
 **********************************************************************************************************************************


 Variable memory set to  125000000 words,  buffer space 

 SETTING NELECT         =        16.00000000                                  
 SETTING BASIS          =    6-31G*
 ZSYMEL=NOSYM


Geometry recognized as XYZ



 Recomputing integrals since basis changed


 Using spherical harmonics

 Library entry C      S 6-31G                selected for orbital group  1
 Library entry C      P 6-31G                selected for orbital group  1
 Library entry C      D 6-31G*               selected for orbital group  1
 Library entry H      S 6-31G                selected for orbital group  2


 PROGRAM * SEWARD (Integral evaluation for generally contracted gaussian basis sets)     Author: Roland Lindh, 1990

 Geometry written to block  1 of record 700


 Point group  C1  



 ATOMIC COORDINATES

 NR  ATOM    CHARGE       X              Y              Z

   1  C       6.00    0.030613563    0.000000000    1.264415750
   2  C       6.00   -0.030613563    0.000000000   -1.264415750
   3  H       1.00   -0.099966512    1.728910431    2.333433819
   4  H       1.00   -0.099966512   -1.728910431    2.333433819
   5  H       1.00    0.099966512    1.728910431   -2.333433819
   6  H       1.00    0.099966512   -1.728910431   -2.333433819

 Bond lengths in Bohr (Angstrom)

 1-2  2.529572595  1-3  2.036905022  1-4  2.036905022  2-5  2.036905022  2-6  2.036905022
     ( 1.338592171)     ( 1.077883718)     ( 1.077883718)     ( 1.077883718)     ( 1.077883718)

 Bond angles

  1-2-5  121.54171878   1-2-6  121.54171878   2-1-3  121.54171878   2-1-4  121.54171878

  3-1-4  116.16123107   5-2-6  116.16123107

 NUCLEAR CHARGE:                   16
 NUMBER OF PRIMITIVE AOS:          72
 NUMBER OF SYMMETRY AOS:           70
 NUMBER OF CONTRACTIONS:           36   (   36A   )
 NUMBER OF CORE ORBITALS:           2   (    2A   )
 NUMBER OF VALENCE ORBITALS:       12   (   12A   )


 NUCLEAR REPULSION ENERGY   33.37649775


 Eigenvalues of metric

         1 0.831E-02 0.182E-01 0.375E-01 0.463E-01 0.713E-01 0.193E+00 0.211E+00 0.224E+00


 Contracted 2-electron integrals neglected if value below      1.0D-11
 AO integral compression algorithm  1   Integral accuracy      1.0D-11

     1.311 MB (compressed) written to integral file ( 49.3%)


 NUMBER OF SORTED TWO-ELECTRON INTEGRALS:     222111.     BUFFER LENGTH:  32768
 NUMBER OF SEGMENTS:   1  SEGMENT LENGTH:     222111      RECORD LENGTH: 524288

 Memory used in sort:       0.78 MW

 SORT1 READ      284735. AND WROTE      177301. INTEGRALS IN      1 RECORDS. CPU TIME:     0.00 SEC, REAL TIME:     0.01 SEC
 SORT2 READ      177301. AND WROTE      222111. INTEGRALS IN      5 RECORDS. CPU TIME:     0.02 SEC, REAL TIME:     0.02 SEC

 FILE SIZES:   FILE 1:    31.4 MBYTE,  FILE 4:     4.2 MBYTE,   TOTAL:     35.6 MBYTE

 OPERATOR DM      FOR CENTER  0  COORDINATES:    0.000000    0.000000    0.000000


 **********************************************************************************************************************************
 DATASETS  * FILE   NREC   LENGTH (MB)   RECORD NAMES
              1      19       30.96       500      610      700      900      950      970     1000      129      960     1100   
                                          VAR    BASINP    GEOM    SYMINP    ZMAT    AOBASIS   BASIS     P2S    ABASIS      S 
                                         1400     1410     1200     1210     1080     1600     1650     1300     1700   
                                           T        V       H0       H01     AOSYM     SMH    MOLCAS    ERIS     OPER   

 PROGRAMS   *        TOTAL       INT
 CPU TIMES  *         0.37      0.27
 REAL TIME  *         0.57 SEC
 DISK USED  *        35.97 MB
 **********************************************************************************************************************************


 PROGRAM * RHF-SCF (CLOSED SHELL)       Authors: W. Meyer, H.-J. Werner


 NUMBER OF ELECTRONS:       8+    8-    SPACE SYMMETRY=1    SPIN SYMMETRY: Singlet 
 CONVERGENCE THRESHOLDS:    1.00E-05 (Density)    1.00E-07 (Energy)
 MAX. NUMBER OF ITERATIONS:       60
 INTERPOLATION TYPE:            DIIS
 INTERPOLATION STEPS:              2 (START)      1 (STEP)
 LEVEL SHIFTS:                  0.00 (CLOSED)  0.00 (OPEN) 



 Orbital guess generated from atomic densities. Full valence occupancy:    8

 Molecular orbital dump at record        2100.2

 Initial occupancy:   8

 ITERATION    DDIFF          GRAD             ENERGY        2-EL.EN.            DIPOLE MOMENTS         DIIS   ORB.
    1      0.000D+00      0.000D+00       -78.00512946    118.662271    0.00000    0.00000    0.00000    0    start
    2      0.000D+00      0.857D-02       -78.02704323    116.826892    0.00000    0.00000    0.00000    1    diag
    3      0.819D-02      0.292D-02       -78.02917619    117.457669   -0.00000    0.00000    0.00000    2    diag
    4      0.264D-02      0.716D-03       -78.02938955    117.358287    0.00000    0.00000   -0.00000    3    diag
    5      0.108D-02      0.729D-04       -78.02939223    117.361268   -0.00000    0.00000    0.00000    4    diag
    6      0.162D-03      0.133D-04       -78.02939235    117.360799    0.00000    0.00000    0.00000    5    diag
    7      0.270D-04      0.482D-05       -78.02939237    117.360826   -0.00000   -0.00000   -0.00000    6    diag
    8      0.126D-04      0.102D-05       -78.02939237    117.360819   -0.00000    0.00000   -0.00000    7    diag
    9      0.269D-05      0.980D-07       -78.02939237    117.360824    0.00000    0.00000   -0.00000    0    orth

 Final occupancy:   8

 !RHF STATE  1.1 Energy               -78.029392374896
 Nuclear energy                        33.37649775
 One-electron energy                 -170.08630189
 Two-electron energy                   58.68041177
 Virial quotient                       -1.00023134
 !RHF STATE  1.1 Dipole moment          0.00000000     0.00000000    -0.00000000
 Dipole moment /Debye                   0.00000000     0.00000000    -0.00000000

 ELECTRON ORBITALS
 =================

  Orbital  Occupation    Energy     Coefficients
    1.1     2.00000   -11.22586     1 1s    0.70419     2 1s    0.70419
    2.1     2.00000   -11.22426     1 1s    0.70455     2 1s   -0.70455
    3.1     2.00000    -1.02696     1 1s    0.30205     2 1s    0.30205
    4.1     2.00000    -0.79167     1 1s    0.24278
    5.1     2.00000    -0.63757     1 2py   0.32153     2 2py   0.32153
    6.1     2.00000    -0.58223     1 2pz   0.40696     2 2pz  -0.40696
    7.1     2.00000    -0.50442     1 2py   0.30513     2 2py  -0.30513
    8.1     2.00000    -0.36978     1 2px   0.37264     1 2px   0.30763     2 2px   0.37264     2 2px   0.30763
    9.1     0.00000     0.17640     1 2px   0.34049     1 2px   0.72303     2 2px  -0.34049     2 2px  -0.72303
   10.1     0.00000     0.26658     1 1s   -1.48820     1 2pz  -0.64499     2 1s   -1.48820     2 2pz   0.64499     3 1s    1.03957
                                    4 1s    1.03957     5 1s    1.03957     6 1s    1.03957
   11.1     0.00000     0.29417     1 2py  -0.25247     1 2py  -0.80687     2 2py  -0.25247     2 2py  -0.80687     3 1s    1.09842
                                    4 1s   -1.09842     5 1s    1.09842     6 1s   -1.09842
   12.1     0.00000     0.30884     1 1s    1.93485     2 1s   -1.93485     3 1s   -1.07468     4 1s   -1.07468     5 1s    1.07468
                                    6 1s    1.07468
   13.1     0.00000     0.38999     1 2py  -1.86349     2 2py   1.86349     3 1s    1.61558     4 1s   -1.61558     5 1s   -1.61558
                                    6 1s    1.61558
   14.1     0.00000     0.49018     1 1s   -2.98893     1 2pz   2.94270     2 1s    2.98893     2 2pz   2.94270     3 1s   -0.58343
                                    4 1s   -0.58343     5 1s    0.58343     6 1s    0.58343
   15.1     0.00000     0.66927     1 2pz  -0.55650     1 2pz   1.03718     2 2pz   0.55650     2 2pz  -1.03718
   16.1     0.00000     0.76270     1 2py  -0.39934     1 2py   0.76837     2 2py  -0.39934     2 2py   0.76837     3 1s   -0.38695
                                    4 1s    0.38695     5 1s   -0.38695     6 1s    0.38695
   17.1     0.00000     0.77792     1 2px  -0.73982     1 2px   0.64058     2 2px  -0.73982     2 2px   0.64058
   18.1     0.00000     0.86785     1 1s   -0.89119     1 1s    1.47368     1 2pz   0.34473     2 1s   -0.89119     2 1s    1.47368
                                    2 2pz  -0.34473     3 1s   -0.39617     4 1s   -0.39617     5 1s   -0.39617     6 1s   -0.39617
   19.1     0.00000     0.88996     1 2px  -0.81698     1 2px   1.07839     2 2px   0.81698     2 2px  -1.07839
   20.1     0.00000     0.95646     1 1s   -0.84980     1 2pz   0.60567     1 2pz  -0.47462     2 1s    0.84980     2 2pz   0.60567
                                    2 2pz  -0.47462     3 1s    0.38336     4 1s    0.38336     5 1s   -0.38336     6 1s   -0.38336
   21.1     0.00000     1.11494     1 2py  -0.68924     1 2py   1.09994     2 2py  -0.68924     2 2py   1.09994     3 1s    0.38210
                                    3 1s   -1.06259     4 1s   -0.38210     4 1s    1.06259     5 1s    0.38210     5 1s   -1.06259
                                    6 1s   -0.38210     6 1s    1.06259
   22.1     0.00000     1.14652     1 2py   0.91827     1 2py  -2.99434     2 2py  -0.91827     2 2py   2.99434     3 1s    1.48833
                                    4 1s   -1.48833     5 1s   -1.48833     6 1s    1.48833
   23.1     0.00000     1.21515     1 1s    1.03483     1 1s   -1.72488     1 2pz   0.36546     1 2pz  -0.49573     2 1s    1.03483
                                    2 1s   -1.72488     2 2pz  -0.36546     2 2pz   0.49573     3 1s   -0.44028     3 1s    0.86670
                                    4 1s   -0.44028     4 1s    0.86670     5 1s   -0.44028     5 1s    0.86670     6 1s   -0.44028
                                    6 1s    0.86670
   24.1     0.00000     1.22012     1 1s   -0.52559     1 1s    0.49566     1 2pz  -0.62467     1 2pz   1.23105     2 1s    0.52559
                                    2 1s   -0.49566     2 2pz  -0.62467     2 2pz   1.23105     3 1s    0.46917     3 1s   -0.96880
                                    4 1s    0.46917     4 1s   -0.96880     5 1s   -0.46917     5 1s    0.96880     6 1s   -0.46917
                                    6 1s    0.96880
   25.1     0.00000     1.33901     1 1s   -1.59321     1 1s    5.39104     1 2pz   0.25953     1 2pz  -1.91209     2 1s    1.59321
                                    2 1s   -5.39104     2 2pz   0.25953     2 2pz  -1.91209     3 1s   -0.33424     4 1s   -0.33424
                                    5 1s    0.33424     6 1s    0.33424
   26.1     0.00000     1.42653     1 2py   2.08353     2 2py  -2.08353     3 1s   -0.67609     3 1s   -0.44623     4 1s    0.67609
                                    4 1s    0.44623     5 1s    0.67609     5 1s    0.44623     6 1s   -0.67609     6 1s   -0.44623
   27.1     0.00000     1.74135     1 3d1+  0.61780     2 3d1+ -0.61780
   28.1     0.00000     1.86854     1 2py  -0.98629     1 3d2-  0.66705     2 2py   0.98629     2 3d2-  0.66705     3 1s    0.35079
                                    4 1s   -0.35079     5 1s   -0.35079     6 1s    0.35079
   29.1     0.00000     2.10673     1 3d2-  0.68742     2 3d2- -0.68742
   30.1     0.00000     2.20039     1 1s   -0.61451     1 3d2+  0.71080     2 1s   -0.61451     2 3d2+  0.71080     3 1s    0.37049
                                    4 1s    0.37049     5 1s    0.37049     6 1s    0.37049
   31.1     0.00000     2.35501     1 2py   0.25983     1 3d2- -0.26804     1 3d1-  0.65356     2 2py   0.25983     2 3d2-  0.26804
                                    2 3d1- -0.65356     3 1s   -0.50093     4 1s    0.50093     5 1s   -0.50093     6 1s    0.50093
   32.1     0.00000     2.40768     1 1s   -0.50756     1 2pz   0.28265     1 2pz  -0.44563     1 3d0   0.69072     2 1s   -0.50756
                                    2 2pz  -0.28265     2 2pz   0.44563     2 3d0   0.69072
   33.1     0.00000     2.61831     1 1s    0.29419     1 1s   -1.37128     1 2pz   0.28389     1 3d2+  0.79652     2 1s   -0.29419
                                    2 1s    1.37128     2 2pz   0.28389     2 3d2+ -0.79652     3 1s    0.44260     4 1s    0.44260
                                    5 1s   -0.44260     6 1s   -0.44260
   34.1     0.00000     2.71061     1 2px  -0.26023     1 3d1+  0.90066     2 2px   0.26023     2 3d1+  0.90066
   35.1     0.00000     3.05301     1 2py   0.52478     1 3d1-  0.96799     2 2py  -0.52478     2 3d1-  0.96799     3 1s   -0.47220
                                    4 1s    0.47220     5 1s    0.47220     6 1s   -0.47220
   36.1     0.00000     3.06177     1 1s    0.31579     1 1s    2.01625     1 2pz  -0.79582     1 2pz  -1.17431     1 3d0   1.11062
                                    2 1s   -0.31579     2 1s   -2.01625     2 2pz  -0.79582     2 2pz  -1.17431     2 3d0  -1.11062


 HOMO      8.1    -0.369775 =     -10.0621eV
 LUMO      9.1     0.176398 =       4.8000eV
 LUMO-HOMO         0.546173 =      14.8621eV


 **********************************************************************************************************************************
 DATASETS  * FILE   NREC   LENGTH (MB)   RECORD NAMES
              1      19       30.96       500      610      700      900      950      970     1000      129      960     1100   
                                          VAR    BASINP    GEOM    SYMINP    ZMAT    AOBASIS   BASIS     P2S    ABASIS      S 
                                         1400     1410     1200     1210     1080     1600     1650     1300     1700   
                                           T        V       H0       H01     AOSYM     SMH    MOLCAS    ERIS     OPER   

              2       4        2.86       700     1000      520     2100   
                                         GEOM     BASIS   MCVARS     RHF  

 PROGRAMS   *        TOTAL    HF-SCF       INT
 CPU TIMES  *         0.48      0.11      0.27
 REAL TIME  *         0.71 SEC
 DISK USED  *        35.97 MB
 **********************************************************************************************************************************


 PROGRAM * MULTI (Direct Multiconfiguration SCF)       Authors: P.J. Knowles, H.-J. Werner (1984)


 Number of closed-shell orbitals:   7 (   7 )
 Number of active  orbitals:        2 (   2 )
 Number of external orbitals:      27 (  27 )

 State symmetry 1

 Number of electrons:     2    Spin symmetry=Singlet   Space symmetry=1
 Number of states:        3
 Number of CSFs:          3   (4 determinants, 4 intermediate states)

 Molecular orbitals read from record     2100.2  Type=RHF/CANONICAL (state 1.1)

 Wavefunction dump at record             2140.2

 Convergence thresholds  0.10E-01 (gradient)  0.10E-05 (energy)  0.10E-02 (step length)

 Weight factors for state symmetry  1:    0.33333   0.33333   0.33333

 Number of orbital rotations:      257   (    14 Core/Active    189 Core/Virtual   0 Active/Active     54 Active/Virtual)
 Total number of variables:        269

 Micro-Iterations solved by the two-step solver

 ITER. MIC  NCI  NEG     ENERGY(VAR)     ENERGY(PROJ)   ENERGY CHANGE     GRAD(0)  GRAD(ORB)   GRAD(CI)     STEP       TIME

   1    5    4    0     -77.72909152     -77.73548892   -0.00639740    0.13324251 0.00010536 0.00000000  0.68D-01      0.09
   2    4    4    0     -77.73538513     -77.73538938   -0.00000425    0.00313139 0.00000001 0.00000000  0.23D-02      0.15
   3    2    3    0     -77.73538939     -77.73538939   -0.00000000    0.00000269 0.00000000 0.00000000  0.48D-05      0.20

 ** WVFN ****  CONVERGENCE REACHED, FINAL GRADIENT:  0.52D-11



 Results for state 1.1
 =====================

 !MCSCF STATE  1.1 Energy             -78.047138490534
 Nuclear energy                        33.37649775
 Kinetic energy                        78.08060402
 One electron energy                 -170.21883955
 Two electron energy                   58.79520331
 Virial ratio                           1.99957140

 !MCSCF STATE  1.1 Dipole moment        0.00000000     0.00000000    -0.00000000
 Dipole moment /Debye                   0.00000000     0.00000000    -0.00000000

 Results for state 2.1
 =====================

 !MCSCF STATE  2.1 Energy             -77.672149287447
 Nuclear energy                        33.37649775
 Kinetic energy                        78.25978294
 One electron energy                 -169.64434996
 Two electron energy                   58.59570293
 Virial ratio                           1.99249124

 !MCSCF STATE  2.1 Dipole moment        0.00000000     0.00000000    -0.00000000
 Dipole moment /Debye                   0.00000000     0.00000000    -0.00000000

 Results for state 3.1
 =====================

 !MCSCF STATE  3.1 Energy             -77.486880379159
 Nuclear energy                        33.37649775
 Kinetic energy                        78.43896185
 One electron energy                 -169.06986038
 Two electron energy                   58.20648225
 Virial ratio                           1.98786214

 !MCSCF STATE  3.1 Dipole moment        0.00000000     0.00000000    -0.00000000
 Dipole moment /Debye                   0.00000000     0.00000000    -0.00000000

 State-averaged charge density matrix saved on record  2140.2 (density set 1)

 !MCSCF trans         <2.1|DMX|1.1>    -0.126591821311 au =    -0.321743241208 Debye
 !MCSCF trans         <3.1|DMX|2.1>    -0.190975564196 au =    -0.485379674449 Debye

 !MCSCF trans         <2.1|DMZ|1.1>    -1.506476324453 au =    -3.828830096704 Debye
 !MCSCF trans         <3.1|DMZ|2.1>    -2.272659979374 au =    -5.776147150378 Debye


 NATURAL ORBITALS (state averaged)
 =================================

  Orbital  Occupation    Energy     Coefficients
    1.1     2.00000   -11.24171     1 1s    0.70420     2 1s    0.70420
    2.1     2.00000   -11.24039     1 1s    0.70451     2 1s   -0.70451
    3.1     2.00000    -1.04185     1 1s    0.31007     2 1s    0.31007
    4.1     2.00000    -0.79960     1 1s    0.28820     2 1s   -0.28820
    5.1     2.00000    -0.65053     1 2py   0.32724     2 2py   0.32724
    6.1     2.00000    -0.59748     1 2pz   0.40860     2 2pz  -0.40860
    7.1     2.00000    -0.51113     1 2py   0.31170     2 2py  -0.31170
    8.1     1.00000     0.03189     1 2px   0.37869     1 2px   0.68032     2 2px  -0.37869     2 2px  -0.68032
    9.1     1.00000    -0.22612     1 2px   0.35745     1 2px   0.31939     2 2px   0.35745     2 2px   0.31939
   10.1    -0.00000     0.26362     1 1s   -1.48681     1 2pz  -0.65186     2 1s   -1.48681     2 2pz   0.65186     3 1s    1.04015
                                    4 1s    1.04015     5 1s    1.04015     6 1s    1.04015
   11.1    -0.00000     0.28555     1 2py  -0.25086     1 2py  -0.79718     2 2py  -0.25086     2 2py  -0.79718     3 1s    1.08985
                                    4 1s   -1.08985     5 1s    1.08985     6 1s   -1.08985
   12.1    -0.00000     0.30558     1 1s    1.95699     2 1s   -1.95699     3 1s   -1.06940     4 1s   -1.06940     5 1s    1.06940
                                    6 1s    1.06940
   13.1    -0.00000     0.38570     1 2py  -0.25052     1 2py  -1.84902     2 2py   0.25052     2 2py   1.84902     3 1s    1.60880
                                    4 1s   -1.60880     5 1s   -1.60880     6 1s    1.60880
   14.1    -0.00000     0.48744     1 1s   -2.96763     1 2pz   2.92447     2 1s    2.96763     2 2pz   2.92447     3 1s   -0.59211
                                    4 1s   -0.59211     5 1s    0.59211     6 1s    0.59211
   15.1    -0.00000     0.65776     1 1s    0.25715     1 2pz  -0.54825     1 2pz   1.01395     2 1s    0.25715     2 2pz   0.54825
                                    2 2pz  -1.01395
   16.1    -0.00000     0.75214     1 2py  -0.41067     1 2py   0.77575     2 2py  -0.41067     2 2py   0.77575     3 1s   -0.38222
                                    4 1s    0.38222     5 1s   -0.38222     6 1s    0.38222
   17.1    -0.00000     0.77169     1 2px  -0.74658     1 2px   0.63574     2 2px  -0.74658     2 2px   0.63574
   18.1    -0.00000     0.86477     1 1s   -0.88471     1 1s    1.49694     1 2pz   0.39007     2 1s   -0.88471     2 1s    1.49694
                                    2 2pz  -0.39007     3 1s   -0.39748     4 1s   -0.39748     5 1s   -0.39748     6 1s   -0.39748
   19.1    -0.00000     0.87242     1 2px  -0.80130     1 2px   1.10941     2 2px   0.80130     2 2px  -1.10941
   20.1    -0.00000     0.93746     1 1s   -0.69133     1 2pz   0.61021     1 2pz  -0.55855     2 1s    0.69133     2 2pz   0.61021
                                    2 2pz  -0.55855     3 1s    0.38346     4 1s    0.38346     5 1s   -0.38346     6 1s   -0.38346
   21.1    -0.00000     1.09939     1 2py  -0.67758     1 2py   1.10154     2 2py  -0.67758     2 2py   1.10154     3 1s    0.38288
                                    3 1s   -1.07164     4 1s   -0.38288     4 1s    1.07164     5 1s    0.38288     5 1s   -1.07164
                                    6 1s   -0.38288     6 1s    1.07164
   22.1    -0.00000     1.13409     1 2py   0.91569     1 2py  -2.99550     2 2py  -0.91569     2 2py   2.99550     3 1s    1.49558
                                    4 1s   -1.49558     5 1s   -1.49558     6 1s    1.49558
   23.1    -0.00000     1.21173     1 1s    1.02994     1 1s   -1.72109     1 2pz   0.36909     1 2pz  -0.50136     2 1s    1.02994
                                    2 1s   -1.72109     2 2pz  -0.36909     2 2pz   0.50136     3 1s   -0.44088     3 1s    0.86637
                                    4 1s   -0.44088     4 1s    0.86637     5 1s   -0.44088     5 1s    0.86637     6 1s   -0.44088
                                    6 1s    0.86637
   24.1    -0.00000     1.21751     1 1s   -0.46272     1 1s    0.28824     1 2pz  -0.63810     1 2pz   1.30730     2 1s    0.46272
                                    2 1s   -0.28824     2 2pz  -0.63810     2 2pz   1.30730     3 1s    0.47173     3 1s   -0.95518
                                    4 1s    0.47173     4 1s   -0.95518     5 1s   -0.47173     5 1s    0.95518     6 1s   -0.47173
                                    6 1s    0.95518
   25.1    -0.00000     1.31918     1 1s   -1.61470     1 1s    5.41920     1 2pz  -1.86063     2 1s    1.61470     2 1s   -5.41920
                                    2 2pz  -1.86063     3 1s   -0.37418     4 1s   -0.37418     5 1s    0.37418     6 1s    0.37418
   26.1    -0.00000     1.41828     1 2py   2.09155     2 2py  -2.09155     3 1s   -0.67454     3 1s   -0.44959     4 1s    0.67454
                                    4 1s    0.44959     5 1s    0.67454     5 1s    0.44959     6 1s   -0.67454     6 1s   -0.44959
   27.1    -0.00000     1.71569     1 3d1+  0.61743     2 3d1+ -0.61743
   28.1    -0.00000     1.85434     1 2py  -0.99013     1 3d2-  0.66685     2 2py   0.99013     2 3d2-  0.66685     3 1s    0.35185
                                    4 1s   -0.35185     5 1s   -0.35185     6 1s    0.35185
   29.1    -0.00000     2.08443     1 3d2-  0.68987     2 3d2- -0.68987
   30.1    -0.00000     2.18477     1 1s   -0.61032     1 3d2+  0.71025     2 1s   -0.61032     2 3d2+  0.71025     3 1s    0.37231
                                    4 1s    0.37231     5 1s    0.37231     6 1s    0.37231
   31.1    -0.00000     2.33782     1 2py   0.26695     1 3d2- -0.26166     1 3d1-  0.65396     2 2py   0.26695     2 3d2-  0.26166
                                    2 3d1- -0.65396     3 1s   -0.50536     4 1s    0.50536     5 1s   -0.50536     6 1s    0.50536
   32.1    -0.00000     2.38749     1 1s   -0.50559     1 2pz   0.28857     1 2pz  -0.44836     1 3d0   0.69053     2 1s   -0.50559
                                    2 2pz  -0.28857     2 2pz   0.44836     2 3d0   0.69053
   33.1    -0.00000     2.59854     1 1s    0.29508     1 1s   -1.37798     1 2pz   0.28308     1 3d2+  0.79574     2 1s   -0.29508
                                    2 1s    1.37798     2 2pz   0.28308     2 3d2+ -0.79574     3 1s    0.44572     4 1s    0.44572
                                    5 1s   -0.44572     6 1s   -0.44572
   34.1    -0.00000     2.68809     1 2px  -0.26083     1 3d1+  0.90094     2 2px   0.26083     2 3d1+  0.90094
   35.1    -0.00000     3.04009     1 2py   0.52465     1 3d1-  0.96763     2 2py  -0.52465     2 3d1-  0.96763     3 1s   -0.47446
                                    4 1s    0.47446     5 1s    0.47446     6 1s   -0.47446
   36.1    -0.00000     3.04369     1 1s    0.30873     1 1s    2.04173     1 2pz  -0.78827     1 2pz  -1.18774     1 3d0   1.11228
                                    2 1s   -0.30873     2 1s   -2.04173     2 2pz  -0.78827     2 2pz  -1.18774     2 3d0  -1.11228


 Natural orbital dump (state averaged) at molpro section  2140.2    (Orbital set 2)



 **********************************************************************************************************************************
 DATASETS  * FILE   NREC   LENGTH (MB)   RECORD NAMES
              1      20       31.69       500      610      700      900      950      970     1000      129      960     1100   
                                          VAR    BASINP    GEOM    SYMINP    ZMAT    AOBASIS   BASIS     P2S    ABASIS      S 
                                         1400     1410     1200     1210     1080     1600     1650     1300     1700     1380   
                                           T        V       H0       H01     AOSYM     SMH    MOLCAS    ERIS     OPER     JKOP   

              2       5        5.42       700     1000      520     2100     2140   
                                         GEOM     BASIS   MCVARS     RHF     MCSCF   

 PROGRAMS   *        TOTAL     MULTI    HF-SCF       INT
 CPU TIMES  *         0.73      0.25      0.11      0.27
 REAL TIME  *         1.00 SEC
 DISK USED  *        38.88 MB
 **********************************************************************************************************************************
 Molecular orbitals read from record     2140.2  Type=MCSCF/NATURAL (state averaged)
 Occupation numbers read from record     2140.2  Type=MCSCF/NATURAL (state averaged)
 Orbital energies read from record       2140.2  Type=MCSCF/NATURAL (state averaged)
 Redundancy group numbers read from rec  2140.2  Type=MCSCF/NATURAL (state averaged)

 MULTI/6-31G* energy=    -77.486880379159

           MULTI          HF-SCF
    -77.48688038    -78.02939237
 **********************************************************************************************************************************
 Molpro calculation terminated
