
 Primary working directories    : /scratch.local/johan406.molpro_temp/molpro.wd04Vo7meW
 Secondary working directories  : /scratch.local/johan406.molpro_temp/molpro.wd04Vo7meW
 Wavefunction directory         : /home/goodpast/johan406/wfu/
 Main file repository           : /scratch.local/johan406.molpro_temp/molpro.wd04Vo7meW/

 id        : roweumn

 Nodes     nprocs
 cn0117       1

 Using customized tuning parameters: mindgm=1; mindgv=20; mindgc=4; mindgr=1; noblas=0; minvec=7
 default implementation of scratch files=df  


 Variables initialized (934), CPU time= 0.00 sec
                                                                                 !leave this line blank
 
 gprint, orbitals=30
 memory, 125., m
 symmetry, nosym
 nelect=16
 basis=6-31g*
 
 geometry={
 C -0.0262 0.0 0.6691
 C -0.0262 0.0 -0.6691
 H 0.164 0.9149 1.2348
 H 0.164 -0.9149 1.2348
 H 0.164 0.9149 -1.2348
 H 0.164 -0.9149 -1.2348
 }
 
 hf
 {multi,
 closed 7
 occ 9
 wf,spin=0;STATE,3
 }
 
 Commands  initialized (763), CPU time= 0.01 sec, 617 directives.
 Default parameters read. Elapsed time= 0.08 sec

 Checking input...
 Passed
1


                                         ***  PROGRAM SYSTEM MOLPRO  ***
                                       Copyright, TTI GmbH Stuttgart, 2015
                                    Version 2019.2 linked Oct 25 2019 22:50:27


 **********************************************************************************************************************************
 LABEL *                                                                                 
  64 bit serial version                                                                  DATE: 26-Jan-23          TIME: 19:49:42  
 **********************************************************************************************************************************

 SHA1:             8dbd9ae1082e4ce945b0f27595c9eb2d4aa09004
 **********************************************************************************************************************************


 Variable memory set to  125000000 words,  buffer space 

 SETTING NELECT         =        16.00000000                                  
 SETTING BASIS          =    6-31G*
 ZSYMEL=NOSYM


Geometry recognized as XYZ



 Recomputing integrals since basis changed


 Using spherical harmonics

 Library entry C      S 6-31G                selected for orbital group  1
 Library entry C      P 6-31G                selected for orbital group  1
 Library entry C      D 6-31G*               selected for orbital group  1
 Library entry H      S 6-31G                selected for orbital group  2


 PROGRAM * SEWARD (Integral evaluation for generally contracted gaussian basis sets)     Author: Roland Lindh, 1990

 Geometry written to block  1 of record 700


 Point group  C1  



 ATOMIC COORDINATES

 NR  ATOM    CHARGE       X              Y              Z

   1  C       6.00   -0.049510824    0.000000000    1.264415750
   2  C       6.00   -0.049510824    0.000000000   -1.264415750
   3  H       1.00    0.309915084    1.728910431    2.333433819
   4  H       1.00    0.309915084   -1.728910431    2.333433819
   5  H       1.00    0.309915084    1.728910431   -2.333433819
   6  H       1.00    0.309915084   -1.728910431   -2.333433819

 Bond lengths in Bohr (Angstrom)

 1-2  2.528831500  1-3  2.064247537  1-4  2.064247537  2-5  2.064247537  2-6  2.064247537
     ( 1.338200000)     ( 1.092352754)     ( 1.092352754)     ( 1.092352754)     ( 1.092352754)

 Bond angles

  1-2-5  121.18968451   1-2-6  121.18968451   2-1-3  121.18968451   2-1-4  121.18968451

  3-1-4  113.76459616   5-2-6  113.76459616

 NUCLEAR CHARGE:                   16
 NUMBER OF PRIMITIVE AOS:          72
 NUMBER OF SYMMETRY AOS:           70
 NUMBER OF CONTRACTIONS:           36   (   36A   )
 NUMBER OF CORE ORBITALS:           2   (    2A   )
 NUMBER OF VALENCE ORBITALS:       12   (   12A   )


 NUCLEAR REPULSION ENERGY   33.20187631


 Eigenvalues of metric

         1 0.825E-02 0.212E-01 0.383E-01 0.456E-01 0.770E-01 0.192E+00 0.214E+00 0.227E+00


 Contracted 2-electron integrals neglected if value below      1.0D-11
 AO integral compression algorithm  1   Integral accuracy      1.0D-11

     1.049 MB (compressed) written to integral file ( 51.1%)


 NUMBER OF SORTED TWO-ELECTRON INTEGRALS:     222111.     BUFFER LENGTH:  32768
 NUMBER OF SEGMENTS:   1  SEGMENT LENGTH:     222111      RECORD LENGTH: 524288

 Memory used in sort:       0.78 MW

 SORT1 READ      284735. AND WROTE      157591. INTEGRALS IN      1 RECORDS. CPU TIME:     0.00 SEC, REAL TIME:     0.00 SEC
 SORT2 READ      157591. AND WROTE      222111. INTEGRALS IN      4 RECORDS. CPU TIME:     0.02 SEC, REAL TIME:     0.03 SEC

 FILE SIZES:   FILE 1:    31.1 MBYTE,  FILE 4:     4.2 MBYTE,   TOTAL:     35.4 MBYTE

 OPERATOR DM      FOR CENTER  0  COORDINATES:    0.000000    0.000000    0.000000


 **********************************************************************************************************************************
 DATASETS  * FILE   NREC   LENGTH (MB)   RECORD NAMES
              1      19       30.88       500      610      700      900      950      970     1000      129      960     1100   
                                          VAR    BASINP    GEOM    SYMINP    ZMAT    AOBASIS   BASIS     P2S    ABASIS      S 
                                         1400     1410     1200     1210     1080     1600     1650     1300     1700   
                                           T        V       H0       H01     AOSYM     SMH    MOLCAS    ERIS     OPER   

 PROGRAMS   *        TOTAL       INT
 CPU TIMES  *         0.36      0.26
 REAL TIME  *         0.57 SEC
 DISK USED  *        35.71 MB
 **********************************************************************************************************************************


 PROGRAM * RHF-SCF (CLOSED SHELL)       Authors: W. Meyer, H.-J. Werner


 NUMBER OF ELECTRONS:       8+    8-    SPACE SYMMETRY=1    SPIN SYMMETRY: Singlet 
 CONVERGENCE THRESHOLDS:    1.00E-05 (Density)    1.00E-07 (Energy)
 MAX. NUMBER OF ITERATIONS:       60
 INTERPOLATION TYPE:            DIIS
 INTERPOLATION STEPS:              2 (START)      1 (STEP)
 LEVEL SHIFTS:                  0.00 (CLOSED)  0.00 (OPEN) 



 Orbital guess generated from atomic densities. Full valence occupancy:    8

 Molecular orbital dump at record        2100.2

 Initial occupancy:   8

 ITERATION    DDIFF          GRAD             ENERGY        2-EL.EN.            DIPOLE MOMENTS         DIIS   ORB.
    1      0.000D+00      0.000D+00       -77.99634946    118.334676    0.23730   -0.00000   -0.00000    0    start
    2      0.000D+00      0.849D-02       -78.01784005    116.495152    0.19232    0.00000   -0.00000    1    diag
    3      0.809D-02      0.293D-02       -78.01999107    117.133643    0.21242    0.00000   -0.00000    2    diag
    4      0.264D-02      0.718D-03       -78.02020795    117.031936    0.20995    0.00000   -0.00000    3    diag
    5      0.107D-02      0.725D-04       -78.02021045    117.035072    0.21039   -0.00000    0.00000    4    diag
    6      0.152D-03      0.980D-05       -78.02021050    117.034589    0.21031   -0.00000   -0.00000    5    diag
    7      0.189D-04      0.161D-05       -78.02021050    117.034593    0.21031    0.00000    0.00000    6    diag
    8      0.340D-05      0.278D-06       -78.02021050    117.034588    0.21030    0.00000    0.00000    0    orth

 Final occupancy:   8

 !RHF STATE  1.1 Energy               -78.020210499198
 Nuclear energy                        33.20187631
 One-electron energy                 -169.73938064
 Two-electron energy                   58.51729383
 Virial quotient                       -1.00117600
 !RHF STATE  1.1 Dipole moment          0.21030499     0.00000000     0.00000000
 Dipole moment /Debye                   0.53450696     0.00000000     0.00000000

 ELECTRON ORBITALS
 =================

  Orbital  Occupation    Energy     Coefficients
    1.1     2.00000   -11.23032     1 1s    0.70420     2 1s    0.70420
    2.1     2.00000   -11.22872     1 1s    0.70456     2 1s   -0.70456
    3.1     2.00000    -1.02678     1 1s    0.30147     2 1s    0.30147
    4.1     2.00000    -0.78678     1 1s    0.24923
    5.1     2.00000    -0.63021     1 2py   0.32005     2 2py   0.32005
    6.1     2.00000    -0.58365     1 2pz   0.40005     2 2pz  -0.40005
    7.1     2.00000    -0.49539     1 2py   0.30241     2 2py  -0.30241
    8.1     2.00000    -0.37054     1 2px   0.36683     1 2px   0.30441     2 2px   0.36683     2 2px   0.30441
    9.1     0.00000     0.16595     1 2px   0.33225     1 2px   0.67676     2 2px  -0.33225     2 2px  -0.67676
   10.1     0.00000     0.26327     1 1s   -1.45320     1 2pz  -0.62811     2 1s   -1.45320     2 2pz   0.62811     3 1s    1.02318
                                    4 1s    1.02318     5 1s    1.02318     6 1s    1.02318
   11.1     0.00000     0.28514     1 2py  -0.25086     1 2py  -0.77818     2 2py  -0.25086     2 2py  -0.77818     3 1s    1.05515
                                    4 1s   -1.05515     5 1s    1.05515     6 1s   -1.05515
   12.1     0.00000     0.30803     1 1s    1.94723     1 2px   0.35558     2 1s   -1.94723     2 2px  -0.35558     3 1s   -1.05708
                                    4 1s   -1.05708     5 1s    1.05708     6 1s    1.05708
   13.1     0.00000     0.39443     1 2py   0.25921     1 2py   1.76372     2 2py  -0.25921     2 2py  -1.76372     3 1s   -1.54254
                                    4 1s    1.54254     5 1s    1.54254     6 1s   -1.54254
   14.1     0.00000     0.49359     1 1s   -3.00735     1 2pz   2.93666     2 1s    3.00735     2 2pz   2.93666     3 1s   -0.58930
                                    4 1s   -0.58930     5 1s    0.58930     6 1s    0.58930
   15.1     0.00000     0.66913     1 2pz  -0.55826     1 2pz   1.02730     2 2pz   0.55826     2 2pz  -1.02730
   16.1     0.00000     0.76134     1 2py  -0.41398     1 2py   0.73831     2 2py  -0.41398     2 2py   0.73831     3 1s   -0.38363
                                    4 1s    0.38363     5 1s   -0.38363     6 1s    0.38363
   17.1     0.00000     0.77602     1 2px  -0.73388     1 2px   0.63817     2 2px  -0.73388     2 2px   0.63817
   18.1     0.00000     0.87980     1 1s   -0.86593     1 1s    1.44394     1 2pz   0.35622     2 1s   -0.86593     2 1s    1.44394
                                    2 2pz  -0.35622     3 1s   -0.41043     4 1s   -0.41043     5 1s   -0.41043     6 1s   -0.41043
   19.1     0.00000     0.88852     1 2px  -0.80887     1 2px   1.09891     2 2px   0.80887     2 2px  -1.09891
   20.1     0.00000     0.97587     1 1s   -0.64915     1 2pz   0.63166     1 2pz  -0.61236     2 1s    0.64915     2 2pz   0.63166
                                    2 2pz  -0.61236     3 1s    0.37640     4 1s    0.37640     5 1s   -0.37640     6 1s   -0.37640
   21.1     0.00000     1.09536     1 2py  -0.67478     1 2py   1.05179     2 2py  -0.67478     2 2py   1.05179     3 1s    0.38772
                                    3 1s   -1.02583     4 1s   -0.38772     4 1s    1.02583     5 1s    0.38772     5 1s   -1.02583
                                    6 1s   -0.38772     6 1s    1.02583
   22.1     0.00000     1.12470     1 2py  -0.89648     1 2py   2.98661     2 2py   0.89648     2 2py  -2.98661     3 1s   -1.41077
                                    4 1s    1.41077     5 1s    1.41077     6 1s   -1.41077
   23.1     0.00000     1.20060     1 1s    1.04244     1 1s   -1.73403     1 2pz   0.35671     1 2pz  -0.49387     2 1s    1.04244
                                    2 1s   -1.73403     2 2pz  -0.35671     2 2pz   0.49387     3 1s   -0.43006     3 1s    0.86681
                                    4 1s   -0.43006     4 1s    0.86681     5 1s   -0.43006     5 1s    0.86681     6 1s   -0.43006
                                    6 1s    0.86681
   24.1     0.00000     1.21124     1 1s   -0.58730     1 1s    0.72315     1 2pz  -0.59304     1 2pz   1.10780     2 1s    0.58730
                                    2 1s   -0.72315     2 2pz  -0.59304     2 2pz   1.10780     3 1s    0.46876     3 1s   -0.97012
                                    4 1s    0.46876     4 1s   -0.97012     5 1s   -0.46876     5 1s    0.97012     6 1s   -0.46876
                                    6 1s    0.97012
   25.1     0.00000     1.33918     1 2py   1.53480     2 2py  -1.53480     3 1s   -0.66894     4 1s    0.66894     5 1s    0.66894
                                    6 1s   -0.66894
   26.1     0.00000     1.34799     1 1s   -1.57874     1 1s    5.40477     1 2pz   0.26340     1 2pz  -1.93558     2 1s    1.57874
                                    2 1s   -5.40477     2 2pz   0.26340     2 2pz  -1.93558     3 1s   -0.30352     4 1s   -0.30352
                                    5 1s    0.30352     6 1s    0.30352
   27.1     0.00000     1.74062     1 3d1+  0.60154     2 3d1+ -0.60154
   28.1     0.00000     1.81602     1 3d2-  0.64146     2 3d2-  0.64146
   29.1     0.00000     2.17489     1 1s   -0.60849     1 3d2+  0.68982     2 1s   -0.60849     2 3d2+  0.68982     3 1s    0.35965
                                    4 1s    0.35965     5 1s    0.35965     6 1s    0.35965
   30.1     0.00000     2.23728     1 2py   0.92545     1 3d2-  0.71376     2 2py  -0.92545     2 3d2- -0.71376     3 1s   -0.31165
                                    4 1s    0.31165     5 1s    0.31165     6 1s   -0.31165
   31.1     0.00000     2.32648     1 3d2-  0.25548     1 3d1-  0.64991     2 3d2-  0.25548     2 3d1- -0.64991     3 1s   -0.50230
                                    4 1s    0.50230     5 1s   -0.50230     6 1s    0.50230
   32.1     0.00000     2.40981     1 1s   -0.50503     1 2pz   0.28667     1 2pz  -0.44215     1 3d0   0.69181     2 1s   -0.50503
                                    2 2pz  -0.28667     2 2pz   0.44215     2 3d0   0.69181
   33.1     0.00000     2.54248     1 1s    0.29682     1 1s   -1.30349     1 3d1+  0.30993     1 3d2+  0.73112     2 1s   -0.29682
                                    2 1s    1.30349     2 3d1+  0.30993     2 3d2+ -0.73112     3 1s    0.37125     4 1s    0.37125
                                    5 1s   -0.37125     6 1s   -0.37125
   34.1     0.00000     2.74132     1 1s    0.62383     1 3d1+  0.85057     1 3d2+ -0.28672     2 1s   -0.62383     2 3d1+  0.85057
                                    2 3d2+  0.28672
   35.1     0.00000     3.03110     1 2py   0.42003     1 3d1-  0.93800     2 2py  -0.42003     2 3d1-  0.93800     3 1s   -0.45483
                                    4 1s    0.45483     5 1s    0.45483     6 1s   -0.45483
   36.1     0.00000     3.06253     1 1s    0.32234     1 1s    1.99193     1 2pz  -0.79719     1 2pz  -1.16736     1 3d0   1.11192
                                    2 1s   -0.32234     2 1s   -1.99193     2 2pz  -0.79719     2 2pz  -1.16736     2 3d0  -1.11192


 HOMO      8.1    -0.370542 =     -10.0830eV
 LUMO      9.1     0.165954 =       4.5158eV
 LUMO-HOMO         0.536496 =      14.5988eV


 **********************************************************************************************************************************
 DATASETS  * FILE   NREC   LENGTH (MB)   RECORD NAMES
              1      19       30.88       500      610      700      900      950      970     1000      129      960     1100   
                                          VAR    BASINP    GEOM    SYMINP    ZMAT    AOBASIS   BASIS     P2S    ABASIS      S 
                                         1400     1410     1200     1210     1080     1600     1650     1300     1700   
                                           T        V       H0       H01     AOSYM     SMH    MOLCAS    ERIS     OPER   

              2       4        2.86       700     1000      520     2100   
                                         GEOM     BASIS   MCVARS     RHF  

 PROGRAMS   *        TOTAL    HF-SCF       INT
 CPU TIMES  *         0.47      0.11      0.26
 REAL TIME  *         0.71 SEC
 DISK USED  *        35.71 MB
 **********************************************************************************************************************************


 PROGRAM * MULTI (Direct Multiconfiguration SCF)       Authors: P.J. Knowles, H.-J. Werner (1984)


 Number of closed-shell orbitals:   7 (   7 )
 Number of active  orbitals:        2 (   2 )
 Number of external orbitals:      27 (  27 )

 State symmetry 1

 Number of electrons:     2    Spin symmetry=Singlet   Space symmetry=1
 Number of states:        3
 Number of CSFs:          3   (4 determinants, 4 intermediate states)

 Molecular orbitals read from record     2100.2  Type=RHF/CANONICAL (state 1.1)

 Wavefunction dump at record             2140.2

 Convergence thresholds  0.10E-01 (gradient)  0.10E-05 (energy)  0.10E-02 (step length)

 Weight factors for state symmetry  1:    0.33333   0.33333   0.33333

 Number of orbital rotations:      257   (    14 Core/Active    189 Core/Virtual   0 Active/Active     54 Active/Virtual)
 Total number of variables:        269

 Micro-Iterations solved by the two-step solver

 ITER. MIC  NCI  NEG     ENERGY(VAR)     ENERGY(PROJ)   ENERGY CHANGE     GRAD(0)  GRAD(ORB)   GRAD(CI)     STEP       TIME

   1    6    5    0     -77.72744106     -77.73563212   -0.00819106    0.13947029 0.00463767 0.00000000  0.11D+00      0.10
   2    4    4    0     -77.73533860     -77.73536101   -0.00002241    0.00779878 0.00000233 0.00000000  0.39D-02      0.17
   3    3    4    0     -77.73536104     -77.73536104   -0.00000000    0.00001225 0.00000000 0.00000000  0.12D-04      0.23

 ** WVFN ****  CONVERGENCE REACHED, FINAL GRADIENT:  0.14D-09



 Results for state 1.1
 =====================

 !MCSCF STATE  1.1 Energy             -78.037026895563
 Nuclear energy                        33.20187631
 Kinetic energy                        78.01382290
 One electron energy                 -169.88120780
 Two electron energy                   58.64230460
 Virial ratio                           2.00029743

 !MCSCF STATE  1.1 Dipole moment        0.21072863     0.00000000     0.00000000
 Dipole moment /Debye                   0.53558368     0.00000000     0.00000000

 Results for state 2.1
 =====================

 !MCSCF STATE  2.1 Energy             -77.674861691331
 Nuclear energy                        33.20187631
 Kinetic energy                        78.19507933
 One electron energy                 -169.29748097
 Two electron energy                   58.42074297
 Virial ratio                           1.99334718

 !MCSCF STATE  2.1 Dipole moment        0.29990508     0.00000000     0.00000000
 Dipole moment /Debye                   0.76223275     0.00000000     0.00000000

 Results for state 3.1
 =====================

 !MCSCF STATE  3.1 Energy             -77.494194519734
 Nuclear energy                        33.20187631
 Kinetic energy                        78.37633576
 One electron energy                 -168.71375414
 Two electron energy                   58.01768331
 Virial ratio                           1.98874480

 !MCSCF STATE  3.1 Dipole moment        0.38908153     0.00000000     0.00000000
 Dipole moment /Debye                   0.98888183     0.00000000     0.00000000

 State-averaged charge density matrix saved on record  2140.2 (density set 1)

 !MCSCF expec         <1.1|DMX|1.1>     0.210728632836 au =     0.535583678643 Debye
 !MCSCF expec         <2.1|DMX|2.1>     0.299905079977 au =     0.762232753167 Debye
 !MCSCF trans         <3.1|DMX|1.1>    -0.038045764533 au =    -0.096696354222 Debye
 !MCSCF expec         <3.1|DMX|3.1>     0.389081527117 au =     0.988881827691 Debye

 !MCSCF trans         <2.1|DMZ|1.1>    -1.464295840308 au =    -3.721625021810 Debye
 !MCSCF trans         <3.1|DMZ|2.1>    -2.216710777789 au =    -5.633947778613 Debye


 NATURAL ORBITALS (state averaged)
 =================================

  Orbital  Occupation    Energy     Coefficients
    1.1     2.00000   -11.24667     1 1s    0.70422     2 1s    0.70422
    2.1     2.00000   -11.24535     1 1s    0.70452     2 1s   -0.70452
    3.1     2.00000    -1.04262     1 1s    0.30967     2 1s    0.30967
    4.1     2.00000    -0.79541     1 1s    0.29773     2 1s   -0.29773
    5.1     2.00000    -0.64376     1 2py   0.32599     2 2py   0.32599
    6.1     2.00000    -0.59840     1 2pz   0.39549     2 2pz  -0.39549
    7.1     2.00000    -0.50297     1 2py   0.30922     2 2py  -0.30922
    8.1     1.00000     0.02299     1 2px   0.37392     1 2px   0.65008     2 2px  -0.37392     2 2px  -0.65008
    9.1     1.00000    -0.22665     1 2px   0.34696     1 2px   0.31524     2 2px   0.34696     2 2px   0.31524
   10.1    -0.00000     0.25934     1 1s   -1.44913     1 2pz  -0.63294     2 1s   -1.44913     2 2pz   0.63294     3 1s    1.02141
                                    4 1s    1.02141     5 1s    1.02141     6 1s    1.02141
   11.1    -0.00000     0.27635     1 2py  -0.25082     1 2py  -0.76699     2 2py  -0.25082     2 2py  -0.76699     3 1s    1.04653
                                    4 1s   -1.04653     5 1s    1.04653     6 1s   -1.04653
   12.1    -0.00000     0.30320     1 1s    1.96208     1 2px   0.32076     2 1s   -1.96208     2 2px  -0.32076     3 1s   -1.05675
                                    4 1s   -1.05675     5 1s    1.05675     6 1s    1.05675
   13.1    -0.00000     0.38894     1 2py   0.26360     1 2py   1.74812     2 2py  -0.26360     2 2py  -1.74812     3 1s   -1.53505
                                    4 1s    1.53505     5 1s    1.53505     6 1s   -1.53505
   14.1    -0.00000     0.48932     1 1s   -2.97939     1 2pz   2.92009     2 1s    2.97939     2 2pz   2.92009     3 1s   -0.59759
                                    4 1s   -0.59759     5 1s    0.59759     6 1s    0.59759
   15.1    -0.00000     0.65829     1 1s    0.27056     1 2pz  -0.54933     1 2pz   1.00672     2 1s    0.27056     2 2pz   0.54933
                                    2 2pz  -1.00672
   16.1    -0.00000     0.75154     1 2py  -0.42281     1 2py   0.74622     2 2py  -0.42281     2 2py   0.74622     3 1s   -0.37930
                                    4 1s    0.37930     5 1s   -0.37930     6 1s    0.37930
   17.1    -0.00000     0.77114     1 2px  -0.74361     1 2px   0.64328     2 2px  -0.74361     2 2px   0.64328
   18.1    -0.00000     0.87185     1 2px  -0.79460     1 2px   1.13966     2 2px   0.79460     2 2px  -1.13966
   19.1    -0.00000     0.87459     1 1s   -0.86793     1 1s    1.46776     1 2pz   0.39606     2 1s   -0.86793     2 1s    1.46776
                                    2 2pz  -0.39606     3 1s   -0.41062     4 1s   -0.41062     5 1s   -0.41062     6 1s   -0.41062
   20.1    -0.00000     0.95691     1 1s   -0.49012     1 2pz   0.63595     1 2pz  -0.68578     2 1s    0.49012     2 2pz   0.63595
                                    2 2pz  -0.68578     3 1s    0.37596     4 1s    0.37596     5 1s   -0.37596     6 1s   -0.37596
   21.1    -0.00000     1.08042     1 2py  -0.66358     1 2py   1.05405     2 2py  -0.66358     2 2py   1.05405     3 1s    0.38847
                                    3 1s   -1.03482     4 1s   -0.38847     4 1s    1.03482     5 1s    0.38847     5 1s   -1.03482
                                    6 1s   -0.38847     6 1s    1.03482
   22.1    -0.00000     1.11310     1 2py  -0.89449     1 2py   2.98114     2 2py   0.89449     2 2py  -2.98114     3 1s   -1.41793
                                    4 1s    1.41793     5 1s    1.41793     6 1s   -1.41793
   23.1    -0.00000     1.19552     1 1s    1.03768     1 1s   -1.73046     1 2pz   0.36155     1 2pz  -0.49935     2 1s    1.03768
                                    2 1s   -1.73046     2 2pz  -0.36155     2 2pz   0.49935     3 1s   -0.43086     3 1s    0.86685
                                    4 1s   -0.43086     4 1s    0.86685     5 1s   -0.43086     5 1s    0.86685     6 1s   -0.43086
                                    6 1s    0.86685
   24.1    -0.00000     1.20742     1 1s   -0.55677     1 1s    0.62260     1 2pz  -0.60464     1 2pz   1.14945     2 1s    0.55677
                                    2 1s   -0.62260     2 2pz  -0.60464     2 2pz   1.14945     3 1s    0.46988     3 1s   -0.96473
                                    4 1s    0.46988     4 1s   -0.96473     5 1s   -0.46988     5 1s    0.96473     6 1s   -0.46988
                                    6 1s    0.96473
   25.1    -0.00000     1.32803     1 1s   -1.59139     1 1s    5.42988     1 2pz  -1.90916     2 1s    1.59139     2 1s   -5.42988
                                    2 2pz  -1.90916     3 1s   -0.32555     4 1s   -0.32555     5 1s    0.32555     6 1s    0.32555
   26.1    -0.00000     1.33116     1 2py   1.55436     2 2py  -1.55436     3 1s   -0.66738     4 1s    0.66738     5 1s    0.66738
                                    6 1s   -0.66738
   27.1    -0.00000     1.71642     1 3d1+  0.60192     2 3d1+ -0.60192
   28.1    -0.00000     1.80196     1 3d2-  0.64147     2 3d2-  0.64147
   29.1    -0.00000     2.15969     1 1s   -0.60421     1 3d2+  0.69019     2 1s   -0.60421     2 3d2+  0.69019     3 1s    0.36166
                                    4 1s    0.36166     5 1s    0.36166     6 1s    0.36166
   30.1    -0.00000     2.21446     1 2py   0.93744     1 3d2-  0.71324     2 2py  -0.93744     2 3d2- -0.71324     3 1s   -0.31655
                                    4 1s    0.31655     5 1s    0.31655     6 1s   -0.31655
   31.1    -0.00000     2.31034     1 2py   0.25287     1 3d2-  0.25554     1 3d1-  0.64847     2 2py   0.25287     2 3d2-  0.25554
                                    2 3d1- -0.64847     3 1s   -0.50517     4 1s    0.50517     5 1s   -0.50517     6 1s    0.50517
   32.1    -0.00000     2.38936     1 1s   -0.50370     1 2pz   0.29229     1 2pz  -0.44461     1 3d0   0.69176     2 1s   -0.50370
                                    2 2pz  -0.29229     2 2pz   0.44461     2 3d0   0.69176
   33.1    -0.00000     2.52483     1 1s    0.29896     1 1s   -1.31905     1 3d1+  0.30823     1 3d2+  0.73098     2 1s   -0.29896
                                    2 1s    1.31905     2 3d1+  0.30823     2 3d2+ -0.73098     3 1s    0.37426     4 1s    0.37426
                                    5 1s   -0.37426     6 1s   -0.37426
   34.1    -0.00000     2.71814     1 1s    0.60193     1 3d1+  0.85162     1 3d2+ -0.28491     2 1s   -0.60193     2 3d1+  0.85162
                                    2 3d2+  0.28491
   35.1    -0.00000     3.01854     1 2py   0.42118     1 3d1-  0.93755     2 2py  -0.42118     2 3d1-  0.93755     3 1s   -0.45696
                                    4 1s    0.45696     5 1s    0.45696     6 1s   -0.45696
   36.1    -0.00000     3.04354     1 1s    0.31438     1 1s    2.01995     1 2pz  -0.79004     1 2pz  -1.18151     1 3d0   1.11362
                                    2 1s   -0.31438     2 1s   -2.01995     2 2pz  -0.79004     2 2pz  -1.18151     2 3d0  -1.11362


 Natural orbital dump (state averaged) at molpro section  2140.2    (Orbital set 2)



 **********************************************************************************************************************************
 DATASETS  * FILE   NREC   LENGTH (MB)   RECORD NAMES
              1      20       31.61       500      610      700      900      950      970     1000      129      960     1100   
                                          VAR    BASINP    GEOM    SYMINP    ZMAT    AOBASIS   BASIS     P2S    ABASIS      S 
                                         1400     1410     1200     1210     1080     1600     1650     1300     1700     1380   
                                           T        V       H0       H01     AOSYM     SMH    MOLCAS    ERIS     OPER     JKOP   

              2       5        5.42       700     1000      520     2100     2140   
                                         GEOM     BASIS   MCVARS     RHF     MCSCF   

 PROGRAMS   *        TOTAL     MULTI    HF-SCF       INT
 CPU TIMES  *         0.74      0.27      0.11      0.26
 REAL TIME  *         1.03 SEC
 DISK USED  *        38.79 MB
 **********************************************************************************************************************************
 Molecular orbitals read from record     2140.2  Type=MCSCF/NATURAL (state averaged)
 Occupation numbers read from record     2140.2  Type=MCSCF/NATURAL (state averaged)
 Orbital energies read from record       2140.2  Type=MCSCF/NATURAL (state averaged)
 Redundancy group numbers read from rec  2140.2  Type=MCSCF/NATURAL (state averaged)

 MULTI/6-31G* energy=    -77.494194519734

           MULTI          HF-SCF
    -77.49419452    -78.02021050
 **********************************************************************************************************************************
 Molpro calculation terminated
