
 Primary working directories    : /scratch.local/johan406.molpro_temp/molpro.fFuzS9MPfe
 Secondary working directories  : /scratch.local/johan406.molpro_temp/molpro.fFuzS9MPfe
 Wavefunction directory         : /home/goodpast/johan406/wfu/
 Main file repository           : /scratch.local/johan406.molpro_temp/molpro.fFuzS9MPfe/

 id        : roweumn

 Nodes     nprocs
 cn0117       1

 Using customized tuning parameters: mindgm=1; mindgv=20; mindgc=4; mindgr=1; noblas=0; minvec=7
 default implementation of scratch files=df  


 Variables initialized (934), CPU time= 0.00 sec
                                                                                 !leave this line blank
 
 gprint, orbitals=30
 memory, 125., m
 symmetry, nosym
 nelect=16
 basis=6-31g*
 
 geometry={
 C -0.0294 0.0 0.6691
 C -0.0294 0.0 -0.6691
 H 0.184 0.9149 1.2348
 H 0.184 -0.9149 1.2348
 H 0.184 0.9149 -1.2348
 H 0.184 -0.9149 -1.2348
 }
 
 hf
 {multi,
 closed 7
 occ 9
 wf,spin=0;STATE,3
 }
 
 Commands  initialized (763), CPU time= 0.01 sec, 617 directives.
 Default parameters read. Elapsed time= 0.08 sec

 Checking input...
 Passed
1


                                         ***  PROGRAM SYSTEM MOLPRO  ***
                                       Copyright, TTI GmbH Stuttgart, 2015
                                    Version 2019.2 linked Oct 25 2019 22:50:27


 **********************************************************************************************************************************
 LABEL *                                                                                 
  64 bit serial version                                                                  DATE: 26-Jan-23          TIME: 19:50:42  
 **********************************************************************************************************************************

 SHA1:             8dbd9ae1082e4ce945b0f27595c9eb2d4aa09004
 **********************************************************************************************************************************


 Variable memory set to  125000000 words,  buffer space 

 SETTING NELECT         =        16.00000000                                  
 SETTING BASIS          =    6-31G*
 ZSYMEL=NOSYM


Geometry recognized as XYZ



 Recomputing integrals since basis changed


 Using spherical harmonics

 Library entry C      S 6-31G                selected for orbital group  1
 Library entry C      P 6-31G                selected for orbital group  1
 Library entry C      D 6-31G*               selected for orbital group  1
 Library entry H      S 6-31G                selected for orbital group  2


 PROGRAM * SEWARD (Integral evaluation for generally contracted gaussian basis sets)     Author: Roland Lindh, 1990

 Geometry written to block  1 of record 700


 Point group  C1  



 ATOMIC COORDINATES

 NR  ATOM    CHARGE       X              Y              Z

   1  C       6.00   -0.055557948    0.000000000    1.264415750
   2  C       6.00   -0.055557948    0.000000000   -1.264415750
   3  H       1.00    0.347709607    1.728910431    2.333433819
   4  H       1.00    0.347709607   -1.728910431    2.333433819
   5  H       1.00    0.347709607    1.728910431   -2.333433819
   6  H       1.00    0.347709607   -1.728910431   -2.333433819

 Bond lengths in Bohr (Angstrom)

 1-2  2.528831500  1-3  2.072330966  1-4  2.072330966  2-5  2.072330966  2-6  2.072330966
     ( 1.338200000)     ( 1.096630321)     ( 1.096630321)     ( 1.096630321)     ( 1.096630321)

 Bond angles

  1-2-5  121.05448527   1-2-6  121.05448527   2-1-3  121.05448527   2-1-4  121.05448527

  3-1-4  113.08249942   5-2-6  113.08249942

 NUCLEAR CHARGE:                   16
 NUMBER OF PRIMITIVE AOS:          72
 NUMBER OF SYMMETRY AOS:           70
 NUMBER OF CONTRACTIONS:           36   (   36A   )
 NUMBER OF CORE ORBITALS:           2   (    2A   )
 NUMBER OF VALENCE ORBITALS:       12   (   12A   )


 NUCLEAR REPULSION ENERGY   33.15030230


 Eigenvalues of metric

         1 0.824E-02 0.222E-01 0.384E-01 0.455E-01 0.786E-01 0.192E+00 0.215E+00 0.227E+00


 Contracted 2-electron integrals neglected if value below      1.0D-11
 AO integral compression algorithm  1   Integral accuracy      1.0D-11

     1.049 MB (compressed) written to integral file ( 51.2%)


 NUMBER OF SORTED TWO-ELECTRON INTEGRALS:     222111.     BUFFER LENGTH:  32768
 NUMBER OF SEGMENTS:   1  SEGMENT LENGTH:     222111      RECORD LENGTH: 524288

 Memory used in sort:       0.78 MW

 SORT1 READ      284735. AND WROTE      157591. INTEGRALS IN      1 RECORDS. CPU TIME:     0.00 SEC, REAL TIME:     0.00 SEC
 SORT2 READ      157591. AND WROTE      222111. INTEGRALS IN      4 RECORDS. CPU TIME:     0.02 SEC, REAL TIME:     0.03 SEC

 FILE SIZES:   FILE 1:    31.1 MBYTE,  FILE 4:     4.2 MBYTE,   TOTAL:     35.4 MBYTE

 OPERATOR DM      FOR CENTER  0  COORDINATES:    0.000000    0.000000    0.000000


 **********************************************************************************************************************************
 DATASETS  * FILE   NREC   LENGTH (MB)   RECORD NAMES
              1      19       30.88       500      610      700      900      950      970     1000      129      960     1100   
                                          VAR    BASINP    GEOM    SYMINP    ZMAT    AOBASIS   BASIS     P2S    ABASIS      S 
                                         1400     1410     1200     1210     1080     1600     1650     1300     1700   
                                           T        V       H0       H01     AOSYM     SMH    MOLCAS    ERIS     OPER   

 PROGRAMS   *        TOTAL       INT
 CPU TIMES  *         0.34      0.24
 REAL TIME  *         0.57 SEC
 DISK USED  *        35.71 MB
 **********************************************************************************************************************************


 PROGRAM * RHF-SCF (CLOSED SHELL)       Authors: W. Meyer, H.-J. Werner


 NUMBER OF ELECTRONS:       8+    8-    SPACE SYMMETRY=1    SPIN SYMMETRY: Singlet 
 CONVERGENCE THRESHOLDS:    1.00E-05 (Density)    1.00E-07 (Energy)
 MAX. NUMBER OF ITERATIONS:       60
 INTERPOLATION TYPE:            DIIS
 INTERPOLATION STEPS:              2 (START)      1 (STEP)
 LEVEL SHIFTS:                  0.00 (CLOSED)  0.00 (OPEN) 



 Orbital guess generated from atomic densities. Full valence occupancy:    8

 Molecular orbital dump at record        2100.2

 Initial occupancy:   8

 ITERATION    DDIFF          GRAD             ENERGY        2-EL.EN.            DIPOLE MOMENTS         DIIS   ORB.
    1      0.000D+00      0.000D+00       -77.99353191    118.236380    0.26619   -0.00000   -0.00000    0    start
    2      0.000D+00      0.846D-02       -78.01491103    116.396635    0.21434   -0.00000   -0.00000    1    diag
    3      0.806D-02      0.293D-02       -78.01706962    117.037232    0.23705   -0.00000   -0.00000    2    diag
    4      0.264D-02      0.720D-03       -78.01728878    116.934746    0.23414    0.00000   -0.00000    3    diag
    5      0.107D-02      0.737D-04       -78.01729140    116.937944    0.23462    0.00000    0.00000    4    diag
    6      0.154D-03      0.102D-04       -78.01729145    116.937447    0.23453   -0.00000    0.00000    5    diag
    7      0.197D-04      0.171D-05       -78.01729145    116.937451    0.23453   -0.00000   -0.00000    6    diag
    8      0.373D-05      0.302D-06       -78.01729145    116.937446    0.23452   -0.00000    0.00000    0    orth

 Final occupancy:   8

 !RHF STATE  1.1 Energy               -78.017291450735
 Nuclear energy                        33.15030230
 One-electron energy                 -169.63631668
 Two-electron energy                   58.46872294
 Virial quotient                       -1.00144024
 !RHF STATE  1.1 Dipole moment          0.23452070    -0.00000000     0.00000000
 Dipole moment /Debye                   0.59605312    -0.00000000     0.00000000

 ELECTRON ORBITALS
 =================

  Orbital  Occupation    Energy     Coefficients
    1.1     2.00000   -11.23166     1 1s    0.70420     2 1s    0.70420
    2.1     2.00000   -11.23006     1 1s    0.70456     2 1s   -0.70456
    3.1     2.00000    -1.02675     1 1s    0.30130     2 1s    0.30130
    4.1     2.00000    -0.78538     1 1s    0.25115     2 1s   -0.25115
    5.1     2.00000    -0.62809     1 2py   0.31963     2 2py   0.31963
    6.1     2.00000    -0.58383     1 2pz   0.39826     2 2pz  -0.39826
    7.1     2.00000    -0.49279     1 2py   0.30164     2 2py  -0.30164
    8.1     2.00000    -0.37087     1 2px   0.36525     1 2px   0.30354     2 2px   0.36525     2 2px   0.30354
    9.1     0.00000     0.16288     1 2px   0.33000     1 2px   0.66379     2 2px  -0.33000     2 2px  -0.66379
   10.1     0.00000     0.26240     1 1s   -1.44190     1 2pz  -0.62319     2 1s   -1.44190     2 2pz   0.62319     3 1s    1.01828
                                    4 1s    1.01828     5 1s    1.01828     6 1s    1.01828
   11.1     0.00000     0.28272     1 2py  -0.25063     1 2py  -0.77024     2 2py  -0.25063     2 2py  -0.77024     3 1s    1.04355
                                    4 1s   -1.04355     5 1s    1.04355     6 1s   -1.04355
   12.1     0.00000     0.30758     1 1s    1.94850     1 2px   0.39416     2 1s   -1.94850     2 2px  -0.39416     3 1s   -1.05235
                                    4 1s   -1.05235     5 1s    1.05235     6 1s    1.05235
   13.1     0.00000     0.39493     1 2py   0.26189     1 2py   1.73756     2 2py  -0.26189     2 2py  -1.73756     3 1s   -1.52156
                                    4 1s    1.52156     5 1s    1.52156     6 1s   -1.52156
   14.1     0.00000     0.49422     1 1s   -3.01195     1 2pz   2.93122     2 1s    3.01195     2 2pz   2.93122     3 1s   -0.58783
                                    4 1s   -0.58783     5 1s    0.58783     6 1s    0.58783
   15.1     0.00000     0.66905     1 2pz  -0.55874     1 2pz   1.02448     2 2pz   0.55874     2 2pz  -1.02448
   16.1     0.00000     0.76131     1 2py  -0.41773     1 2py   0.73055     2 2py  -0.41773     2 2py   0.73055     3 1s   -0.38296
                                    4 1s    0.38296     5 1s   -0.38296     6 1s    0.38296
   17.1     0.00000     0.77569     1 2px  -0.73215     1 2px   0.63765     2 2px  -0.73215     2 2px   0.63765
   18.1     0.00000     0.88422     1 1s   -0.85956     1 1s    1.43614     1 2pz   0.35918     2 1s   -0.85956     2 1s    1.43614
                                    2 2pz  -0.35918     3 1s   -0.41437     4 1s   -0.41437     5 1s   -0.41437     6 1s   -0.41437
   19.1     0.00000     0.88814     1 2px  -0.80681     1 2px   1.10334     2 2px   0.80681     2 2px  -1.10334
   20.1     0.00000     0.98116     1 1s   -0.58942     1 2pz   0.63832     1 2pz  -0.64918     2 1s    0.58942     2 2pz   0.63832
                                    2 2pz  -0.64918     3 1s    0.37453     4 1s    0.37453     5 1s   -0.37453     6 1s   -0.37453
   21.1     0.00000     1.09027     1 2py  -0.67112     1 2py   1.04027     2 2py  -0.67112     2 2py   1.04027     3 1s    0.38917
                                    3 1s   -1.01728     4 1s   -0.38917     4 1s    1.01728     5 1s    0.38917     5 1s   -1.01728
                                    6 1s   -0.38917     6 1s    1.01728
   22.1     0.00000     1.11572     1 2py  -0.88619     1 2py   2.97872     2 2py   0.88619     2 2py  -2.97872     3 1s   -1.37596
                                    4 1s    1.37596     5 1s    1.37596     6 1s   -1.37596
   23.1     0.00000     1.19655     1 1s    1.04463     1 1s   -1.73664     1 2pz   0.35438     1 2pz  -0.49355     2 1s    1.04463
                                    2 1s   -1.73664     2 2pz  -0.35438     2 2pz   0.49355     3 1s   -0.42710     3 1s    0.86687
                                    4 1s   -0.42710     4 1s    0.86687     5 1s   -0.42710     5 1s    0.86687     6 1s   -0.42710
                                    6 1s    0.86687
   24.1     0.00000     1.20808     1 1s   -0.60039     1 1s    0.77307     1 2pz  -0.58496     1 2px   0.26190     1 2pz   1.07839
                                    2 1s    0.60039     2 1s   -0.77307     2 2pz  -0.58496     2 2px  -0.26190     2 2pz   1.07839
                                    3 1s    0.46833     3 1s   -0.96933     4 1s    0.46833     4 1s   -0.96933     5 1s   -0.46833
                                    5 1s    0.96933     6 1s   -0.46833     6 1s    0.96933
   25.1     0.00000     1.31680     1 2py   1.33182     2 2py  -1.33182     3 1s   -0.66447     4 1s    0.66447     5 1s    0.66447
                                    6 1s   -0.66447
   26.1     0.00000     1.35088     1 1s   -1.57570     1 1s    5.40848     1 2pz   0.26169     1 2pz  -1.93724     2 1s    1.57570
                                    2 1s   -5.40848     2 2pz   0.26169     2 2pz  -1.93724     3 1s   -0.29775     4 1s   -0.29775
                                    5 1s    0.29775     6 1s    0.29775
   27.1     0.00000     1.74108     1 3d1+  0.59717     2 3d1+ -0.59717
   28.1     0.00000     1.81459     1 3d2-  0.63212     2 3d2-  0.63212
   29.1     0.00000     2.16675     1 1s   -0.60804     1 3d2+  0.68386     2 1s   -0.60804     2 3d2+  0.68386     3 1s    0.35594
                                    4 1s    0.35594     5 1s    0.35594     6 1s    0.35594
   30.1     0.00000     2.25585     1 2py   0.94697     1 3d2-  0.71101     2 2py  -0.94697     2 3d2- -0.71101     3 1s   -0.31321
                                    4 1s    0.31321     5 1s    0.31321     6 1s   -0.31321
   31.1     0.00000     2.32401     1 3d2-  0.28254     1 3d1-  0.63982     2 3d2-  0.28254     2 3d1- -0.63982     3 1s   -0.49801
                                    4 1s    0.49801     5 1s   -0.49801     6 1s    0.49801
   32.1     0.00000     2.41023     1 1s   -0.50425     1 2pz   0.28776     1 2pz  -0.44096     1 3d0   0.69232     2 1s   -0.50425
                                    2 2pz  -0.28776     2 2pz   0.44096     2 3d0   0.69232
   33.1     0.00000     2.52666     1 1s    0.30349     1 1s   -1.31975     1 2px  -0.25506     1 3d1+  0.30494     1 3d2+  0.72935
                                    2 1s   -0.30349     2 1s    1.31975     2 2px   0.25506     2 3d1+  0.30494     2 3d2+ -0.72935
                                    3 1s    0.36448     4 1s    0.36448     5 1s   -0.36448     6 1s   -0.36448
   34.1     0.00000     2.74463     1 1s    0.64040     1 3d1+  0.85291     1 3d2+ -0.28212     2 1s   -0.64040     2 3d1+  0.85291
                                    2 3d2+  0.28212
   35.1     0.00000     3.02262     1 2py   0.38906     1 3d1-  0.93072     2 2py  -0.38906     2 3d1-  0.93072     3 1s   -0.44899
                                    4 1s    0.44899     5 1s    0.44899     6 1s   -0.44899
   36.1     0.00000     3.06262     1 1s    0.32386     1 1s    1.98454     1 2pz  -0.79714     1 2pz  -1.16467     1 3d0   1.11187
                                    2 1s   -0.32386     2 1s   -1.98454     2 2pz  -0.79714     2 2pz  -1.16467     2 3d0  -1.11187


 HOMO      8.1    -0.370872 =     -10.0919eV
 LUMO      9.1     0.162883 =       4.4323eV
 LUMO-HOMO         0.533755 =      14.5242eV


 **********************************************************************************************************************************
 DATASETS  * FILE   NREC   LENGTH (MB)   RECORD NAMES
              1      19       30.88       500      610      700      900      950      970     1000      129      960     1100   
                                          VAR    BASINP    GEOM    SYMINP    ZMAT    AOBASIS   BASIS     P2S    ABASIS      S 
                                         1400     1410     1200     1210     1080     1600     1650     1300     1700   
                                           T        V       H0       H01     AOSYM     SMH    MOLCAS    ERIS     OPER   

              2       4        2.86       700     1000      520     2100   
                                         GEOM     BASIS   MCVARS     RHF  

 PROGRAMS   *        TOTAL    HF-SCF       INT
 CPU TIMES  *         0.45      0.11      0.24
 REAL TIME  *         0.70 SEC
 DISK USED  *        35.71 MB
 **********************************************************************************************************************************


 PROGRAM * MULTI (Direct Multiconfiguration SCF)       Authors: P.J. Knowles, H.-J. Werner (1984)


 Number of closed-shell orbitals:   7 (   7 )
 Number of active  orbitals:        2 (   2 )
 Number of external orbitals:      27 (  27 )

 State symmetry 1

 Number of electrons:     2    Spin symmetry=Singlet   Space symmetry=1
 Number of states:        3
 Number of CSFs:          3   (4 determinants, 4 intermediate states)

 Molecular orbitals read from record     2100.2  Type=RHF/CANONICAL (state 1.1)

 Wavefunction dump at record             2140.2

 Convergence thresholds  0.10E-01 (gradient)  0.10E-05 (energy)  0.10E-02 (step length)

 Weight factors for state symmetry  1:    0.33333   0.33333   0.33333

 Number of orbital rotations:      257   (    14 Core/Active    189 Core/Virtual   0 Active/Active     54 Active/Virtual)
 Total number of variables:        269

 Micro-Iterations solved by the two-step solver

 ITER. MIC  NCI  NEG     ENERGY(VAR)     ENERGY(PROJ)   ENERGY CHANGE     GRAD(0)  GRAD(ORB)   GRAD(CI)     STEP       TIME

   1    6    5    0     -77.72663021     -77.73521404   -0.00858383    0.14078357 0.00517750 0.00000000  0.11D+00      0.10
   2    4    4    0     -77.73490822     -77.73493067   -0.00002245    0.00784568 0.00000169 0.00000000  0.37D-02      0.17
   3    3    4    0     -77.73493070     -77.73493070   -0.00000000    0.00001211 0.00000000 0.00000000  0.10D-04      0.23

 ** WVFN ****  CONVERGENCE REACHED, FINAL GRADIENT:  0.11D-09



 Results for state 1.1
 =====================

 !MCSCF STATE  1.1 Energy             -78.033938246324
 Nuclear energy                        33.15030230
 Kinetic energy                        77.99438745
 One electron energy                 -169.78065086
 Two electron energy                   58.59641032
 Virial ratio                           2.00050710

 !MCSCF STATE  1.1 Dipole moment        0.23528345    -0.00000000    -0.00000000
 Dipole moment /Debye                   0.59799170    -0.00000000    -0.00000000

 Results for state 2.1
 =====================

 !MCSCF STATE  2.1 Energy             -77.675044742345
 Nuclear energy                        33.15030230
 Kinetic energy                        78.17576370
 One electron energy                 -169.19427636
 Two electron energy                   58.36892932
 Virial ratio                           1.99359496

 !MCSCF STATE  2.1 Dipole moment        0.33102538    -0.00000000    -0.00000000
 Dipole moment /Debye                   0.84132750    -0.00000000    -0.00000000

 Results for state 3.1
 =====================

 !MCSCF STATE  3.1 Energy             -77.495809098233
 Nuclear energy                        33.15030230
 Kinetic energy                        78.35713996
 One electron energy                 -168.60790185
 Two electron energy                   57.96179046
 Virial ratio                           1.98900763

 !MCSCF STATE  3.1 Dipole moment        0.42676732     0.00000000    -0.00000000
 Dipole moment /Debye                   1.08466329     0.00000000    -0.00000000

 State-averaged charge density matrix saved on record  2140.2 (density set 1)

 !MCSCF expec         <1.1|DMX|1.1>     0.235283445143 au =     0.597991698507 Debye
 !MCSCF expec         <2.1|DMX|2.1>     0.331025384422 au =     0.841327496539 Debye
 !MCSCF trans         <3.1|DMX|1.1>    -0.041020363727 au =    -0.104256536043 Debye
 !MCSCF expec         <3.1|DMX|3.1>     0.426767323700 au =     1.084663294571 Debye

 !MCSCF trans         <2.1|DMZ|1.1>    -1.453480671028 au =    -3.694137403871 Debye
 !MCSCF trans         <3.1|DMZ|2.1>    -2.204008418656 au =    -5.601663716688 Debye


 NATURAL ORBITALS (state averaged)
 =================================

  Orbital  Occupation    Energy     Coefficients
    1.1     2.00000   -11.24817     1 1s    0.70422     2 1s    0.70422
    2.1     2.00000   -11.24685     1 1s    0.70452     2 1s   -0.70452
    3.1     2.00000    -1.04285     1 1s    0.30955     2 1s    0.30955
    4.1     2.00000    -0.79421     1 1s    0.30035     2 1s   -0.30035
    5.1     2.00000    -0.64182     1 2py   0.32563     2 2py   0.32563
    6.1     2.00000    -0.59851     1 2pz   0.39228     2 2pz  -0.39228
    7.1     2.00000    -0.50058     1 2py   0.30851     2 2py  -0.30851
    8.1     1.00000     0.02034     1 2px   0.37239     1 2px   0.64127     2 2px  -0.37239     2 2px  -0.64127
    9.1     1.00000    -0.22698     1 2px   0.34439     1 2px   0.31421     2 2px   0.34439     2 2px   0.31421
   10.1    -0.00000     0.25820     1 1s   -1.43778     1 2pz  -0.62776     2 1s   -1.43778     2 2pz   0.62776     3 1s    1.01621
                                    4 1s    1.01621     5 1s    1.01621     6 1s    1.01621
   11.1    -0.00000     0.27386     1 2py  -0.25096     1 2py  -0.75873     2 2py  -0.25096     2 2py  -0.75873     3 1s    1.03493
                                    4 1s   -1.03493     5 1s    1.03493     6 1s   -1.03493
   12.1    -0.00000     0.30236     1 1s    1.96124     1 2px   0.35698     2 1s   -1.96124     2 2px  -0.35698     3 1s   -1.05296
                                    4 1s   -1.05296     5 1s    1.05296     6 1s    1.05296
   13.1    -0.00000     0.38916     1 2py   0.26649     1 2py   1.72162     2 2py  -0.26649     2 2py  -1.72162     3 1s   -1.51389
                                    4 1s    1.51389     5 1s    1.51389     6 1s   -1.51389
   14.1    -0.00000     0.48960     1 1s   -2.98263     1 2pz   2.91498     2 1s    2.98263     2 2pz   2.91498     3 1s   -0.59592
                                    4 1s   -0.59592     5 1s    0.59592     6 1s    0.59592
   15.1    -0.00000     0.65833     1 1s    0.27389     1 2pz  -0.54964     1 2pz   1.00454     2 1s    0.27389     2 2pz   0.54964
                                    2 2pz  -1.00454
   16.1    -0.00000     0.75164     1 2py  -0.42605     1 2py   0.73864     2 2py  -0.42605     2 2py   0.73864     3 1s   -0.37869
                                    4 1s    0.37869     5 1s   -0.37869     6 1s    0.37869
   17.1    -0.00000     0.77110     1 2px  -0.74255     1 2px   0.64475     2 2px  -0.74255     2 2px   0.64475
   18.1    -0.00000     0.87175     1 2px  -0.79321     1 2px   1.14619     2 2px   0.79321     2 2px  -1.14619
   19.1    -0.00000     0.87844     1 1s   -0.86344     1 1s    1.46038     1 2pz   0.39772     2 1s   -0.86344     2 1s    1.46038
                                    2 2pz  -0.39772     3 1s   -0.41424     4 1s   -0.41424     5 1s   -0.41424     6 1s   -0.41424
   20.1    -0.00000     0.96215     1 1s   -0.43078     1 2pz   0.64259     1 2pz  -0.72058     2 1s    0.43078     2 2pz   0.64259
                                    2 2pz  -0.72058     3 1s    0.37412     4 1s    0.37412     5 1s   -0.37412     6 1s   -0.37412
   21.1    -0.00000     1.07547     1 2py  -0.66000     1 2py   1.04262     2 2py  -0.66000     2 2py   1.04262     3 1s    0.38994
                                    3 1s   -1.02626     4 1s   -0.38994     4 1s    1.02626     5 1s    0.38994     5 1s   -1.02626
                                    6 1s   -0.38994     6 1s    1.02626
   22.1    -0.00000     1.10442     1 2py  -0.88476     1 2py   2.97226     2 2py   0.88476     2 2py  -2.97226     3 1s   -1.38381
                                    4 1s    1.38381     5 1s    1.38381     6 1s   -1.38381
   23.1    -0.00000     1.19105     1 1s    1.03982     1 1s   -1.73301     1 2pz   0.35949     1 2pz  -0.49897     2 1s    1.03982
                                    2 1s   -1.73301     2 2pz  -0.35949     2 2pz   0.49897     3 1s   -0.42802     3 1s    0.86699
                                    4 1s   -0.42802     4 1s    0.86699     5 1s   -0.42802     5 1s    0.86699     6 1s   -0.42802
                                    6 1s    0.86699
   24.1    -0.00000     1.20391     1 1s   -0.57598     1 1s    0.69310     1 2pz  -0.59629     1 2pz   1.11346     2 1s    0.57598
                                    2 1s   -0.69310     2 2pz  -0.59629     2 2pz   1.11346     3 1s    0.46896     3 1s   -0.96544
                                    4 1s    0.46896     4 1s   -0.96544     5 1s   -0.46896     5 1s    0.96544     6 1s   -0.46896
                                    6 1s    0.96544
   25.1    -0.00000     1.30879     1 2py   1.35646     2 2py  -1.35646     3 1s   -0.66312     4 1s    0.66312     5 1s    0.66312
                                    6 1s   -0.66312
   26.1    -0.00000     1.33091     1 1s   -1.58625     1 1s    5.43154     1 2pz  -1.91493     2 1s    1.58625     2 1s   -5.43154
                                    2 2pz  -1.91493     3 1s   -0.31631     4 1s   -0.31631     5 1s    0.31631     6 1s    0.31631
   27.1    -0.00000     1.71722     1 3d1+  0.59772     2 3d1+ -0.59772
   28.1    -0.00000     1.80046     1 3d2-  0.63210     2 3d2-  0.63210
   29.1    -0.00000     2.15158     1 1s   -0.60373     1 3d2+  0.68444     2 1s   -0.60373     2 3d2+  0.68444     3 1s    0.35797
                                    4 1s    0.35797     5 1s    0.35797     6 1s    0.35797
   30.1    -0.00000     2.23306     1 2py   0.95910     1 3d2-  0.71044     2 2py  -0.95910     2 3d2- -0.71044     3 1s   -0.31819
                                    4 1s    0.31819     5 1s    0.31819     6 1s   -0.31819
   31.1    -0.00000     2.30791     1 3d2-  0.28266     1 3d1-  0.63842     2 3d2-  0.28266     2 3d1- -0.63842     3 1s   -0.50076
                                    4 1s    0.50076     5 1s   -0.50076     6 1s    0.50076
   32.1    -0.00000     2.38971     1 1s   -0.50305     1 2pz   0.29331     1 2pz  -0.44336     1 3d0   0.69230     2 1s   -0.50305
                                    2 2pz  -0.29331     2 2pz   0.44336     2 3d0   0.69230
   33.1    -0.00000     2.50934     1 1s    0.30590     1 1s   -1.33658     1 2px  -0.25532     1 3d1+  0.30290     1 3d2+  0.72930
                                    2 1s   -0.30590     2 1s    1.33658     2 2px   0.25532     2 3d1+  0.30290     2 3d2+ -0.72930
                                    3 1s    0.36755     4 1s    0.36755     5 1s   -0.36755     6 1s   -0.36755
   34.1    -0.00000     2.72143     1 1s    0.61578     1 3d1+  0.85408     1 3d2+ -0.28005     2 1s   -0.61578     2 3d1+  0.85408
                                    2 3d2+  0.28005
   35.1    -0.00000     3.01011     1 2py   0.39043     1 3d1-  0.93024     2 2py  -0.39043     2 3d1-  0.93024     3 1s   -0.45110
                                    4 1s    0.45110     5 1s    0.45110     6 1s   -0.45110
   36.1    -0.00000     3.04339     1 1s    0.31571     1 1s    2.01307     1 2pz  -0.79010     1 2pz  -1.17898     1 3d0   1.11360
                                    2 1s   -0.31571     2 1s   -2.01307     2 2pz  -0.79010     2 2pz  -1.17898     2 3d0  -1.11360


 Natural orbital dump (state averaged) at molpro section  2140.2    (Orbital set 2)



 **********************************************************************************************************************************
 DATASETS  * FILE   NREC   LENGTH (MB)   RECORD NAMES
              1      20       31.61       500      610      700      900      950      970     1000      129      960     1100   
                                          VAR    BASINP    GEOM    SYMINP    ZMAT    AOBASIS   BASIS     P2S    ABASIS      S 
                                         1400     1410     1200     1210     1080     1600     1650     1300     1700     1380   
                                           T        V       H0       H01     AOSYM     SMH    MOLCAS    ERIS     OPER     JKOP   

              2       5        5.42       700     1000      520     2100     2140   
                                         GEOM     BASIS   MCVARS     RHF     MCSCF   

 PROGRAMS   *        TOTAL     MULTI    HF-SCF       INT
 CPU TIMES  *         0.74      0.28      0.11      0.24
 REAL TIME  *         1.03 SEC
 DISK USED  *        38.79 MB
 **********************************************************************************************************************************
 Molecular orbitals read from record     2140.2  Type=MCSCF/NATURAL (state averaged)
 Occupation numbers read from record     2140.2  Type=MCSCF/NATURAL (state averaged)
 Orbital energies read from record       2140.2  Type=MCSCF/NATURAL (state averaged)
 Redundancy group numbers read from rec  2140.2  Type=MCSCF/NATURAL (state averaged)

 MULTI/6-31G* energy=    -77.495809098233

           MULTI          HF-SCF
    -77.49580910    -78.01729145
 **********************************************************************************************************************************
 Molpro calculation terminated
