
 Primary working directories    : /scratch.local/johan406.molpro_temp/molpro.SNArxO45TT
 Secondary working directories  : /scratch.local/johan406.molpro_temp/molpro.SNArxO45TT
 Wavefunction directory         : /home/goodpast/johan406/wfu/
 Main file repository           : /scratch.local/johan406.molpro_temp/molpro.SNArxO45TT/

 id        : roweumn

 Nodes     nprocs
 cn0117       1

 Using customized tuning parameters: mindgm=1; mindgv=20; mindgc=4; mindgr=1; noblas=0; minvec=7
 default implementation of scratch files=df  


 Variables initialized (934), CPU time= 0.00 sec
                                                                                 !leave this line blank
 
 gprint, orbitals=30
 memory, 125., m
 symmetry, nosym
 nelect=16
 basis=6-31g*
 
 geometry={
 C -0.0304 0.0 0.6691
 C -0.0304 0.0 -0.6691
 H 0.19 0.9149 1.2348
 H 0.19 -0.9149 1.2348
 H 0.19 0.9149 -1.2348
 H 0.19 -0.9149 -1.2348
 }
 
 hf
 {multi,
 closed 7
 occ 9
 wf,spin=0;STATE,3
 }
 
 Commands  initialized (763), CPU time= 0.01 sec, 617 directives.
 Default parameters read. Elapsed time= 0.08 sec

 Checking input...
 Passed
1


                                         ***  PROGRAM SYSTEM MOLPRO  ***
                                       Copyright, TTI GmbH Stuttgart, 2015
                                    Version 2019.2 linked Oct 25 2019 22:50:27


 **********************************************************************************************************************************
 LABEL *                                                                                 
  64 bit serial version                                                                  DATE: 26-Jan-23          TIME: 19:51:00  
 **********************************************************************************************************************************

 SHA1:             8dbd9ae1082e4ce945b0f27595c9eb2d4aa09004
 **********************************************************************************************************************************


 Variable memory set to  125000000 words,  buffer space 

 SETTING NELECT         =        16.00000000                                  
 SETTING BASIS          =    6-31G*
 ZSYMEL=NOSYM


Geometry recognized as XYZ



 Recomputing integrals since basis changed


 Using spherical harmonics

 Library entry C      S 6-31G                selected for orbital group  1
 Library entry C      P 6-31G                selected for orbital group  1
 Library entry C      D 6-31G*               selected for orbital group  1
 Library entry H      S 6-31G                selected for orbital group  2


 PROGRAM * SEWARD (Integral evaluation for generally contracted gaussian basis sets)     Author: Roland Lindh, 1990

 Geometry written to block  1 of record 700


 Point group  C1  



 ATOMIC COORDINATES

 NR  ATOM    CHARGE       X              Y              Z

   1  C       6.00   -0.057447674    0.000000000    1.264415750
   2  C       6.00   -0.057447674    0.000000000   -1.264415750
   3  H       1.00    0.359047964    1.728910431    2.333433819
   4  H       1.00    0.359047964   -1.728910431    2.333433819
   5  H       1.00    0.359047964    1.728910431   -2.333433819
   6  H       1.00    0.359047964   -1.728910431   -2.333433819

 Bond lengths in Bohr (Angstrom)

 1-2  2.528831500  1-3  2.074945668  1-4  2.074945668  2-5  2.074945668  2-6  2.074945668
     ( 1.338200000)     ( 1.098013962)     ( 1.098013962)     ( 1.098013962)     ( 1.098013962)

 Bond angles

  1-2-5  121.01101945   1-2-6  121.01101945   2-1-3  121.01101945   2-1-4  121.01101945

  3-1-4  112.86430688   5-2-6  112.86430688

 NUCLEAR CHARGE:                   16
 NUMBER OF PRIMITIVE AOS:          72
 NUMBER OF SYMMETRY AOS:           70
 NUMBER OF CONTRACTIONS:           36   (   36A   )
 NUMBER OF CORE ORBITALS:           2   (    2A   )
 NUMBER OF VALENCE ORBITALS:       12   (   12A   )


 NUCLEAR REPULSION ENERGY   33.13369452


 Eigenvalues of metric

         1 0.823E-02 0.226E-01 0.385E-01 0.454E-01 0.791E-01 0.192E+00 0.215E+00 0.227E+00


 Contracted 2-electron integrals neglected if value below      1.0D-11
 AO integral compression algorithm  1   Integral accuracy      1.0D-11

     1.049 MB (compressed) written to integral file ( 51.2%)


 NUMBER OF SORTED TWO-ELECTRON INTEGRALS:     222111.     BUFFER LENGTH:  32768
 NUMBER OF SEGMENTS:   1  SEGMENT LENGTH:     222111      RECORD LENGTH: 524288

 Memory used in sort:       0.78 MW

 SORT1 READ      284735. AND WROTE      157591. INTEGRALS IN      1 RECORDS. CPU TIME:     0.00 SEC, REAL TIME:     0.00 SEC
 SORT2 READ      157591. AND WROTE      222111. INTEGRALS IN      4 RECORDS. CPU TIME:     0.02 SEC, REAL TIME:     0.03 SEC

 FILE SIZES:   FILE 1:    31.1 MBYTE,  FILE 4:     4.2 MBYTE,   TOTAL:     35.4 MBYTE

 OPERATOR DM      FOR CENTER  0  COORDINATES:    0.000000    0.000000    0.000000


 **********************************************************************************************************************************
 DATASETS  * FILE   NREC   LENGTH (MB)   RECORD NAMES
              1      19       30.88       500      610      700      900      950      970     1000      129      960     1100   
                                          VAR    BASINP    GEOM    SYMINP    ZMAT    AOBASIS   BASIS     P2S    ABASIS      S 
                                         1400     1410     1200     1210     1080     1600     1650     1300     1700   
                                           T        V       H0       H01     AOSYM     SMH    MOLCAS    ERIS     OPER   

 PROGRAMS   *        TOTAL       INT
 CPU TIMES  *         0.37      0.27
 REAL TIME  *         0.58 SEC
 DISK USED  *        35.71 MB
 **********************************************************************************************************************************


 PROGRAM * RHF-SCF (CLOSED SHELL)       Authors: W. Meyer, H.-J. Werner


 NUMBER OF ELECTRONS:       8+    8-    SPACE SYMMETRY=1    SPIN SYMMETRY: Singlet 
 CONVERGENCE THRESHOLDS:    1.00E-05 (Density)    1.00E-07 (Energy)
 MAX. NUMBER OF ITERATIONS:       60
 INTERPOLATION TYPE:            DIIS
 INTERPOLATION STEPS:              2 (START)      1 (STEP)
 LEVEL SHIFTS:                  0.00 (CLOSED)  0.00 (OPEN) 



 Orbital guess generated from atomic densities. Full valence occupancy:    8

 Molecular orbital dump at record        2100.2

 Initial occupancy:   8

 ITERATION    DDIFF          GRAD             ENERGY        2-EL.EN.            DIPOLE MOMENTS         DIIS   ORB.
    1      0.000D+00      0.000D+00       -77.99260285    118.204693    0.27490   -0.00000    0.00000    0    start
    2      0.000D+00      0.845D-02       -78.01394666    116.364859    0.22090    0.00000   -0.00000    1    diag
    3      0.805D-02      0.293D-02       -78.01610781    117.006145    0.24441   -0.00000   -0.00000    2    diag
    4      0.265D-02      0.720D-03       -78.01632774    116.903407    0.24135   -0.00000   -0.00000    3    diag
    5      0.107D-02      0.742D-04       -78.01633040    116.906625    0.24184   -0.00000   -0.00000    4    diag
    6      0.155D-03      0.104D-04       -78.01633045    116.906124    0.24175    0.00000    0.00000    5    diag
    7      0.200D-04      0.174D-05       -78.01633045    116.906128    0.24175    0.00000    0.00000    6    diag
    8      0.384D-05      0.309D-06       -78.01633045    116.906123    0.24174   -0.00000   -0.00000    0    orth

 Final occupancy:   8

 !RHF STATE  1.1 Energy               -78.016330452362
 Nuclear energy                        33.13369452
 One-electron energy                 -169.60308639
 Two-electron energy                   58.45306141
 Virial quotient                       -1.00152482
 !RHF STATE  1.1 Dipole moment          0.24174278    -0.00000000    -0.00000000
 Dipole moment /Debye                   0.61440861    -0.00000000    -0.00000000

 ELECTRON ORBITALS
 =================

  Orbital  Occupation    Energy     Coefficients
    1.1     2.00000   -11.23209     1 1s    0.70420     2 1s    0.70420
    2.1     2.00000   -11.23049     1 1s    0.70457     2 1s   -0.70457
    3.1     2.00000    -1.02673     1 1s    0.30125     2 1s    0.30125
    4.1     2.00000    -0.78493     1 1s    0.25178     2 1s   -0.25178
    5.1     2.00000    -0.62741     1 2py   0.31949     2 2py   0.31949
    6.1     2.00000    -0.58389     1 2pz   0.39769     2 2pz  -0.39769
    7.1     2.00000    -0.49195     1 2py   0.30139     2 2py  -0.30139
    8.1     2.00000    -0.37098     1 2px   0.36475     1 2px   0.30326     2 2px   0.36475     2 2px   0.30326
    9.1     0.00000     0.16190     1 2px   0.32930     1 2px   0.65972     2 2px  -0.32930     2 2px  -0.65972
   10.1     0.00000     0.26211     1 1s   -1.43826     1 2pz  -0.62161     2 1s   -1.43826     2 2pz   0.62161     3 1s    1.01669
                                    4 1s    1.01669     5 1s    1.01669     6 1s    1.01669
   11.1     0.00000     0.28193     1 2py  -0.25056     1 2py  -0.76770     2 2py  -0.25056     2 2py  -0.76770     3 1s    1.03985
                                    4 1s   -1.03985     5 1s    1.03985     6 1s   -1.03985
   12.1     0.00000     0.30743     1 1s    1.94884     1 2px   0.40554     2 1s   -1.94884     2 2px  -0.40554     3 1s   -1.05085
                                    4 1s   -1.05085     5 1s    1.05085     6 1s    1.05085
   13.1     0.00000     0.39507     1 2py   0.26273     1 2py   1.72939     2 2py  -0.26273     2 2py  -1.72939     3 1s   -1.51495
                                    4 1s    1.51495     5 1s    1.51495     6 1s   -1.51495
   14.1     0.00000     0.49441     1 1s   -3.01345     1 2pz   2.92943     2 1s    3.01345     2 2pz   2.92943     3 1s   -0.58730
                                    4 1s   -0.58730     5 1s    0.58730     6 1s    0.58730
   15.1     0.00000     0.66902     1 2pz  -0.55889     1 2pz   1.02358     2 2pz   0.55889     2 2pz  -1.02358
   16.1     0.00000     0.76132     1 2py  -0.41893     1 2py   0.72813     2 2py  -0.41893     2 2py   0.72813     3 1s   -0.38275
                                    4 1s    0.38275     5 1s   -0.38275     6 1s    0.38275
   17.1     0.00000     0.77559     1 2px  -0.73160     1 2px   0.63747     2 2px  -0.73160     2 2px   0.63747
   18.1     0.00000     0.88565     1 1s   -0.85744     1 1s    1.43342     1 2pz   0.36001     2 1s   -0.85744     2 1s    1.43342
                                    2 2pz  -0.36001     3 1s   -0.41566     4 1s   -0.41566     5 1s   -0.41566     6 1s   -0.41566
   19.1     0.00000     0.88802     1 2px  -0.80616     1 2px   1.10464     2 2px   0.80616     2 2px  -1.10464
   20.1     0.00000     0.98285     1 1s   -0.56978     1 2pz   0.64042     1 2pz  -0.66107     2 1s    0.56978     2 2pz   0.64042
                                    2 2pz  -0.66107     3 1s    0.37390     4 1s    0.37390     5 1s   -0.37390     6 1s   -0.37390
   21.1     0.00000     1.08865     1 2py  -0.66996     1 2py   1.03664     2 2py  -0.66996     2 2py   1.03664     3 1s    0.38963
                                    3 1s   -1.01461     4 1s   -0.38963     4 1s    1.01461     5 1s    0.38963     5 1s   -1.01461
                                    6 1s   -0.38963     6 1s    1.01461
   22.1     0.00000     1.11286     1 2py  -0.88268     1 2py   2.97461     2 2py   0.88268     2 2py  -2.97461     3 1s   -1.36410
                                    4 1s    1.36410     5 1s    1.36410     6 1s   -1.36410
   23.1     0.00000     1.19525     1 1s    1.04539     1 1s   -1.73757     1 2pz   0.35364     1 2pz  -0.49347     2 1s    1.04539
                                    2 1s   -1.73757     2 2pz  -0.35364     2 2pz   0.49347     3 1s   -0.42610     3 1s    0.86689
                                    4 1s   -0.42610     4 1s    0.86689     5 1s   -0.42610     5 1s    0.86689     6 1s   -0.42610
                                    6 1s    0.86689
   24.1     0.00000     1.20705     1 1s   -0.60439     1 1s    0.78841     1 2pz  -0.58240     1 2px   0.26981     1 2pz   1.06918
                                    2 1s    0.60439     2 1s   -0.78841     2 2pz  -0.58240     2 2px  -0.26981     2 2pz   1.06918
                                    3 1s    0.46819     3 1s   -0.96902     4 1s    0.46819     4 1s   -0.96902     5 1s   -0.46819
                                    5 1s    0.96902     6 1s   -0.46819     6 1s    0.96902
   25.1     0.00000     1.31023     1 2py   1.26969     2 2py  -1.26969     3 1s   -0.66304     4 1s    0.66304     5 1s    0.66304
                                    6 1s   -0.66304
   26.1     0.00000     1.35186     1 1s   -1.57477     1 1s    5.40962     1 2pz   0.26096     1 2pz  -1.93742     2 1s    1.57477
                                    2 1s   -5.40962     2 2pz   0.26096     2 2pz  -1.93742     3 1s   -0.29607     4 1s   -0.29607
                                    5 1s    0.29607     6 1s    0.29607
   27.1     0.00000     1.74124     1 3d1+  0.59576     2 3d1+ -0.59576
   28.1     0.00000     1.81413     1 3d2-  0.62916     2 3d2-  0.62916
   29.1     0.00000     2.16416     1 1s   -0.60786     1 3d2+  0.68194     2 1s   -0.60786     2 3d2+  0.68194     3 1s    0.35476
                                    4 1s    0.35476     5 1s    0.35476     6 1s    0.35476
   30.1     0.00000     2.26136     1 2py   0.95102     1 3d2-  0.71023     2 2py  -0.95102     2 3d2- -0.71023     3 1s   -0.31268
                                    4 1s    0.31268     5 1s    0.31268     6 1s   -0.31268
   31.1     0.00000     2.32316     1 3d2-  0.29047     1 3d1-  0.63661     2 3d2-  0.29047     2 3d1- -0.63661     3 1s   -0.49662
                                    4 1s    0.49662     5 1s   -0.49662     6 1s    0.49662
   32.1     0.00000     2.41036     1 1s   -0.50400     1 2pz   0.28811     1 2pz  -0.44059     1 3d0   0.69248     2 1s   -0.50400
                                    2 2pz  -0.28811     2 2pz   0.44059     2 3d0   0.69248
   33.1     0.00000     2.52179     1 1s    0.30568     1 1s   -1.32526     1 2px  -0.26016     1 3d1+  0.30292     1 3d2+  0.72896
                                    2 1s   -0.30568     2 1s    1.32526     2 2px   0.26016     2 3d1+  0.30292     2 3d2+ -0.72896
                                    3 1s    0.36251     4 1s    0.36251     5 1s   -0.36251     6 1s   -0.36251
   34.1     0.00000     2.74552     1 1s    0.64468     1 3d1+  0.85379     1 3d2+ -0.28023     2 1s   -0.64468     2 3d1+  0.85379
                                    2 3d2+  0.28023
   35.1     0.00000     3.01989     1 2py   0.37953     1 3d1-  0.92847     2 2py  -0.37953     2 3d1-  0.92847     3 1s   -0.44712
                                    4 1s    0.44712     5 1s    0.44712     6 1s   -0.44712
   36.1     0.00000     3.06265     1 1s    0.32434     1 1s    1.98223     1 2pz  -0.79711     1 2pz  -1.16381     1 3d0   1.11186
                                    2 1s   -0.32434     2 1s   -1.98223     2 2pz  -0.79711     2 2pz  -1.16381     2 3d0  -1.11186


 HOMO      8.1    -0.370978 =     -10.0948eV
 LUMO      9.1     0.161903 =       4.4056eV
 LUMO-HOMO         0.532881 =      14.5004eV


 **********************************************************************************************************************************
 DATASETS  * FILE   NREC   LENGTH (MB)   RECORD NAMES
              1      19       30.88       500      610      700      900      950      970     1000      129      960     1100   
                                          VAR    BASINP    GEOM    SYMINP    ZMAT    AOBASIS   BASIS     P2S    ABASIS      S 
                                         1400     1410     1200     1210     1080     1600     1650     1300     1700   
                                           T        V       H0       H01     AOSYM     SMH    MOLCAS    ERIS     OPER   

              2       4        2.86       700     1000      520     2100   
                                         GEOM     BASIS   MCVARS     RHF  

 PROGRAMS   *        TOTAL    HF-SCF       INT
 CPU TIMES  *         0.48      0.11      0.27
 REAL TIME  *         0.72 SEC
 DISK USED  *        35.71 MB
 **********************************************************************************************************************************


 PROGRAM * MULTI (Direct Multiconfiguration SCF)       Authors: P.J. Knowles, H.-J. Werner (1984)


 Number of closed-shell orbitals:   7 (   7 )
 Number of active  orbitals:        2 (   2 )
 Number of external orbitals:      27 (  27 )

 State symmetry 1

 Number of electrons:     2    Spin symmetry=Singlet   Space symmetry=1
 Number of states:        3
 Number of CSFs:          3   (4 determinants, 4 intermediate states)

 Molecular orbitals read from record     2100.2  Type=RHF/CANONICAL (state 1.1)

 Wavefunction dump at record             2140.2

 Convergence thresholds  0.10E-01 (gradient)  0.10E-05 (energy)  0.10E-02 (step length)

 Weight factors for state symmetry  1:    0.33333   0.33333   0.33333

 Number of orbital rotations:      257   (    14 Core/Active    189 Core/Virtual   0 Active/Active     54 Active/Virtual)
 Total number of variables:        269

 Micro-Iterations solved by the two-step solver

 ITER. MIC  NCI  NEG     ENERGY(VAR)     ENERGY(PROJ)   ENERGY CHANGE     GRAD(0)  GRAD(ORB)   GRAD(CI)     STEP       TIME

   1    6    5    0     -77.72634628     -77.73505183   -0.00870556    0.14118023 0.00530831 0.00000000  0.11D+00      0.10
   2    4    4    0     -77.73474240     -77.73476485   -0.00002246    0.00785382 0.00000152 0.00000000  0.37D-02      0.16
   3    3    4    0     -77.73476488     -77.73476488   -0.00000000    0.00001207 0.00000000 0.00000000  0.10D-04      0.22

 ** WVFN ****  CONVERGENCE REACHED, FINAL GRADIENT:  0.11D-09



 Results for state 1.1
 =====================

 !MCSCF STATE  1.1 Energy             -78.032925896552
 Nuclear energy                        33.13369452
 Kinetic energy                        77.98813335
 One electron energy                 -169.74823382
 Two electron energy                   58.58161341
 Virial ratio                           2.00057435

 !MCSCF STATE  1.1 Dipole moment        0.24263520     0.00000000    -0.00000000
 Dipole moment /Debye                   0.61667677     0.00000000    -0.00000000

 Results for state 2.1
 =====================

 !MCSCF STATE  2.1 Energy             -77.675070615433
 Nuclear energy                        33.13369452
 Kinetic energy                        78.16953560
 One electron energy                 -169.16100057
 Two electron energy                   58.35223543
 Virial ratio                           1.99367445

 !MCSCF STATE  2.1 Dipole moment        0.34010040     0.00000000    -0.00000000
 Dipole moment /Debye                   0.86439238     0.00000000    -0.00000000

 Results for state 3.1
 =====================

 !MCSCF STATE  3.1 Energy             -77.496298115183
 Nuclear energy                        33.13369452
 Kinetic energy                        78.35093785
 One electron energy                 -168.57376731
 Two electron energy                   57.94377468
 Virial ratio                           1.98909216

 !MCSCF STATE  3.1 Dipole moment        0.43756560    -0.00000000     0.00000000
 Dipole moment /Debye                   1.11210799    -0.00000000     0.00000000

 State-averaged charge density matrix saved on record  2140.2 (density set 1)

 !MCSCF expec         <1.1|DMX|1.1>     0.242635199251 au =     0.616676769713 Debye
 !MCSCF expec         <2.1|DMX|2.1>     0.340100401701 au =     0.864392378955 Debye
 !MCSCF trans         <3.1|DMX|1.1>    -0.041817279328 au =    -0.106281960795 Debye
 !MCSCF expec         <3.1|DMX|3.1>     0.437565604150 au =     1.112107988196 Debye

 !MCSCF trans         <2.1|DMZ|1.1>    -1.450057916210 au =    -3.685438198680 Debye
 !MCSCF trans         <3.1|DMZ|2.1>    -2.200033413138 au =    -5.591560922163 Debye


 NATURAL ORBITALS (state averaged)
 =================================

  Orbital  Occupation    Energy     Coefficients
    1.1     2.00000   -11.24865     1 1s    0.70422     2 1s    0.70422
    2.1     2.00000   -11.24734     1 1s    0.70452     2 1s   -0.70452
    3.1     2.00000    -1.04292     1 1s    0.30951     2 1s    0.30951
    4.1     2.00000    -0.79383     1 1s    0.30119     2 1s   -0.30119
    5.1     2.00000    -0.64119     1 2py   0.32551     2 2py   0.32551
    6.1     2.00000    -0.59854     1 2pz   0.39126     2 2pz  -0.39126
    7.1     2.00000    -0.49981     1 2py   0.30828     2 2py  -0.30828
    8.1     1.00000     0.01949     1 2px   0.37190     1 2px   0.63847     2 2px  -0.37190     2 2px  -0.63847
    9.1     1.00000    -0.22709     1 2px   0.34357     1 2px   0.31388     2 2px   0.34357     2 2px   0.31388
   10.1    -0.00000     0.25783     1 1s   -1.43412     1 2pz  -0.62609     2 1s   -1.43412     2 2pz   0.62609     3 1s    1.01452
                                    4 1s    1.01452     5 1s    1.01452     6 1s    1.01452
   11.1    -0.00000     0.27306     1 2py  -0.25100     1 2py  -0.75609     2 2py  -0.25100     2 2py  -0.75609     3 1s    1.03123
                                    4 1s   -1.03123     5 1s    1.03123     6 1s   -1.03123
   12.1    -0.00000     0.30210     1 1s    1.96091     1 2px   0.36773     2 1s   -1.96091     2 2px  -0.36773     3 1s   -1.05173
                                    4 1s   -1.05173     5 1s    1.05173     6 1s    1.05173
   13.1    -0.00000     0.38921     1 2py   0.26740     1 2py   1.71333     2 2py  -0.26740     2 2py  -1.71333     3 1s   -1.50722
                                    4 1s    1.50722     5 1s    1.50722     6 1s   -1.50722
   14.1    -0.00000     0.48968     1 1s   -2.98370     1 2pz   2.91330     2 1s    2.98370     2 2pz   2.91330     3 1s   -0.59533
                                    4 1s   -0.59533     5 1s    0.59533     6 1s    0.59533
   15.1    -0.00000     0.65834     1 1s    0.27492     1 2pz  -0.54974     1 2pz   1.00384     2 1s    0.27492     2 2pz   0.54974
                                    2 2pz  -1.00384
   16.1    -0.00000     0.75169     1 2py  -0.42709     1 2py   0.73627     2 2py  -0.42709     2 2py   0.73627     3 1s   -0.37849
                                    4 1s    0.37849     5 1s   -0.37849     6 1s    0.37849
   17.1    -0.00000     0.77109     1 2px  -0.74219     1 2px   0.64517     2 2px  -0.74219     2 2px   0.64517
   18.1    -0.00000     0.87173     1 2px  -0.79278     1 2px   1.14811     2 2px   0.79278     2 2px  -1.14811
   19.1    -0.00000     0.87969     1 1s   -0.86189     1 1s    1.45782     1 2pz   0.39817     2 1s   -0.86189     2 1s    1.45782
                                    2 2pz  -0.39817     3 1s   -0.41543     4 1s   -0.41543     5 1s   -0.41543     6 1s   -0.41543
   20.1    -0.00000     0.96382     1 1s   -0.41128     1 2pz   0.64468     1 2pz  -0.73187     2 1s    0.41128     2 2pz   0.64468
                                    2 2pz  -0.73187     3 1s    0.37351     4 1s    0.37351     5 1s   -0.37351     6 1s   -0.37351
   21.1    -0.00000     1.07389     1 2py  -0.65885     1 2py   1.03902     2 2py  -0.65885     2 2py   1.03902     3 1s    0.39041
                                    3 1s   -1.02358     4 1s   -0.39041     4 1s    1.02358     5 1s    0.39041     5 1s   -1.02358
                                    6 1s   -0.39041     6 1s    1.02358
   22.1    -0.00000     1.10165     1 2py  -0.88145     1 2py   2.96800     2 2py   0.88145     2 2py  -2.96800     3 1s   -1.37223
                                    4 1s    1.37223     5 1s    1.37223     6 1s   -1.37223
   23.1    -0.00000     1.18962     1 1s    1.04056     1 1s   -1.73391     1 2pz   0.35883     1 2pz  -0.49887     2 1s    1.04056
                                    2 1s   -1.73391     2 2pz  -0.35883     2 2pz   0.49887     3 1s   -0.42707     3 1s    0.86704
                                    4 1s   -0.42707     4 1s    0.86704     5 1s   -0.42707     5 1s    0.86704     6 1s   -0.42707
                                    6 1s    0.86704
   24.1    -0.00000     1.20276     1 1s   -0.58176     1 1s    0.71448     1 2pz  -0.59367     1 2px   0.25517     1 2pz   1.10233
                                    2 1s    0.58176     2 1s   -0.71448     2 2pz  -0.59367     2 2px  -0.25517     2 2pz   1.10233
                                    3 1s    0.46865     3 1s   -0.96556     4 1s    0.46865     4 1s   -0.96556     5 1s   -0.46865
                                    5 1s    0.96556     6 1s   -0.46865     6 1s    0.96556
   25.1    -0.00000     1.30220     1 2py   1.29591     2 2py  -1.29591     3 1s   -0.66178     4 1s    0.66178     5 1s    0.66178
                                    6 1s   -0.66178
   26.1    -0.00000     1.33189     1 1s   -1.58468     1 1s    5.43198     1 2pz  -1.91627     2 1s    1.58468     2 1s   -5.43198
                                    2 2pz  -1.91627     3 1s   -0.31361     4 1s   -0.31361     5 1s    0.31361     6 1s    0.31361
   27.1    -0.00000     1.71748     1 3d1+  0.59637     2 3d1+ -0.59637
   28.1    -0.00000     1.79998     1 3d2-  0.62913     2 3d2-  0.62913
   29.1    -0.00000     2.14899     1 1s   -0.60354     1 3d2+  0.68259     2 1s   -0.60354     2 3d2+  0.68259     3 1s    0.35679
                                    4 1s    0.35679     5 1s    0.35679     6 1s    0.35679
   30.1    -0.00000     2.23858     1 2py   0.96317     1 3d2-  0.70963     2 2py  -0.96317     2 3d2- -0.70963     3 1s   -0.31768
                                    4 1s    0.31768     5 1s    0.31768     6 1s   -0.31768
   31.1    -0.00000     2.30708     1 3d2-  0.29061     1 3d1-  0.63523     2 3d2-  0.29061     2 3d1- -0.63523     3 1s   -0.49934
                                    4 1s    0.49934     5 1s   -0.49934     6 1s    0.49934
   32.1    -0.00000     2.38982     1 1s   -0.50284     1 2pz   0.29363     1 2pz  -0.44296     1 3d0   0.69247     2 1s   -0.50284
                                    2 2pz  -0.29363     2 2pz   0.44296     2 3d0   0.69247
   33.1    -0.00000     2.50457     1 1s    0.30817     1 1s   -1.34247     1 2px  -0.26041     1 3d1+  0.30078     1 3d2+  0.72893
                                    2 1s   -0.30817     2 1s    1.34247     2 2px   0.26041     2 3d1+  0.30078     2 3d2+ -0.72893
                                    3 1s    0.36560     4 1s    0.36560     5 1s   -0.36560     6 1s   -0.36560
   34.1    -0.00000     2.72231     1 1s    0.61927     1 3d1+  0.85499     1 3d2+ -0.27808     2 1s   -0.61927     2 3d1+  0.85499
                                    2 3d2+  0.27808
   35.1    -0.00000     3.00739     1 2py   0.38095     1 3d1-  0.92797     2 2py  -0.38095     2 3d1-  0.92797     3 1s   -0.44923
                                    4 1s    0.44923     5 1s    0.44923     6 1s   -0.44923
   36.1    -0.00000     3.04335     1 1s    0.31613     1 1s    2.01092     1 2pz  -0.79010     1 2pz  -1.17818     1 3d0   1.11359
                                    2 1s   -0.31613     2 1s   -2.01092     2 2pz  -0.79010     2 2pz  -1.17818     2 3d0  -1.11359


 Natural orbital dump (state averaged) at molpro section  2140.2    (Orbital set 2)



 **********************************************************************************************************************************
 DATASETS  * FILE   NREC   LENGTH (MB)   RECORD NAMES
              1      20       31.61       500      610      700      900      950      970     1000      129      960     1100   
                                          VAR    BASINP    GEOM    SYMINP    ZMAT    AOBASIS   BASIS     P2S    ABASIS      S 
                                         1400     1410     1200     1210     1080     1600     1650     1300     1700     1380   
                                           T        V       H0       H01     AOSYM     SMH    MOLCAS    ERIS     OPER     JKOP   

              2       5        5.42       700     1000      520     2100     2140   
                                         GEOM     BASIS   MCVARS     RHF     MCSCF   

 PROGRAMS   *        TOTAL     MULTI    HF-SCF       INT
 CPU TIMES  *         0.75      0.27      0.11      0.27
 REAL TIME  *         1.04 SEC
 DISK USED  *        38.79 MB
 **********************************************************************************************************************************
 Molecular orbitals read from record     2140.2  Type=MCSCF/NATURAL (state averaged)
 Occupation numbers read from record     2140.2  Type=MCSCF/NATURAL (state averaged)
 Orbital energies read from record       2140.2  Type=MCSCF/NATURAL (state averaged)
 Redundancy group numbers read from rec  2140.2  Type=MCSCF/NATURAL (state averaged)

 MULTI/6-31G* energy=    -77.496298115183

           MULTI          HF-SCF
    -77.49629812    -78.01633045
 **********************************************************************************************************************************
 Molpro calculation terminated
