
 Primary working directories    : /scratch.local/johan406.molpro_temp/molpro.sLISUK9LTC
 Secondary working directories  : /scratch.local/johan406.molpro_temp/molpro.sLISUK9LTC
 Wavefunction directory         : /home/goodpast/johan406/wfu/
 Main file repository           : /scratch.local/johan406.molpro_temp/molpro.sLISUK9LTC/

 id        : roweumn

 Nodes     nprocs
 cn0117       1

 Using customized tuning parameters: mindgm=1; mindgv=20; mindgc=4; mindgr=1; noblas=0; minvec=7
 default implementation of scratch files=df  


 Variables initialized (934), CPU time= 0.00 sec
                                                                                 !leave this line blank
 
 gprint, orbitals=30
 memory, 125., m
 symmetry, nosym
 nelect=16
 basis=6-31g*
 
 geometry={
 C -0.0 0.0 0.6691
 C 0.0 0.0 -0.6691
 H 0.062 0.9149 1.2348
 H -0.062 -0.9149 1.2348
 H -0.062 0.9149 -1.2348
 H 0.062 -0.9149 -1.2348
 }
 
 hf
 {multi,
 closed 7
 occ 9
 wf,spin=0;STATE,3
 }
 
 Commands  initialized (763), CPU time= 0.01 sec, 617 directives.
 Default parameters read. Elapsed time= 0.08 sec

 Checking input...
 Passed
1


                                         ***  PROGRAM SYSTEM MOLPRO  ***
                                       Copyright, TTI GmbH Stuttgart, 2015
                                    Version 2019.2 linked Oct 25 2019 22:50:27


 **********************************************************************************************************************************
 LABEL *                                                                                 
  64 bit serial version                                                                  DATE: 26-Jan-23          TIME: 19:54:39  
 **********************************************************************************************************************************

 SHA1:             8dbd9ae1082e4ce945b0f27595c9eb2d4aa09004
 **********************************************************************************************************************************


 Variable memory set to  125000000 words,  buffer space 

 SETTING NELECT         =        16.00000000                                  
 SETTING BASIS          =    6-31G*
 ZSYMEL=NOSYM


Geometry recognized as XYZ



 Recomputing integrals since basis changed


 Using spherical harmonics

 Library entry C      S 6-31G                selected for orbital group  1
 Library entry C      P 6-31G                selected for orbital group  1
 Library entry C      D 6-31G*               selected for orbital group  1
 Library entry H      S 6-31G                selected for orbital group  2


 PROGRAM * SEWARD (Integral evaluation for generally contracted gaussian basis sets)     Author: Roland Lindh, 1990

 Geometry written to block  1 of record 700


 Point group  C1  



 ATOMIC COORDINATES

 NR  ATOM    CHARGE       X              Y              Z

   1  C       6.00   -0.000000000    0.000000000    1.264415750
   2  C       6.00    0.000000000    0.000000000   -1.264415750
   3  H       1.00    0.117163020    1.728910431    2.333433819
   4  H       1.00   -0.117163020   -1.728910431    2.333433819
   5  H       1.00   -0.117163020    1.728910431   -2.333433819
   6  H       1.00    0.117163020   -1.728910431   -2.333433819

 Bond lengths in Bohr (Angstrom)

 1-2  2.528831500  1-3  2.036088918  1-4  2.036088918  2-5  2.036088918  2-6  2.036088918
     ( 1.338200000)     ( 1.077451855)     ( 1.077451855)     ( 1.077451855)     ( 1.077451855)

 Bond angles

  1-2-5  121.67060354   1-2-6  121.67060354   2-1-3  121.67060354   2-1-4  121.67060354

  3-1-4  116.65879291   5-2-6  116.65879291

 NUCLEAR CHARGE:                   16
 NUMBER OF PRIMITIVE AOS:          72
 NUMBER OF SYMMETRY AOS:           70
 NUMBER OF CONTRACTIONS:           36   (   36A   )
 NUMBER OF CORE ORBITALS:           2   (    2A   )
 NUMBER OF VALENCE ORBITALS:       12   (   12A   )


 NUCLEAR REPULSION ENERGY   33.38244395


 Eigenvalues of metric

         1 0.831E-02 0.175E-01 0.378E-01 0.465E-01 0.707E-01 0.192E+00 0.211E+00 0.225E+00


 Contracted 2-electron integrals neglected if value below      1.0D-11
 AO integral compression algorithm  1   Integral accuracy      1.0D-11

     1.049 MB (compressed) written to integral file ( 50.3%)


 NUMBER OF SORTED TWO-ELECTRON INTEGRALS:     222111.     BUFFER LENGTH:  32768
 NUMBER OF SEGMENTS:   1  SEGMENT LENGTH:     222111      RECORD LENGTH: 524288

 Memory used in sort:       0.78 MW

 SORT1 READ      284735. AND WROTE      156903. INTEGRALS IN      1 RECORDS. CPU TIME:     0.00 SEC, REAL TIME:     0.00 SEC
 SORT2 READ      156903. AND WROTE      222111. INTEGRALS IN      4 RECORDS. CPU TIME:     0.02 SEC, REAL TIME:     0.03 SEC

 FILE SIZES:   FILE 1:    31.1 MBYTE,  FILE 4:     4.2 MBYTE,   TOTAL:     35.4 MBYTE

 OPERATOR DM      FOR CENTER  0  COORDINATES:    0.000000    0.000000    0.000000


 **********************************************************************************************************************************
 DATASETS  * FILE   NREC   LENGTH (MB)   RECORD NAMES
              1      19       30.87       500      610      700      900      950      970     1000      129      960     1100   
                                          VAR    BASINP    GEOM    SYMINP    ZMAT    AOBASIS   BASIS     P2S    ABASIS      S 
                                         1400     1410     1200     1210     1080     1600     1650     1300     1700   
                                           T        V       H0       H01     AOSYM     SMH    MOLCAS    ERIS     OPER   

 PROGRAMS   *        TOTAL       INT
 CPU TIMES  *         0.36      0.26
 REAL TIME  *         0.58 SEC
 DISK USED  *        35.71 MB
 **********************************************************************************************************************************


 PROGRAM * RHF-SCF (CLOSED SHELL)       Authors: W. Meyer, H.-J. Werner


 NUMBER OF ELECTRONS:       8+    8-    SPACE SYMMETRY=1    SPIN SYMMETRY: Singlet 
 CONVERGENCE THRESHOLDS:    1.00E-05 (Density)    1.00E-07 (Energy)
 MAX. NUMBER OF ITERATIONS:       60
 INTERPOLATION TYPE:            DIIS
 INTERPOLATION STEPS:              2 (START)      1 (STEP)
 LEVEL SHIFTS:                  0.00 (CLOSED)  0.00 (OPEN) 



 Orbital guess generated from atomic densities. Full valence occupancy:    8

 Molecular orbital dump at record        2100.2

 Initial occupancy:   8

 ITERATION    DDIFF          GRAD             ENERGY        2-EL.EN.            DIPOLE MOMENTS         DIIS   ORB.
    1      0.000D+00      0.000D+00       -78.00515595    118.680018    0.00000   -0.00000   -0.00000    0    start
    2      0.000D+00      0.858D-02       -78.02708657    116.840197    0.00000   -0.00000   -0.00000    1    diag
    3      0.821D-02      0.292D-02       -78.02921884    117.471702   -0.00000   -0.00000    0.00000    2    diag
    4      0.264D-02      0.713D-03       -78.02943009    117.372739    0.00000   -0.00000    0.00000    3    diag
    5      0.107D-02      0.696D-04       -78.02943238    117.375668   -0.00000   -0.00000   -0.00000    4    diag
    6      0.147D-03      0.921D-05       -78.02943243    117.375225   -0.00000   -0.00000   -0.00000    5    diag
    7      0.162D-04      0.188D-05       -78.02943243    117.375236    0.00000    0.00000   -0.00000    6    diag
    8      0.264D-05      0.354D-06       -78.02943243    117.375230    0.00000    0.00000    0.00000    0    orth

 Final occupancy:   8

 !RHF STATE  1.1 Energy               -78.029432431657
 Nuclear energy                        33.38244395
 One-electron energy                 -170.09949125
 Two-electron energy                   58.68761487
 Virial quotient                       -1.00020949
 !RHF STATE  1.1 Dipole moment          0.00000000     0.00000000     0.00000000
 Dipole moment /Debye                   0.00000000     0.00000000     0.00000000

 ELECTRON ORBITALS
 =================

  Orbital  Occupation    Energy     Coefficients
    1.1     2.00000   -11.22550     1 1s    0.70419     2 1s    0.70419
    2.1     2.00000   -11.22391     1 1s    0.70454     2 1s   -0.70454
    3.1     2.00000    -1.02671     1 1s    0.30213     2 1s    0.30213
    4.1     2.00000    -0.79135     1 1s    0.24258
    5.1     2.00000    -0.63798     1 2py   0.32130     2 2py   0.32130
    6.1     2.00000    -0.58232     1 2pz   0.40708     2 2pz  -0.40708
    7.1     2.00000    -0.50655     1 2py   0.30222     2 2py  -0.30222
    8.1     2.00000    -0.36781     1 2px   0.37038     1 2px   0.30700     2 2px   0.37038     2 2px   0.30700
    9.1     0.00000     0.17721     1 2px   0.34026     1 2px   0.72550     2 2px  -0.34026     2 2px  -0.72550
   10.1     0.00000     0.26645     1 1s   -1.49226     1 2pz  -0.64551     2 1s   -1.49226     2 2pz   0.64551     3 1s    1.03933
                                    4 1s    1.03933     5 1s    1.03933     6 1s    1.03933
   11.1     0.00000     0.29493     1 2py  -0.25082     1 2py  -0.80547     2 2py  -0.25082     2 2py  -0.80547     3 1s    1.10049
                                    4 1s   -1.10049     5 1s    1.10049     6 1s   -1.10049
   12.1     0.00000     0.30873     1 1s    1.92553     2 1s   -1.92553     3 1s   -1.07448     4 1s   -1.07448     5 1s    1.07448
                                    6 1s    1.07448
   13.1     0.00000     0.39069     1 2py  -1.87063     2 2py   1.87063     3 1s    1.62470     4 1s   -1.62470     5 1s   -1.62470
                                    6 1s    1.62470
   14.1     0.00000     0.49007     1 1s   -2.99763     1 2pz   2.95043     2 1s    2.99763     2 2pz   2.95043     3 1s   -0.58361
                                    4 1s   -0.58361     5 1s    0.58361     6 1s    0.58361
   15.1     0.00000     0.66927     1 2pz  -0.55606     1 2pz   1.03779     2 2pz   0.55606     2 2pz  -1.03779
   16.1     0.00000     0.76467     1 2py  -0.40012     1 2py   0.77394     2 2py  -0.40012     2 2py   0.77394     3 1s   -0.38669
                                    4 1s    0.38669     5 1s   -0.38669     6 1s    0.38669
   17.1     0.00000     0.77756     1 2px  -0.73871     1 2px   0.63931     2 2px  -0.73871     2 2px   0.63931
   18.1     0.00000     0.86293     1 1s   -0.88502     1 1s    1.45713     1 2pz   0.33660     2 1s   -0.88502     2 1s    1.45713
                                    2 2pz  -0.33660     3 1s   -0.39713     4 1s   -0.39713     5 1s   -0.39713     6 1s   -0.39713
   19.1     0.00000     0.89001     1 2px  -0.81653     1 2px   1.07236     2 2px   0.81653     2 2px  -1.07236
   20.1     0.00000     0.95417     1 1s   -0.86921     1 2pz   0.60348     1 2pz  -0.45877     2 1s    0.86921     2 2pz   0.60348
                                    2 2pz  -0.45877     3 1s    0.38379     4 1s    0.38379     5 1s   -0.38379     6 1s   -0.38379
   21.1     0.00000     1.11604     1 2py  -0.68781     1 2py   1.09920     2 2py  -0.68781     2 2py   1.09920     3 1s    0.38185
                                    3 1s   -1.06292     4 1s   -0.38185     4 1s    1.06292     5 1s    0.38185     5 1s   -1.06292
                                    6 1s   -0.38185     6 1s    1.06292
   22.1     0.00000     1.15858     1 2py   0.92254     1 2py  -2.93820     2 2py  -0.92254     2 2py   2.93820     3 1s    1.50368
                                    4 1s   -1.50368     5 1s   -1.50368     6 1s    1.50368
   23.1     0.00000     1.21482     1 1s    1.03845     1 1s   -1.73112     1 2pz   0.36544     1 2pz  -0.49717     2 1s    1.03845
                                    2 1s   -1.73112     2 2pz  -0.36544     2 2pz   0.49717     3 1s   -0.43887     3 1s    0.86791
                                    4 1s   -0.43887     4 1s    0.86791     5 1s   -0.43887     5 1s    0.86791     6 1s   -0.43887
                                    6 1s    0.86791
   24.1     0.00000     1.22046     1 1s   -0.53199     1 1s    0.51631     1 2pz  -0.62459     1 2pz   1.22129     2 1s    0.53199
                                    2 1s   -0.51631     2 2pz  -0.62459     2 2pz   1.22129     3 1s    0.46904     3 1s   -0.96829
                                    4 1s    0.46904     4 1s   -0.96829     5 1s   -0.46904     5 1s    0.96829     6 1s   -0.46904
                                    6 1s    0.96829
   25.1     0.00000     1.33794     1 1s   -1.58901     1 1s    5.37957     1 2pz   0.26540     1 2pz  -1.92432     2 1s    1.58901
                                    2 1s   -5.37957     2 2pz   0.26540     2 2pz  -1.92432     3 1s   -0.32493     4 1s   -0.32493
                                    5 1s    0.32493     6 1s    0.32493
   26.1     0.00000     1.46003     1 2py   2.42736     2 2py  -2.42736     3 1s   -0.68391     3 1s   -0.62161     4 1s    0.68391
                                    4 1s    0.62161     5 1s    0.68391     5 1s    0.62161     6 1s   -0.68391     6 1s   -0.62161
   27.1     0.00000     1.75233     1 2py   0.60431     1 3d1+  0.61065     2 2py  -0.60431     2 3d1+ -0.61065
   28.1     0.00000     1.82536     1 3d2-  0.67915     2 3d2-  0.67915
   29.1     0.00000     2.10700     1 3d2-  0.64339     1 3d2+  0.34187     2 3d2- -0.64339     2 3d2+  0.34187
   30.1     0.00000     2.22829     1 1s   -0.55493     1 3d2- -0.35649     1 3d2+  0.62364     2 1s   -0.55493     2 3d2-  0.35649
                                    2 3d2+  0.62364     3 1s    0.34477     4 1s    0.34477     5 1s    0.34477     6 1s    0.34477
   31.1     0.00000     2.32838     1 2py   0.27425     1 3d1-  0.69019     2 2py   0.27425     2 3d1- -0.69019     3 1s   -0.51563
                                    4 1s    0.51563     5 1s   -0.51563     6 1s    0.51563
   32.1     0.00000     2.40883     1 1s   -0.50508     1 2pz   0.28039     1 2pz  -0.44868     1 3d0   0.68703     2 1s   -0.50508
                                    2 2pz  -0.28039     2 2pz   0.44868     2 3d0   0.68703
   33.1     0.00000     2.62188     1 1s    0.29217     1 1s   -1.35241     1 2pz   0.27703     1 3d2+  0.79584     2 1s   -0.29217
                                    2 1s    1.35241     2 2pz   0.27703     2 3d2+ -0.79584     3 1s    0.44357     4 1s    0.44357
                                    5 1s   -0.44357     6 1s   -0.44357
   34.1     0.00000     2.71029     1 2px  -0.26183     1 3d1+  0.90200     2 2px   0.26183     2 3d1+  0.90200
   35.1     0.00000     3.05869     1 2py   0.55189     1 3d1-  0.96941     2 2py  -0.55189     2 3d1-  0.96941     3 1s   -0.47529
                                    4 1s    0.47529     5 1s    0.47529     6 1s   -0.47529
   36.1     0.00000     3.06228     1 1s    0.31590     1 1s    2.02341     1 2pz  -0.79674     1 2pz  -1.17713     1 3d0   1.11195
                                    2 1s   -0.31590     2 1s   -2.02341     2 2pz  -0.79674     2 2pz  -1.17713     2 3d0  -1.11195


 HOMO      8.1    -0.367806 =     -10.0085eV
 LUMO      9.1     0.177208 =       4.8221eV
 LUMO-HOMO         0.545014 =      14.8306eV


 **********************************************************************************************************************************
 DATASETS  * FILE   NREC   LENGTH (MB)   RECORD NAMES
              1      19       30.87       500      610      700      900      950      970     1000      129      960     1100   
                                          VAR    BASINP    GEOM    SYMINP    ZMAT    AOBASIS   BASIS     P2S    ABASIS      S 
                                         1400     1410     1200     1210     1080     1600     1650     1300     1700   
                                           T        V       H0       H01     AOSYM     SMH    MOLCAS    ERIS     OPER   

              2       4        2.86       700     1000      520     2100   
                                         GEOM     BASIS   MCVARS     RHF  

 PROGRAMS   *        TOTAL    HF-SCF       INT
 CPU TIMES  *         0.47      0.11      0.26
 REAL TIME  *         0.73 SEC
 DISK USED  *        35.71 MB
 **********************************************************************************************************************************


 PROGRAM * MULTI (Direct Multiconfiguration SCF)       Authors: P.J. Knowles, H.-J. Werner (1984)


 Number of closed-shell orbitals:   7 (   7 )
 Number of active  orbitals:        2 (   2 )
 Number of external orbitals:      27 (  27 )

 State symmetry 1

 Number of electrons:     2    Spin symmetry=Singlet   Space symmetry=1
 Number of states:        3
 Number of CSFs:          3   (4 determinants, 4 intermediate states)

 Molecular orbitals read from record     2100.2  Type=RHF/CANONICAL (state 1.1)

 Wavefunction dump at record             2140.2

 Convergence thresholds  0.10E-01 (gradient)  0.10E-05 (energy)  0.10E-02 (step length)

 Weight factors for state symmetry  1:    0.33333   0.33333   0.33333

 Number of orbital rotations:      257   (    14 Core/Active    189 Core/Virtual   0 Active/Active     54 Active/Virtual)
 Total number of variables:        269

 Micro-Iterations solved by the two-step solver

 ITER. MIC  NCI  NEG     ENERGY(VAR)     ENERGY(PROJ)   ENERGY CHANGE     GRAD(0)  GRAD(ORB)   GRAD(CI)     STEP       TIME

   1    7    6    0     -77.73252600     -77.74023600   -0.00771000    0.13158058 0.00104258 0.00000000  0.92D-01      0.12
   2    4    4    0     -77.74008099     -77.74009516   -0.00001417    0.00551245 0.00000538 0.00000000  0.63D-02      0.20
   3    2    3    0     -77.74009519     -77.74009519   -0.00000000    0.00001372 0.00000000 0.00000000  0.41D-04      0.25

 ** WVFN ****  CONVERGENCE REACHED, FINAL GRADIENT:  0.57D-09



 Results for state 1.1
 =====================

 !MCSCF STATE  1.1 Energy             -78.044798748305
 Nuclear energy                        33.38244395
 Kinetic energy                        78.07116650
 One electron energy                 -170.22261656
 Two electron energy                   58.79537386
 Virial ratio                           1.99966226

 !MCSCF STATE  1.1 Dipole moment        0.00000000     0.00000000    -0.00000000
 Dipole moment /Debye                   0.00000000     0.00000000    -0.00000000

 Results for state 2.1
 =====================

 !MCSCF STATE  2.1 Energy             -77.680854166327
 Nuclear energy                        33.38244395
 Kinetic energy                        78.24414113
 One electron energy                 -169.67374491
 Two electron energy                   58.61044680
 Virial ratio                           1.99280091

 !MCSCF STATE  2.1 Dipole moment        0.00000000     0.00000000    -0.00000000
 Dipole moment /Debye                   0.00000000     0.00000000    -0.00000000

 Results for state 3.1
 =====================

 !MCSCF STATE  3.1 Energy             -77.494632665790
 Nuclear energy                        33.38244395
 Kinetic energy                        78.41711576
 One electron energy                 -169.12487327
 Two electron energy                   58.24779665
 Virial ratio                           1.98823620

 !MCSCF STATE  3.1 Dipole moment        0.00000000     0.00000000    -0.00000000
 Dipole moment /Debye                   0.00000000     0.00000000    -0.00000000

 State-averaged charge density matrix saved on record  2140.2 (density set 1)

 !MCSCF trans         <2.1|DMZ|1.1>    -1.433577916096 au =    -3.643552959992 Debye
 !MCSCF trans         <3.1|DMZ|2.1>    -2.112410405057 au =    -5.368860037286 Debye


 NATURAL ORBITALS (state averaged)
 =================================

  Orbital  Occupation    Energy     Coefficients
    1.1     2.00000   -11.23992     1 1s    0.70420     2 1s    0.70420
    2.1     2.00000   -11.23857     1 1s    0.70451     2 1s   -0.70451
    3.1     2.00000    -1.04018     1 1s    0.30952     2 1s    0.30952
    4.1     2.00000    -0.79864     1 1s    0.28413     2 1s   -0.28413
    5.1     2.00000    -0.64859     1 2py   0.32681     2 2py   0.32681
    6.1     2.00000    -0.59643     1 2pz   0.40866     2 2pz  -0.40866
    7.1     2.00000    -0.51259     1 2py   0.30001     2 2py  -0.30001
    8.1     1.00000     0.03149     1 2px   0.37705     1 2px   0.66785     2 2px  -0.37705     2 2px  -0.66785
    9.1     1.00000    -0.22414     1 2px   0.34729     1 2px   0.31259     2 2px   0.34729     2 2px   0.31259
   10.1    -0.00000     0.26333     1 1s   -1.48838     1 2pz  -0.65096     2 1s   -1.48838     2 2pz   0.65096     3 1s    1.03887
                                    4 1s    1.03887     5 1s    1.03887     6 1s    1.03887
   11.1    -0.00000     0.28681     1 2py  -0.79200     2 2py  -0.79200     3 1s    1.08907     4 1s   -1.08907     5 1s    1.08907
                                    6 1s   -1.08907
   12.1    -0.00000     0.30525     1 1s    1.94667     2 1s   -1.94667     3 1s   -1.06973     4 1s   -1.06973     5 1s    1.06973
                                    6 1s    1.06973
   13.1    -0.00000     0.38634     1 2py  -0.25037     1 2py  -1.85974     2 2py   0.25037     2 2py   1.85974     3 1s    1.61859
                                    4 1s   -1.61859     5 1s   -1.61859     6 1s    1.61859
   14.1    -0.00000     0.48736     1 1s   -2.97868     1 2pz   2.93409     2 1s    2.97868     2 2pz   2.93409     3 1s   -0.59167
                                    4 1s   -0.59167     5 1s    0.59167     6 1s    0.59167
   15.1    -0.00000     0.65865     1 1s    0.25234     1 2pz  -0.54890     1 2pz   1.01656     2 1s    0.25234     2 2pz   0.54890
                                    2 2pz  -1.01656
   16.1    -0.00000     0.75470     1 2py  -0.40998     1 2py   0.77629     2 2py  -0.40998     2 2py   0.77629     3 1s   -0.38280
                                    4 1s    0.38280     5 1s   -0.38280     6 1s    0.38280
   17.1    -0.00000     0.77262     1 2px  -0.74504     1 2px   0.63520     2 2px  -0.74504     2 2px   0.63520
   18.1    -0.00000     0.86032     1 1s   -0.87768     1 1s    1.47747     1 2pz   0.37831     2 1s   -0.87768     2 1s    1.47747
                                    2 2pz  -0.37831     3 1s   -0.39946     4 1s   -0.39946     5 1s   -0.39946     6 1s   -0.39946
   19.1    -0.00000     0.87282     1 2px  -0.79983     1 2px   1.10019     2 2px   0.79983     2 2px  -1.10019
   20.1    -0.00000     0.93597     1 1s   -0.72592     1 2pz   0.60636     1 2pz  -0.53241     2 1s    0.72592     2 2pz   0.60636
                                    2 2pz  -0.53241     3 1s    0.38489     4 1s    0.38489     5 1s   -0.38489     6 1s   -0.38489
   21.1    -0.00000     1.10098     1 2py  -0.67681     1 2py   1.10183     2 2py  -0.67681     2 2py   1.10183     3 1s    0.38197
                                    3 1s   -1.07182     4 1s   -0.38197     4 1s    1.07182     5 1s    0.38197     5 1s   -1.07182
                                    6 1s   -0.38197     6 1s    1.07182
   22.1    -0.00000     1.14678     1 2py   0.92030     1 2py  -2.93908     2 2py  -0.92030     2 2py   2.93908     3 1s    1.50971
                                    4 1s   -1.50971     5 1s   -1.50971     6 1s    1.50971
   23.1    -0.00000     1.21100     1 1s    1.03518     1 1s   -1.72946     1 2pz   0.36881     1 2pz  -0.50276     2 1s    1.03518
                                    2 1s   -1.72946     2 2pz  -0.36881     2 2pz   0.50276     3 1s   -0.43901     3 1s    0.86792
                                    4 1s   -0.43901     4 1s    0.86792     5 1s   -0.43901     5 1s    0.86792     6 1s   -0.43901
                                    6 1s    0.86792
   24.1    -0.00000     1.21749     1 1s   -0.47458     1 1s    0.32792     1 2pz  -0.63828     1 2pz   1.29240     2 1s    0.47458
                                    2 1s   -0.32792     2 2pz  -0.63828     2 2pz   1.29240     3 1s    0.47087     3 1s   -0.95628
                                    4 1s    0.47087     4 1s   -0.95628     5 1s   -0.47087     5 1s    0.95628     6 1s   -0.47087
                                    6 1s    0.95628
   25.1    -0.00000     1.31966     1 1s   -1.60899     1 1s    5.40584     1 2pz  -1.87785     2 1s    1.60899     2 1s   -5.40584
                                    2 2pz  -1.87785     3 1s   -0.36155     4 1s   -0.36155     5 1s    0.36155     6 1s    0.36155
   26.1    -0.00000     1.44908     1 2py   2.42394     2 2py  -2.42394     3 1s   -0.67955     3 1s   -0.62029     4 1s    0.67955
                                    4 1s    0.62029     5 1s    0.67955     5 1s    0.62029     6 1s   -0.67955     6 1s   -0.62029
   27.1    -0.00000     1.73019     1 2py   0.64451     1 3d1+  0.60847     2 2py  -0.64451     2 3d1+ -0.60847
   28.1    -0.00000     1.81289     1 3d2-  0.67909     2 3d2-  0.67909
   29.1    -0.00000     2.08498     1 3d2-  0.64702     1 3d2+  0.33582     2 3d2- -0.64702     2 3d2+  0.33582
   30.1    -0.00000     2.21409     1 1s   -0.55410     1 3d2- -0.34929     1 3d2+  0.62669     2 1s   -0.55410     2 3d2-  0.34929
                                    2 3d2+  0.62669     3 1s    0.34757     4 1s    0.34757     5 1s    0.34757     6 1s    0.34757
   31.1    -0.00000     2.31222     1 2py   0.28078     1 3d1-  0.68831     2 2py   0.28078     2 3d1- -0.68831     3 1s   -0.51835
                                    4 1s    0.51835     5 1s   -0.51835     6 1s    0.51835
   32.1    -0.00000     2.39011     1 1s   -0.50332     1 2pz   0.28570     1 2pz  -0.45114     1 3d0   0.68670     2 1s   -0.50332
                                    2 2pz  -0.28570     2 2pz   0.45114     2 3d0   0.68670
   33.1    -0.00000     2.60297     1 1s    0.29370     1 1s   -1.35805     1 2pz   0.27544     1 3d2+  0.79520     2 1s   -0.29370
                                    2 1s    1.35805     2 2pz   0.27544     2 3d2+ -0.79520     3 1s    0.44618     4 1s    0.44618
                                    5 1s   -0.44618     6 1s   -0.44618
   34.1    -0.00000     2.68993     1 2px  -0.26247     1 3d1+  0.90205     2 2px   0.26247     2 3d1+  0.90205
   35.1    -0.00000     3.04554     1 1s    0.30927     1 1s    2.04768     1 2pz  -0.78990     1 2pz  -1.18949     1 3d0   1.11344
                                    2 1s   -0.30927     2 1s   -2.04768     2 2pz  -0.78990     2 2pz  -1.18949     2 3d0  -1.11344
   36.1    -0.00000     3.04607     1 2py   0.55169     1 3d1-  0.96910     2 2py  -0.55169     2 3d1-  0.96910     3 1s   -0.47724
                                    4 1s    0.47724     5 1s    0.47724     6 1s   -0.47724


 Natural orbital dump (state averaged) at molpro section  2140.2    (Orbital set 2)



 **********************************************************************************************************************************
 DATASETS  * FILE   NREC   LENGTH (MB)   RECORD NAMES
              1      20       31.60       500      610      700      900      950      970     1000      129      960     1100   
                                          VAR    BASINP    GEOM    SYMINP    ZMAT    AOBASIS   BASIS     P2S    ABASIS      S 
                                         1400     1410     1200     1210     1080     1600     1650     1300     1700     1380   
                                           T        V       H0       H01     AOSYM     SMH    MOLCAS    ERIS     OPER     JKOP   

              2       5        5.42       700     1000      520     2100     2140   
                                         GEOM     BASIS   MCVARS     RHF     MCSCF   

 PROGRAMS   *        TOTAL     MULTI    HF-SCF       INT
 CPU TIMES  *         0.78      0.30      0.11      0.26
 REAL TIME  *         1.08 SEC
 DISK USED  *        38.79 MB
 **********************************************************************************************************************************
 Molecular orbitals read from record     2140.2  Type=MCSCF/NATURAL (state averaged)
 Occupation numbers read from record     2140.2  Type=MCSCF/NATURAL (state averaged)
 Orbital energies read from record       2140.2  Type=MCSCF/NATURAL (state averaged)
 Redundancy group numbers read from rec  2140.2  Type=MCSCF/NATURAL (state averaged)

 MULTI/6-31G* energy=    -77.494632665790

           MULTI          HF-SCF
    -77.49463267    -78.02943243
 **********************************************************************************************************************************
 Molpro calculation terminated
