
 Primary working directories    : /scratch.local/johan406.molpro_temp/molpro.bo5EAKaS6W
 Secondary working directories  : /scratch.local/johan406.molpro_temp/molpro.bo5EAKaS6W
 Wavefunction directory         : /home/goodpast/johan406/wfu/
 Main file repository           : /scratch.local/johan406.molpro_temp/molpro.bo5EAKaS6W/

 id        : roweumn

 Nodes     nprocs
 cn0117       1

 Using customized tuning parameters: mindgm=1; mindgv=20; mindgc=4; mindgr=1; noblas=0; minvec=7
 default implementation of scratch files=df  


 Variables initialized (934), CPU time= 0.00 sec
                                                                                 !leave this line blank
 
 gprint, orbitals=30
 memory, 125., m
 symmetry, nosym
 nelect=16
 basis=6-31g*
 
 geometry={
 C -0.0 0.0 0.6691
 C 0.0 0.0 -0.6691
 H 0.096 0.9149 1.2348
 H -0.096 -0.9149 1.2348
 H -0.096 0.9149 -1.2348
 H 0.096 -0.9149 -1.2348
 }
 
 hf
 {multi,
 closed 7
 occ 9
 wf,spin=0;STATE,3
 }
 
 Commands  initialized (763), CPU time= 0.01 sec, 617 directives.
 Default parameters read. Elapsed time= 0.08 sec

 Checking input...
 Passed
1


                                         ***  PROGRAM SYSTEM MOLPRO  ***
                                       Copyright, TTI GmbH Stuttgart, 2015
                                    Version 2019.2 linked Oct 25 2019 22:50:27


 **********************************************************************************************************************************
 LABEL *                                                                                 
  64 bit serial version                                                                  DATE: 26-Jan-23          TIME: 19:56:22  
 **********************************************************************************************************************************

 SHA1:             8dbd9ae1082e4ce945b0f27595c9eb2d4aa09004
 **********************************************************************************************************************************


 Variable memory set to  125000000 words,  buffer space 

 SETTING NELECT         =        16.00000000                                  
 SETTING BASIS          =    6-31G*
 ZSYMEL=NOSYM


Geometry recognized as XYZ



 Recomputing integrals since basis changed


 Using spherical harmonics

 Library entry C      S 6-31G                selected for orbital group  1
 Library entry C      P 6-31G                selected for orbital group  1
 Library entry C      D 6-31G*               selected for orbital group  1
 Library entry H      S 6-31G                selected for orbital group  2


 PROGRAM * SEWARD (Integral evaluation for generally contracted gaussian basis sets)     Author: Roland Lindh, 1990

 Geometry written to block  1 of record 700


 Point group  C1  



 ATOMIC COORDINATES

 NR  ATOM    CHARGE       X              Y              Z

   1  C       6.00   -0.000000000    0.000000000    1.264415750
   2  C       6.00    0.000000000    0.000000000   -1.264415750
   3  H       1.00    0.181413708    1.728910431    2.333433819
   4  H       1.00   -0.181413708   -1.728910431    2.333433819
   5  H       1.00   -0.181413708    1.728910431   -2.333433819
   6  H       1.00    0.181413708   -1.728910431   -2.333433819

 Bond lengths in Bohr (Angstrom)

 1-2  2.528831500  1-3  2.040794415  1-4  2.040794415  2-5  2.040794415  2-6  2.040794415
     ( 1.338200000)     ( 1.079941897)     ( 1.079941897)     ( 1.079941897)     ( 1.079941897)

 Bond angles

  1-2-5  121.58914134   1-2-6  121.58914134   2-1-3  121.58914134   2-1-4  121.58914134

  3-1-4  116.82171733   5-2-6  116.82171733

 NUCLEAR CHARGE:                   16
 NUMBER OF PRIMITIVE AOS:          72
 NUMBER OF SYMMETRY AOS:           70
 NUMBER OF CONTRACTIONS:           36   (   36A   )
 NUMBER OF CORE ORBITALS:           2   (    2A   )
 NUMBER OF VALENCE ORBITALS:       12   (   12A   )


 NUCLEAR REPULSION ENERGY   33.34906957


 Eigenvalues of metric

         1 0.831E-02 0.179E-01 0.380E-01 0.472E-01 0.705E-01 0.192E+00 0.212E+00 0.226E+00


 Contracted 2-electron integrals neglected if value below      1.0D-11
 AO integral compression algorithm  1   Integral accuracy      1.0D-11

     1.049 MB (compressed) written to integral file ( 50.4%)


 NUMBER OF SORTED TWO-ELECTRON INTEGRALS:     222111.     BUFFER LENGTH:  32768
 NUMBER OF SEGMENTS:   1  SEGMENT LENGTH:     222111      RECORD LENGTH: 524288

 Memory used in sort:       0.78 MW

 SORT1 READ      284735. AND WROTE      156915. INTEGRALS IN      1 RECORDS. CPU TIME:     0.00 SEC, REAL TIME:     0.01 SEC
 SORT2 READ      156915. AND WROTE      222111. INTEGRALS IN      4 RECORDS. CPU TIME:     0.02 SEC, REAL TIME:     0.02 SEC

 FILE SIZES:   FILE 1:    31.1 MBYTE,  FILE 4:     4.2 MBYTE,   TOTAL:     35.4 MBYTE

 OPERATOR DM      FOR CENTER  0  COORDINATES:    0.000000    0.000000    0.000000


 **********************************************************************************************************************************
 DATASETS  * FILE   NREC   LENGTH (MB)   RECORD NAMES
              1      19       30.88       500      610      700      900      950      970     1000      129      960     1100   
                                          VAR    BASINP    GEOM    SYMINP    ZMAT    AOBASIS   BASIS     P2S    ABASIS      S 
                                         1400     1410     1200     1210     1080     1600     1650     1300     1700   
                                           T        V       H0       H01     AOSYM     SMH    MOLCAS    ERIS     OPER   

 PROGRAMS   *        TOTAL       INT
 CPU TIMES  *         0.36      0.26
 REAL TIME  *         0.57 SEC
 DISK USED  *        35.71 MB
 **********************************************************************************************************************************


 PROGRAM * RHF-SCF (CLOSED SHELL)       Authors: W. Meyer, H.-J. Werner


 NUMBER OF ELECTRONS:       8+    8-    SPACE SYMMETRY=1    SPIN SYMMETRY: Singlet 
 CONVERGENCE THRESHOLDS:    1.00E-05 (Density)    1.00E-07 (Energy)
 MAX. NUMBER OF ITERATIONS:       60
 INTERPOLATION TYPE:            DIIS
 INTERPOLATION STEPS:              2 (START)      1 (STEP)
 LEVEL SHIFTS:                  0.00 (CLOSED)  0.00 (OPEN) 



 Orbital guess generated from atomic densities. Full valence occupancy:    8

 Molecular orbital dump at record        2100.2

 Initial occupancy:   8

 ITERATION    DDIFF          GRAD             ENERGY        2-EL.EN.            DIPOLE MOMENTS         DIIS   ORB.
    1      0.000D+00      0.000D+00       -78.00324816    118.620382   -0.00000   -0.00000    0.00000    0    start
    2      0.000D+00      0.857D-02       -78.02513917    116.779803   -0.00000   -0.00000    0.00000    1    diag
    3      0.820D-02      0.292D-02       -78.02727910    117.412541    0.00000    0.00000    0.00000    2    diag
    4      0.264D-02      0.715D-03       -78.02749318    117.313206    0.00000   -0.00000    0.00000    3    diag
    5      0.107D-02      0.721D-04       -78.02749575    117.316172   -0.00000   -0.00000    0.00000    4    diag
    6      0.150D-03      0.106D-04       -78.02749581    117.315712   -0.00000   -0.00000    0.00000    5    diag
    7      0.172D-04      0.248D-05       -78.02749582    117.315728    0.00000   -0.00000    0.00000    6    diag
    8      0.355D-05      0.427D-06       -78.02749582    117.315720    0.00000    0.00000   -0.00000    0    orth

 Final occupancy:   8

 !RHF STATE  1.1 Energy               -78.027495818212
 Nuclear energy                        33.34906957
 One-electron energy                 -170.03442551
 Two-electron energy                   58.65786012
 Virial quotient                       -1.00035449
 !RHF STATE  1.1 Dipole moment          0.00000000     0.00000000    -0.00000000
 Dipole moment /Debye                   0.00000000     0.00000000    -0.00000000

 ELECTRON ORBITALS
 =================

  Orbital  Occupation    Energy     Coefficients
    1.1     2.00000   -11.22611     1 1s    0.70419     2 1s    0.70419
    2.1     2.00000   -11.22452     1 1s    0.70455     2 1s   -0.70455
    3.1     2.00000    -1.02646     1 1s    0.30210     2 1s    0.30210
    4.1     2.00000    -0.79016     2 1s   -0.24360
    5.1     2.00000    -0.63705     1 2py   0.32067     2 2py   0.32067
    6.1     2.00000    -0.58162     1 2pz   0.40684     2 2pz  -0.40684
    7.1     2.00000    -0.50758     1 2py   0.29793     2 2py  -0.29793
    8.1     2.00000    -0.36585     1 2px   0.36654     1 2px   0.30578     2 2px   0.36654     2 2px   0.30578
    9.1     0.00000     0.17528     1 2px   0.33788     1 2px   0.71417     2 2px  -0.33788     2 2px  -0.71417
   10.1     0.00000     0.26631     1 1s   -1.48483     1 2pz  -0.64263     2 1s   -1.48483     2 2pz   0.64263     3 1s    1.03574
                                    4 1s    1.03574     5 1s    1.03574     6 1s    1.03574
   11.1     0.00000     0.29527     1 2py  -0.79895     2 2py  -0.79895     3 1s    1.09736     4 1s   -1.09736     5 1s    1.09736
                                    6 1s   -1.09736
   12.1     0.00000     0.30743     1 1s    1.90714     2 1s   -1.90714     3 1s   -1.07079     4 1s   -1.07079     5 1s    1.07079
                                    6 1s    1.07079
   13.1     0.00000     0.38979     1 2py  -1.85660     2 2py   1.85660     3 1s    1.61235     4 1s   -1.61235     5 1s   -1.61235
                                    6 1s    1.61235
   14.1     0.00000     0.48915     1 1s   -3.00796     1 2pz   2.94175     2 1s    3.00796     2 2pz   2.94175     3 1s   -0.57174
                                    4 1s   -0.57174     5 1s    0.57174     6 1s    0.57174
   15.1     0.00000     0.66922     1 2pz  -0.55617     1 2pz   1.03604     2 2pz   0.55617     2 2pz  -1.03604
   16.1     0.00000     0.76777     1 2py  -0.40224     1 2py   0.77586     2 2py  -0.40224     2 2py   0.77586     3 1s   -0.38696
                                    4 1s    0.38696     5 1s   -0.38696     6 1s    0.38696
   17.1     0.00000     0.77799     1 2px  -0.73612     1 2px   0.63899     2 2px  -0.73612     2 2px   0.63899
   18.1     0.00000     0.86346     1 1s   -0.88099     1 1s    1.44554     1 2pz   0.33357     2 1s   -0.88099     2 1s    1.44554
                                    2 2pz  -0.33357     3 1s   -0.39955     4 1s   -0.39955     5 1s   -0.39955     6 1s   -0.39955
   19.1     0.00000     0.88931     1 2px  -0.81371     1 2px   1.07053     2 2px   0.81371     2 2px  -1.07053
   20.1     0.00000     0.95396     1 1s   -0.87094     1 2pz   0.60467     1 2pz  -0.44523     2 1s    0.87094     2 2pz   0.60467
                                    2 2pz  -0.44523     3 1s    0.38324     4 1s    0.38324     5 1s   -0.38324     6 1s   -0.38324
   21.1     0.00000     1.11493     1 2py  -0.68488     1 2py   1.09518     2 2py  -0.68488     2 2py   1.09518     3 1s    0.38191
                                    3 1s   -1.06134     4 1s   -0.38191     4 1s    1.06134     5 1s    0.38191     5 1s   -1.06134
                                    6 1s   -0.38191     6 1s    1.06134
   22.1     0.00000     1.15531     1 2py   0.91828     1 2py  -2.92560     2 2py  -0.91828     2 2py   2.92560     3 1s    1.49185
                                    4 1s   -1.49185     5 1s   -1.49185     6 1s    1.49185
   23.1     0.00000     1.21223     1 1s    1.04150     1 1s   -1.73618     1 2pz   0.36444     1 2pz  -0.49826     2 1s    1.04150
                                    2 1s   -1.73618     2 2pz  -0.36444     2 2pz   0.49826     3 1s   -0.43684     3 1s    0.86910
                                    4 1s   -0.43684     4 1s    0.86910     5 1s   -0.43684     5 1s    0.86910     6 1s   -0.43684
                                    6 1s    0.86910
   24.1     0.00000     1.21704     1 1s   -0.54219     1 1s    0.55327     1 2pz  -0.62101     1 2pz   1.19979     2 1s    0.54219
                                    2 1s   -0.55327     2 2pz  -0.62101     2 2pz   1.19979     3 1s    0.46802     3 1s   -0.96614
                                    4 1s    0.46802     4 1s   -0.96614     5 1s   -0.46802     5 1s    0.96614     6 1s   -0.46802
                                    6 1s    0.96614
   25.1     0.00000     1.33714     1 1s   -1.58352     1 1s    5.36968     1 2pz   0.27058     1 2pz  -1.94164     2 1s    1.58352
                                    2 1s   -5.36968     2 2pz   0.27058     2 2pz  -1.94164     3 1s   -0.31149     4 1s   -0.31149
                                    5 1s    0.31149     6 1s    0.31149
   26.1     0.00000     1.44252     1 2py   2.29856     2 2py  -2.29856     3 1s   -0.67062     3 1s   -0.56399     4 1s    0.67062
                                    4 1s    0.56399     5 1s    0.67062     5 1s    0.56399     6 1s   -0.67062     6 1s   -0.56399
   27.1     0.00000     1.76825     1 2py   0.84280     1 3d1+  0.60301     2 2py  -0.84280     2 3d1+ -0.60301     3 1s   -0.26548
                                    4 1s    0.26548     5 1s    0.26548     6 1s   -0.26548
   28.1     0.00000     1.83031     1 1s    0.28659     1 3d2-  0.67630     2 1s   -0.28659     2 3d2-  0.67630
   29.1     0.00000     2.08668     1 1s   -0.30055     1 3d2-  0.58409     1 3d2+  0.42673     2 1s   -0.30055     2 3d2- -0.58409
                                    2 3d2+  0.42673
   30.1     0.00000     2.24725     1 1s   -0.52682     1 3d2- -0.44482     1 3d2+  0.56489     2 1s   -0.52682     2 3d2-  0.44482
                                    2 3d2+  0.56489     3 1s    0.32801     4 1s    0.32801     5 1s    0.32801     6 1s    0.32801
   31.1     0.00000     2.32131     1 2py   0.26904     1 3d1-  0.68750     2 2py   0.26904     2 3d1- -0.68750     3 1s   -0.51062
                                    4 1s    0.51062     5 1s   -0.51062     6 1s    0.51062
   32.1     0.00000     2.41029     1 1s   -0.50037     1 2pz   0.27810     1 2pz  -0.45033     1 3d0   0.68323     2 1s   -0.50037
                                    2 2pz  -0.27810     2 2pz   0.45033     2 3d0   0.68323
   33.1     0.00000     2.61436     1 1s    0.29419     1 1s   -1.35734     1 2pz   0.28244     1 3d2+  0.79094     2 1s   -0.29419
                                    2 1s    1.35734     2 2pz   0.28244     2 3d2+ -0.79094     3 1s    0.44099     4 1s    0.44099
                                    5 1s   -0.44099     6 1s   -0.44099
   34.1     0.00000     2.71301     1 2px  -0.25836     1 3d1+  0.90120     2 2px   0.25836     2 3d1+  0.90120
   35.1     0.00000     3.04999     1 2py   0.52921     1 3d1-  0.96690     2 2py  -0.52921     2 3d1-  0.96690     3 1s   -0.46963
                                    4 1s    0.46963     5 1s    0.46963     6 1s   -0.46963
   36.1     0.00000     3.06234     1 1s    0.31584     1 1s    2.02237     1 2pz  -0.79693     1 2pz  -1.17508     1 3d0   1.11194
                                    2 1s   -0.31584     2 1s   -2.02237     2 2pz  -0.79693     2 2pz  -1.17508     2 3d0  -1.11194


 HOMO      8.1    -0.365849 =      -9.9552eV
 LUMO      9.1     0.175284 =       4.7697eV
 LUMO-HOMO         0.541132 =      14.7250eV


 **********************************************************************************************************************************
 DATASETS  * FILE   NREC   LENGTH (MB)   RECORD NAMES
              1      19       30.88       500      610      700      900      950      970     1000      129      960     1100   
                                          VAR    BASINP    GEOM    SYMINP    ZMAT    AOBASIS   BASIS     P2S    ABASIS      S 
                                         1400     1410     1200     1210     1080     1600     1650     1300     1700   
                                           T        V       H0       H01     AOSYM     SMH    MOLCAS    ERIS     OPER   

              2       4        2.86       700     1000      520     2100   
                                         GEOM     BASIS   MCVARS     RHF  

 PROGRAMS   *        TOTAL    HF-SCF       INT
 CPU TIMES  *         0.46      0.10      0.26
 REAL TIME  *         0.71 SEC
 DISK USED  *        35.71 MB
 **********************************************************************************************************************************


 PROGRAM * MULTI (Direct Multiconfiguration SCF)       Authors: P.J. Knowles, H.-J. Werner (1984)


 Number of closed-shell orbitals:   7 (   7 )
 Number of active  orbitals:        2 (   2 )
 Number of external orbitals:      27 (  27 )

 State symmetry 1

 Number of electrons:     2    Spin symmetry=Singlet   Space symmetry=1
 Number of states:        3
 Number of CSFs:          3   (4 determinants, 4 intermediate states)

 Molecular orbitals read from record     2100.2  Type=RHF/CANONICAL (state 1.1)

 Wavefunction dump at record             2140.2

 Convergence thresholds  0.10E-01 (gradient)  0.10E-05 (energy)  0.10E-02 (step length)

 Weight factors for state symmetry  1:    0.33333   0.33333   0.33333

 Number of orbital rotations:      257   (    14 Core/Active    189 Core/Virtual   0 Active/Active     54 Active/Virtual)
 Total number of variables:        269

 Micro-Iterations solved by the two-step solver

 ITER. MIC  NCI  NEG     ENERGY(VAR)     ENERGY(PROJ)   ENERGY CHANGE     GRAD(0)  GRAD(ORB)   GRAD(CI)     STEP       TIME

   1    8    7    0     -77.73631905     -77.74521848   -0.00889943    0.13014516 0.00033198 0.00000000  0.98D-01      0.12
   2    4    4    0     -77.74507412     -77.74508345   -0.00000933    0.00377702 0.00000082 0.00000000  0.60D-02      0.19
   3    3    3    0     -77.74508347     -77.74508347   -0.00000000    0.00001022 0.00000000 0.00000000  0.28D-04      0.24

 ** WVFN ****  CONVERGENCE REACHED, FINAL GRADIENT:  0.29D-09



 Results for state 1.1
 =====================

 !MCSCF STATE  1.1 Energy             -78.041248140103
 Nuclear energy                        33.34906957
 Kinetic energy                        78.04976678
 One electron energy                 -170.14915213
 Two electron energy                   58.75883442
 Virial ratio                           1.99989086

 !MCSCF STATE  1.1 Dipole moment        0.00000000     0.00000000     0.00000000
 Dipole moment /Debye                   0.00000000     0.00000000     0.00000000

 Results for state 2.1
 =====================

 !MCSCF STATE  2.1 Energy             -77.689102776235
 Nuclear energy                        33.34906957
 Kinetic energy                        78.21505198
 One electron energy                 -169.62309088
 Two electron energy                   58.58491853
 Virial ratio                           1.99327560

 !MCSCF STATE  2.1 Dipole moment        0.00000000     0.00000000     0.00000000
 Dipole moment /Debye                   0.00000000     0.00000000     0.00000000

 Results for state 3.1
 =====================

 !MCSCF STATE  3.1 Energy             -77.504899494236
 Nuclear energy                        33.34906957
 Kinetic energy                        78.38033718
 One electron energy                 -169.09702963
 Two electron energy                   58.24306056
 Virial ratio                           1.98883090

 !MCSCF STATE  3.1 Dipole moment        0.00000000     0.00000000     0.00000000
 Dipole moment /Debye                   0.00000000     0.00000000     0.00000000

 State-averaged charge density matrix saved on record  2140.2 (density set 1)

 !MCSCF trans         <2.1|DMZ|1.1>    -1.360086600026 au =    -3.456768900894 Debye
 !MCSCF trans         <3.1|DMZ|2.1>    -1.975048550474 au =    -5.019743894914 Debye


 NATURAL ORBITALS (state averaged)
 =================================

  Orbital  Occupation    Energy     Coefficients
    1.1     2.00000   -11.23957     1 1s    0.70420     2 1s    0.70420
    2.1     2.00000   -11.23821     1 1s    0.70451     2 1s   -0.70451
    3.1     2.00000    -1.03893     1 1s    0.30896     2 1s    0.30896
    4.1     2.00000    -0.79704     1 1s    0.28176     2 1s   -0.28176
    5.1     2.00000    -0.64595     1 2py   0.32612     2 2py   0.32612
    6.1     2.00000    -0.59487     1 2pz   0.40831     2 2pz  -0.40831
    7.1     2.00000    -0.51364     1 2py   0.28919     2 2py  -0.28919
    8.1     1.00000     0.02876     1 2px   0.37338     1 2px   0.64741     2 2px  -0.37338     2 2px  -0.64741
    9.1     1.00000    -0.22178     1 2px   0.33791     1 2px   0.30741     2 2px   0.33791     2 2px   0.30741
   10.1    -0.00000     0.26292     1 1s   -1.48096     1 2pz  -0.64762     2 1s   -1.48096     2 2pz   0.64762     3 1s    1.03524
                                    4 1s    1.03524     5 1s    1.03524     6 1s    1.03524
   11.1    -0.00000     0.28758     1 2px  -0.25740     1 2py  -0.78217     2 2px   0.25740     2 2py  -0.78217     3 1s    1.08366
                                    4 1s   -1.08366     5 1s    1.08366     6 1s   -1.08366
   12.1    -0.00000     0.30363     1 1s    1.92604     2 1s   -1.92604     3 1s   -1.06657     4 1s   -1.06657     5 1s    1.06657
                                    6 1s    1.06657
   13.1    -0.00000     0.38523     1 2py  -1.84858     2 2py   1.84858     3 1s    1.60671     4 1s   -1.60671     5 1s   -1.60671
                                    6 1s    1.60671
   14.1    -0.00000     0.48648     1 1s   -2.99162     1 2pz   2.92702     2 1s    2.99162     2 2pz   2.92702     3 1s   -0.57883
                                    4 1s   -0.57883     5 1s    0.57883     6 1s    0.57883
   15.1    -0.00000     0.65921     1 1s    0.25001     1 2pz  -0.54969     1 2pz   1.01686     2 1s    0.25001     2 2pz   0.54969
                                    2 2pz  -1.01686
   16.1    -0.00000     0.75841     1 2py  -0.41086     1 2py   0.77436     2 2py  -0.41086     2 2py   0.77436     3 1s   -0.38370
                                    4 1s    0.38370     5 1s   -0.38370     6 1s    0.38370
   17.1    -0.00000     0.77394     1 2px  -0.74229     1 2px   0.63593     2 2px  -0.74229     2 2px   0.63593
   18.1    -0.00000     0.86103     1 1s   -0.87326     1 1s    1.46261     1 2pz   0.37080     2 1s   -0.87326     2 1s    1.46261
                                    2 2pz  -0.37080     3 1s   -0.40230     4 1s   -0.40230     5 1s   -0.40230     6 1s   -0.40230
   19.1    -0.00000     0.87239     1 2px  -0.79598     1 2px   1.09513     2 2px   0.79598     2 2px  -1.09513
   20.1    -0.00000     0.93643     1 1s   -0.74052     1 2pz   0.60625     1 2pz  -0.50993     2 1s    0.74052     2 2pz   0.60625
                                    2 2pz  -0.50993     3 1s    0.38500     4 1s    0.38500     5 1s   -0.38500     6 1s   -0.38500
   21.1    -0.00000     1.10038     1 2py  -0.67411     1 2py   1.09840     2 2py  -0.67411     2 2py   1.09840     3 1s    0.38156
                                    3 1s   -1.07006     4 1s   -0.38156     4 1s    1.07006     5 1s    0.38156     5 1s   -1.07006
                                    6 1s   -0.38156     6 1s    1.07006
   22.1    -0.00000     1.14418     1 2py   0.91668     1 2py  -2.92363     2 2py  -0.91668     2 2py   2.92363     3 1s    1.49651
                                    4 1s   -1.49651     5 1s   -1.49651     6 1s    1.49651
   23.1    -0.00000     1.20796     1 1s    1.03942     1 1s   -1.73619     1 2pz   0.36756     1 2pz  -0.50373     2 1s    1.03942
                                    2 1s   -1.73619     2 2pz  -0.36756     2 2pz   0.50373     3 1s   -0.43671     3 1s    0.86942
                                    4 1s   -0.43671     4 1s    0.86942     5 1s   -0.43671     5 1s    0.86942     6 1s   -0.43671
                                    6 1s    0.86942
   24.1    -0.00000     1.21366     1 1s   -0.49245     1 1s    0.39097     1 2pz  -0.63430     1 2pz   1.26345     2 1s    0.49245
                                    2 1s   -0.39097     2 2pz  -0.63430     2 2pz   1.26345     3 1s    0.46912     3 1s   -0.95648
                                    4 1s    0.46912     4 1s   -0.95648     5 1s   -0.46912     5 1s    0.95648     6 1s   -0.46912
                                    6 1s    0.95648
   25.1    -0.00000     1.32002     1 1s   -1.60142     1 1s    5.39399     1 2pz  -1.90222     2 1s    1.60142     2 1s   -5.39399
                                    2 2pz  -1.90222     3 1s   -0.34334     4 1s   -0.34334     5 1s    0.34334     6 1s    0.34334
   26.1    -0.00000     1.42975     1 2py   2.29308     2 2py  -2.29308     3 1s   -0.66456     3 1s   -0.56152     4 1s    0.66456
                                    4 1s    0.56152     5 1s    0.66456     5 1s    0.56152     6 1s   -0.66456     6 1s   -0.56152
   27.1    -0.00000     1.74900     1 2py   0.88274     1 3d1+  0.59998     2 2py  -0.88274     2 3d1+ -0.59998     3 1s   -0.27725
                                    4 1s    0.27725     5 1s    0.27725     6 1s   -0.27725
   28.1    -0.00000     1.81904     1 1s    0.28473     1 3d2-  0.67617     2 1s   -0.28473     2 3d2-  0.67617
   29.1    -0.00000     2.06547     1 1s   -0.29398     1 3d2-  0.58811     1 3d2+  0.42204     2 1s   -0.29398     2 3d2- -0.58811
                                    2 3d2+  0.42204
   30.1    -0.00000     2.23410     1 1s   -0.52683     1 3d2- -0.43853     1 3d2+  0.56833     2 1s   -0.52683     2 3d2-  0.43853
                                    2 3d2+  0.56833     3 1s    0.33047     4 1s    0.33047     5 1s    0.33047     6 1s    0.33047
   31.1    -0.00000     2.30523     1 2py   0.27531     1 3d1-  0.68551     2 2py   0.27531     2 3d1- -0.68551     3 1s   -0.51278
                                    4 1s    0.51278     5 1s   -0.51278     6 1s    0.51278
   32.1    -0.00000     2.39278     1 1s   -0.49862     1 2pz   0.28279     1 2pz  -0.45264     1 3d0   0.68267     2 1s   -0.49862
                                    2 2pz  -0.28279     2 2pz   0.45264     2 3d0   0.68267
   33.1    -0.00000     2.59612     1 1s    0.29623     1 1s   -1.36302     1 2pz   0.28074     1 3d2+  0.79038     2 1s   -0.29623
                                    2 1s    1.36302     2 2pz   0.28074     2 3d2+ -0.79038     3 1s    0.44322     4 1s    0.44322
                                    5 1s   -0.44322     6 1s   -0.44322
   34.1    -0.00000     2.69443     1 2px  -0.25886     1 3d1+  0.90096     2 2px   0.25886     2 3d1+  0.90096
   35.1    -0.00000     3.03756     1 2py   0.52872     1 3d1-  0.96664     2 2py  -0.52872     2 3d1-  0.96664     3 1s   -0.47131
                                    4 1s    0.47131     5 1s    0.47131     6 1s   -0.47131
   36.1    -0.00000     3.04666     1 1s    0.30966     1 1s    2.04521     1 2pz  -0.79070     1 2pz  -1.18652     1 3d0   1.11329
                                    2 1s   -0.30966     2 1s   -2.04521     2 2pz  -0.79070     2 2pz  -1.18652     2 3d0  -1.11329


 Natural orbital dump (state averaged) at molpro section  2140.2    (Orbital set 2)



 **********************************************************************************************************************************
 DATASETS  * FILE   NREC   LENGTH (MB)   RECORD NAMES
              1      20       31.60       500      610      700      900      950      970     1000      129      960     1100   
                                          VAR    BASINP    GEOM    SYMINP    ZMAT    AOBASIS   BASIS     P2S    ABASIS      S 
                                         1400     1410     1200     1210     1080     1600     1650     1300     1700     1380   
                                           T        V       H0       H01     AOSYM     SMH    MOLCAS    ERIS     OPER     JKOP   

              2       5        5.42       700     1000      520     2100     2140   
                                         GEOM     BASIS   MCVARS     RHF     MCSCF   

 PROGRAMS   *        TOTAL     MULTI    HF-SCF       INT
 CPU TIMES  *         0.76      0.29      0.10      0.26
 REAL TIME  *         1.05 SEC
 DISK USED  *        38.79 MB
 **********************************************************************************************************************************
 Molecular orbitals read from record     2140.2  Type=MCSCF/NATURAL (state averaged)
 Occupation numbers read from record     2140.2  Type=MCSCF/NATURAL (state averaged)
 Orbital energies read from record       2140.2  Type=MCSCF/NATURAL (state averaged)
 Redundancy group numbers read from rec  2140.2  Type=MCSCF/NATURAL (state averaged)

 MULTI/6-31G* energy=    -77.504899494236

           MULTI          HF-SCF
    -77.50489949    -78.02749582
 **********************************************************************************************************************************
 Molpro calculation terminated
