
 Primary working directories    : /scratch.local/johan406.molpro_temp/molpro.zQvM07shmh
 Secondary working directories  : /scratch.local/johan406.molpro_temp/molpro.zQvM07shmh
 Wavefunction directory         : /home/goodpast/johan406/wfu/
 Main file repository           : /scratch.local/johan406.molpro_temp/molpro.zQvM07shmh/

 id        : roweumn

 Nodes     nprocs
 cn0117       1

 Using customized tuning parameters: mindgm=1; mindgv=20; mindgc=4; mindgr=1; noblas=0; minvec=7
 default implementation of scratch files=df  


 Variables initialized (934), CPU time= 0.00 sec
                                                                                 !leave this line blank
 
 gprint, orbitals=30
 memory, 125., m
 symmetry, nosym
 nelect=16
 basis=6-31g*
 
 geometry={
 C -0.0 0.0 0.6691
 C 0.0 0.0 -0.6691
 H 0.108 0.9149 1.2348
 H -0.108 -0.9149 1.2348
 H -0.108 0.9149 -1.2348
 H 0.108 -0.9149 -1.2348
 }
 
 hf
 {multi,
 closed 7
 occ 9
 wf,spin=0;STATE,3
 }
 
 Commands  initialized (763), CPU time= 0.01 sec, 617 directives.
 Default parameters read. Elapsed time= 0.08 sec

 Checking input...
 Passed
1


                                         ***  PROGRAM SYSTEM MOLPRO  ***
                                       Copyright, TTI GmbH Stuttgart, 2015
                                    Version 2019.2 linked Oct 25 2019 22:50:27


 **********************************************************************************************************************************
 LABEL *                                                                                 
  64 bit serial version                                                                  DATE: 26-Jan-23          TIME: 19:56:58  
 **********************************************************************************************************************************

 SHA1:             8dbd9ae1082e4ce945b0f27595c9eb2d4aa09004
 **********************************************************************************************************************************


 Variable memory set to  125000000 words,  buffer space 

 SETTING NELECT         =        16.00000000                                  
 SETTING BASIS          =    6-31G*
 ZSYMEL=NOSYM


Geometry recognized as XYZ



 Recomputing integrals since basis changed


 Using spherical harmonics

 Library entry C      S 6-31G                selected for orbital group  1
 Library entry C      P 6-31G                selected for orbital group  1
 Library entry C      D 6-31G*               selected for orbital group  1
 Library entry H      S 6-31G                selected for orbital group  2


 PROGRAM * SEWARD (Integral evaluation for generally contracted gaussian basis sets)     Author: Roland Lindh, 1990

 Geometry written to block  1 of record 700


 Point group  C1  



 ATOMIC COORDINATES

 NR  ATOM    CHARGE       X              Y              Z

   1  C       6.00   -0.000000000    0.000000000    1.264415750
   2  C       6.00    0.000000000    0.000000000   -1.264415750
   3  H       1.00    0.204090421    1.728910431    2.333433819
   4  H       1.00   -0.204090421   -1.728910431    2.333433819
   5  H       1.00   -0.204090421    1.728910431   -2.333433819
   6  H       1.00    0.204090421   -1.728910431   -2.333433819

 Bond lengths in Bohr (Angstrom)

 1-2  2.528831500  1-3  2.042935097  1-4  2.042935097  2-5  2.042935097  2-6  2.042935097
     ( 1.338200000)     ( 1.081074697)     ( 1.081074697)     ( 1.081074697)     ( 1.081074697)

 Bond angles

  1-2-5  121.55222921   1-2-6  121.55222921   2-1-3  121.55222921   2-1-4  121.55222921

  3-1-4  116.89554157   5-2-6  116.89554157

 NUCLEAR CHARGE:                   16
 NUMBER OF PRIMITIVE AOS:          72
 NUMBER OF SYMMETRY AOS:           70
 NUMBER OF CONTRACTIONS:           36   (   36A   )
 NUMBER OF CORE ORBITALS:           2   (    2A   )
 NUMBER OF VALENCE ORBITALS:       12   (   12A   )


 NUCLEAR REPULSION ENERGY   33.33393244


 Eigenvalues of metric

         1 0.831E-02 0.180E-01 0.381E-01 0.475E-01 0.704E-01 0.192E+00 0.212E+00 0.226E+00


 Contracted 2-electron integrals neglected if value below      1.0D-11
 AO integral compression algorithm  1   Integral accuracy      1.0D-11

     1.049 MB (compressed) written to integral file ( 50.5%)


 NUMBER OF SORTED TWO-ELECTRON INTEGRALS:     222111.     BUFFER LENGTH:  32768
 NUMBER OF SEGMENTS:   1  SEGMENT LENGTH:     222111      RECORD LENGTH: 524288

 Memory used in sort:       0.78 MW

 SORT1 READ      284735. AND WROTE      156935. INTEGRALS IN      1 RECORDS. CPU TIME:     0.00 SEC, REAL TIME:     0.01 SEC
 SORT2 READ      156935. AND WROTE      222111. INTEGRALS IN      4 RECORDS. CPU TIME:     0.02 SEC, REAL TIME:     0.02 SEC

 FILE SIZES:   FILE 1:    31.1 MBYTE,  FILE 4:     4.2 MBYTE,   TOTAL:     35.4 MBYTE

 OPERATOR DM      FOR CENTER  0  COORDINATES:    0.000000    0.000000    0.000000


 **********************************************************************************************************************************
 DATASETS  * FILE   NREC   LENGTH (MB)   RECORD NAMES
              1      19       30.88       500      610      700      900      950      970     1000      129      960     1100   
                                          VAR    BASINP    GEOM    SYMINP    ZMAT    AOBASIS   BASIS     P2S    ABASIS      S 
                                         1400     1410     1200     1210     1080     1600     1650     1300     1700   
                                           T        V       H0       H01     AOSYM     SMH    MOLCAS    ERIS     OPER   

 PROGRAMS   *        TOTAL       INT
 CPU TIMES  *         0.37      0.27
 REAL TIME  *         0.57 SEC
 DISK USED  *        35.71 MB
 **********************************************************************************************************************************


 PROGRAM * RHF-SCF (CLOSED SHELL)       Authors: W. Meyer, H.-J. Werner


 NUMBER OF ELECTRONS:       8+    8-    SPACE SYMMETRY=1    SPIN SYMMETRY: Singlet 
 CONVERGENCE THRESHOLDS:    1.00E-05 (Density)    1.00E-07 (Energy)
 MAX. NUMBER OF ITERATIONS:       60
 INTERPOLATION TYPE:            DIIS
 INTERPOLATION STEPS:              2 (START)      1 (STEP)
 LEVEL SHIFTS:                  0.00 (CLOSED)  0.00 (OPEN) 



 Orbital guess generated from atomic densities. Full valence occupancy:    8

 Molecular orbital dump at record        2100.2

 Initial occupancy:   8

 ITERATION    DDIFF          GRAD             ENERGY        2-EL.EN.            DIPOLE MOMENTS         DIIS   ORB.
    1      0.000D+00      0.000D+00       -78.00237190    118.593329    0.00000    0.00000   -0.00000    0    start
    2      0.000D+00      0.856D-02       -78.02424511    116.752383    0.00000   -0.00000   -0.00000    1    diag
    3      0.820D-02      0.292D-02       -78.02638854    117.385686    0.00000   -0.00000   -0.00000    2    diag
    4      0.264D-02      0.716D-03       -78.02660392    117.286182    0.00000    0.00000   -0.00000    3    diag
    5      0.107D-02      0.732D-04       -78.02660661    117.289165   -0.00000    0.00000   -0.00000    4    diag
    6      0.151D-03      0.111D-04       -78.02660668    117.288698   -0.00000    0.00000   -0.00000    5    diag
    7      0.177D-04      0.268D-05       -78.02660669    117.288715    0.00000   -0.00000    0.00000    6    diag
    8      0.389D-05      0.441D-06       -78.02660669    117.288707    0.00000   -0.00000    0.00000    0    orth

 Final occupancy:   8

 !RHF STATE  1.1 Energy               -78.026606690317
 Nuclear energy                        33.33393244
 One-electron energy                 -170.00489280
 Two-electron energy                   58.64435367
 Virial quotient                       -1.00042003
 !RHF STATE  1.1 Dipole moment          0.00000000    -0.00000000     0.00000000
 Dipole moment /Debye                   0.00000000    -0.00000000     0.00000000

 ELECTRON ORBITALS
 =================

  Orbital  Occupation    Energy     Coefficients
    1.1     2.00000   -11.22639     1 1s    0.70419     2 1s    0.70419
    2.1     2.00000   -11.22480     1 1s    0.70455     2 1s   -0.70455
    3.1     2.00000    -1.02634     1 1s    0.30209     2 1s    0.30209
    4.1     2.00000    -0.78962     1 1s    0.24406
    5.1     2.00000    -0.63662     1 2py   0.32038     2 2py   0.32038
    6.1     2.00000    -0.58130     1 2pz   0.40673     2 2pz  -0.40673
    7.1     2.00000    -0.50804     1 2py   0.29604     2 2py  -0.29604
    8.1     2.00000    -0.36497     1 2px   0.36485     1 2px   0.30525     2 2px   0.36485     2 2px   0.30525
    9.1     0.00000     0.17442     1 2px   0.33684     1 2px   0.70918     2 2px  -0.33684     2 2px  -0.70918
   10.1     0.00000     0.26624     1 1s   -1.48146     1 2pz  -0.64132     2 1s   -1.48146     2 2pz   0.64132     3 1s    1.03411
                                    4 1s    1.03411     5 1s    1.03411     6 1s    1.03411
   11.1     0.00000     0.29542     1 2py  -0.79607     2 2py  -0.79607     3 1s    1.09598     4 1s   -1.09598     5 1s    1.09598
                                    6 1s   -1.09598
   12.1     0.00000     0.30684     1 1s    1.89885     2 1s   -1.89885     3 1s   -1.06909     4 1s   -1.06909     5 1s    1.06909
                                    6 1s    1.06909
   13.1     0.00000     0.38938     1 2py  -1.85031     2 2py   1.85031     3 1s    1.60681     4 1s   -1.60681     5 1s   -1.60681
                                    6 1s    1.60681
   14.1     0.00000     0.48874     1 1s   -3.01260     1 2pz   2.93785     2 1s    3.01260     2 2pz   2.93785     3 1s   -0.56642
                                    4 1s   -0.56642     5 1s    0.56642     6 1s    0.56642
   15.1     0.00000     0.66919     1 2pz  -0.55623     1 2pz   1.03526     2 2pz   0.55623     2 2pz  -1.03526
   16.1     0.00000     0.76918     1 2py  -0.40323     1 2py   0.77674     2 2py  -0.40323     2 2py   0.77674     3 1s   -0.38708
                                    4 1s    0.38708     5 1s   -0.38708     6 1s    0.38708
   17.1     0.00000     0.77818     1 2px  -0.73495     1 2px   0.63885     2 2px  -0.73495     2 2px   0.63885
   18.1     0.00000     0.86369     1 1s   -0.87914     1 1s    1.44022     1 2pz   0.33217     2 1s   -0.87914     2 1s    1.44022
                                    2 2pz  -0.33217     3 1s   -0.40065     4 1s   -0.40065     5 1s   -0.40065     6 1s   -0.40065
   19.1     0.00000     0.88900     1 2px  -0.81243     1 2px   1.06978     2 2px   0.81243     2 2px  -1.06978
   20.1     0.00000     0.95388     1 1s   -0.87156     1 2pz   0.60520     1 2pz  -0.43926     2 1s    0.87156     2 2pz   0.60520
                                    2 2pz  -0.43926     3 1s    0.38299     4 1s    0.38299     5 1s   -0.38299     6 1s   -0.38299
   21.1     0.00000     1.11442     1 2py  -0.68356     1 2py   1.09336     2 2py  -0.68356     2 2py   1.09336     3 1s    0.38194
                                    3 1s   -1.06062     4 1s   -0.38194     4 1s    1.06062     5 1s    0.38194     5 1s   -1.06062
                                    6 1s   -0.38194     6 1s    1.06062
   22.1     0.00000     1.15385     1 2py   0.91635     1 2py  -2.91966     2 2py  -0.91635     2 2py   2.91966     3 1s    1.48645
                                    4 1s   -1.48645     5 1s   -1.48645     6 1s    1.48645
   23.1     0.00000     1.21106     1 1s    1.04290     1 1s   -1.73848     1 2pz   0.36398     1 2pz  -0.49875     2 1s    1.04290
                                    2 1s   -1.73848     2 2pz  -0.36398     2 2pz   0.49875     3 1s   -0.43590     3 1s    0.86962
                                    4 1s   -0.43590     4 1s    0.86962     5 1s   -0.43590     5 1s    0.86962     6 1s   -0.43590
                                    6 1s    0.86962
   24.1     0.00000     1.21549     1 1s   -0.54655     1 1s    0.56919     1 2pz  -0.61942     1 2pz   1.19034     2 1s    0.54655
                                    2 1s   -0.56919     2 2pz  -0.61942     2 2pz   1.19034     3 1s    0.46757     3 1s   -0.96511
                                    4 1s    0.46757     4 1s   -0.96511     5 1s   -0.46757     5 1s    0.96511     6 1s   -0.46757
                                    6 1s    0.96511
   25.1     0.00000     1.33680     1 1s   -1.58113     1 1s    5.36531     1 2pz   0.27280     1 2pz  -1.94913     2 1s    1.58113
                                    2 1s   -5.36531     2 2pz   0.27280     2 2pz  -1.94913     3 1s   -0.30563     4 1s   -0.30563
                                    5 1s    0.30563     6 1s    0.30563
   26.1     0.00000     1.43530     1 2py   2.24786     2 2py  -2.24786     3 1s   -0.66596     3 1s   -0.54073     4 1s    0.66596
                                    4 1s    0.54073     5 1s    0.66596     5 1s    0.54073     6 1s   -0.66596     6 1s   -0.54073
   27.1     0.00000     1.77478     1 2py   0.90929     1 3d1+  0.60052     2 2py  -0.90929     2 3d1+ -0.60052     3 1s   -0.28578
                                    4 1s    0.28578     5 1s    0.28578     6 1s   -0.28578
   28.1     0.00000     1.83252     1 1s    0.31999     1 3d2-  0.67501     2 1s   -0.31999     2 3d2-  0.67501
   29.1     0.00000     2.07907     1 1s   -0.31212     1 3d2-  0.56569     1 3d2+  0.44809     2 1s   -0.31212     2 3d2- -0.56569
                                    2 3d2+  0.44809
   30.1     0.00000     2.25421     1 1s   -0.51935     1 3d2- -0.46672     1 3d2+  0.54618     2 1s   -0.51935     2 3d2-  0.46672
                                    2 3d2+  0.54618     3 1s    0.32299     4 1s    0.32299     5 1s    0.32299     6 1s    0.32299
   31.1     0.00000     2.31816     1 2py   0.26674     1 3d1-  0.68635     2 2py   0.26674     2 3d1- -0.68635     3 1s   -0.50844
                                    4 1s    0.50844     5 1s   -0.50844     6 1s    0.50844
   32.1     0.00000     2.41098     1 1s   -0.49807     1 2pz   0.27699     1 2pz  -0.45101     1 3d0   0.68133     2 1s   -0.49807
                                    2 2pz  -0.27699     2 2pz   0.45101     2 3d0   0.68133
   33.1     0.00000     2.61098     1 1s    0.29512     1 1s   -1.35953     1 2pz   0.28484     1 3d2+  0.78873     2 1s   -0.29512
                                    2 1s    1.35953     2 2pz   0.28484     2 3d2+ -0.78873     3 1s    0.43982     4 1s    0.43982
                                    5 1s   -0.43982     6 1s   -0.43982
   34.1     0.00000     2.71418     1 2px  -0.25687     1 3d1+  0.90089     2 2px   0.25687     2 3d1+  0.90089
   35.1     0.00000     3.04610     1 2py   0.51919     1 3d1-  0.96578     2 2py  -0.51919     2 3d1-  0.96578     3 1s   -0.46709
                                    4 1s    0.46709     5 1s    0.46709     6 1s   -0.46709
   36.1     0.00000     3.06237     1 1s    0.31581     1 1s    2.02192     1 2pz  -0.79701     1 2pz  -1.17417     1 3d0   1.11193
                                    2 1s   -0.31581     2 1s   -2.02192     2 2pz  -0.79701     2 2pz  -1.17417     2 3d0  -1.11193


 HOMO      8.1    -0.364974 =      -9.9315eV
 LUMO      9.1     0.174422 =       4.7463eV
 LUMO-HOMO         0.539396 =      14.6777eV


 **********************************************************************************************************************************
 DATASETS  * FILE   NREC   LENGTH (MB)   RECORD NAMES
              1      19       30.88       500      610      700      900      950      970     1000      129      960     1100   
                                          VAR    BASINP    GEOM    SYMINP    ZMAT    AOBASIS   BASIS     P2S    ABASIS      S 
                                         1400     1410     1200     1210     1080     1600     1650     1300     1700   
                                           T        V       H0       H01     AOSYM     SMH    MOLCAS    ERIS     OPER   

              2       4        2.86       700     1000      520     2100   
                                         GEOM     BASIS   MCVARS     RHF  

 PROGRAMS   *        TOTAL    HF-SCF       INT
 CPU TIMES  *         0.49      0.11      0.27
 REAL TIME  *         0.72 SEC
 DISK USED  *        35.71 MB
 **********************************************************************************************************************************


 PROGRAM * MULTI (Direct Multiconfiguration SCF)       Authors: P.J. Knowles, H.-J. Werner (1984)


 Number of closed-shell orbitals:   7 (   7 )
 Number of active  orbitals:        2 (   2 )
 Number of external orbitals:      27 (  27 )

 State symmetry 1

 Number of electrons:     2    Spin symmetry=Singlet   Space symmetry=1
 Number of states:        3
 Number of CSFs:          3   (4 determinants, 4 intermediate states)

 Molecular orbitals read from record     2100.2  Type=RHF/CANONICAL (state 1.1)

 Wavefunction dump at record             2140.2

 Convergence thresholds  0.10E-01 (gradient)  0.10E-05 (energy)  0.10E-02 (step length)

 Weight factors for state symmetry  1:    0.33333   0.33333   0.33333

 Number of orbital rotations:      257   (    14 Core/Active    189 Core/Virtual   0 Active/Active     54 Active/Virtual)
 Total number of variables:        269

 Micro-Iterations solved by the two-step solver

 ITER. MIC  NCI  NEG     ENERGY(VAR)     ENERGY(PROJ)   ENERGY CHANGE     GRAD(0)  GRAD(ORB)   GRAD(CI)     STEP       TIME

   1    8    7    0     -77.73795483     -77.74723112   -0.00927629    0.12950999 0.00025567 0.00000000  0.10D+00      0.12
   2    4    4    0     -77.74708373     -77.74709293   -0.00000920    0.00372955 0.00000070 0.00000000  0.58D-02      0.19
   3    3    3    0     -77.74709295     -77.74709295   -0.00000000    0.00000954 0.00000000 0.00000000  0.26D-04      0.25

 ** WVFN ****  CONVERGENCE REACHED, FINAL GRADIENT:  0.24D-09



 Results for state 1.1
 =====================

 !MCSCF STATE  1.1 Energy             -78.039878514665
 Nuclear energy                        33.33393244
 Kinetic energy                        78.04107224
 One electron energy                 -170.11655664
 Two electron energy                   58.74274568
 Virial ratio                           1.99998470

 !MCSCF STATE  1.1 Dipole moment       -0.00000000    -0.00000000     0.00000000
 Dipole moment /Debye                  -0.00000000    -0.00000000     0.00000000

 Results for state 2.1
 =====================

 !MCSCF STATE  2.1 Energy             -77.692191891224
 Nuclear energy                        33.33393244
 Kinetic energy                        78.20336908
 One electron energy                 -169.59888560
 Two electron energy                   58.57276127
 Virial ratio                           1.99346349

 !MCSCF STATE  2.1 Dipole moment       -0.00000000    -0.00000000    -0.00000000
 Dipole moment /Debye                  -0.00000000    -0.00000000    -0.00000000

 Results for state 3.1
 =====================

 !MCSCF STATE  3.1 Energy             -77.509208443929
 Nuclear energy                        33.33393244
 Kinetic energy                        78.36566592
 One electron energy                 -169.08121456
 Two electron energy                   58.23807368
 Virial ratio                           1.98907101

 !MCSCF STATE  3.1 Dipole moment       -0.00000000    -0.00000000     0.00000000
 Dipole moment /Debye                  -0.00000000    -0.00000000     0.00000000

 State-averaged charge density matrix saved on record  2140.2 (density set 1)

 !MCSCF trans         <2.1|DMZ|1.1>    -1.333231256404 au =    -3.388513896651 Debye
 !MCSCF trans         <3.1|DMZ|2.1>    -1.928030147273 au =    -4.900242861707 Debye


 NATURAL ORBITALS (state averaged)
 =================================

  Orbital  Occupation    Energy     Coefficients
    1.1     2.00000   -11.23956     1 1s    0.70420     2 1s    0.70420
    2.1     2.00000   -11.23819     1 1s    0.70451     2 1s   -0.70451
    3.1     2.00000    -1.03849     1 1s    0.30877     2 1s    0.30877
    4.1     2.00000    -0.79637     1 1s    0.28103     2 1s   -0.28103
    5.1     2.00000    -0.64497     1 2py   0.32583     2 2py   0.32583
    6.1     2.00000    -0.59427     1 2pz   0.40817     2 2pz  -0.40817
    7.1     2.00000    -0.51420     1 2py   0.28530     2 2py  -0.28530
    8.1     1.00000     0.02760     1 2px   0.37185     1 2px   0.63941     2 2px  -0.37185     2 2px  -0.63941
    9.1     1.00000    -0.22066     1 2px   0.33460     1 2px   0.30576     2 2px   0.33460     2 2px   0.30576
   10.1    -0.00000     0.26278     1 1s   -1.47757     1 2pz  -0.64613     2 1s   -1.47757     2 2pz   0.64613     3 1s    1.03359
                                    4 1s    1.03359     5 1s    1.03359     6 1s    1.03359
   11.1    -0.00000     0.28791     1 2px  -0.28443     1 2py  -0.77820     2 2px   0.28443     2 2py  -0.77820     3 1s    1.08159
                                    4 1s   -1.08159     5 1s    1.08159     6 1s   -1.08159
   12.1    -0.00000     0.30294     1 1s    1.91704     2 1s   -1.91704     3 1s   -1.06503     4 1s   -1.06503     5 1s    1.06503
                                    6 1s    1.06503
   13.1    -0.00000     0.38474     1 2py  -1.84325     2 2py   1.84325     3 1s    1.60130     4 1s   -1.60130     5 1s   -1.60130
                                    6 1s    1.60130
   14.1    -0.00000     0.48608     1 1s   -2.99706     1 2pz   2.92367     2 1s    2.99706     2 2pz   2.92367     3 1s   -0.57322
                                    4 1s   -0.57322     5 1s    0.57322     6 1s    0.57322
   15.1    -0.00000     0.65939     1 2pz  -0.54998     1 2pz   1.01680     2 2pz   0.54998     2 2pz  -1.01680
   16.1    -0.00000     0.76007     1 2py  -0.41143     1 2py   0.77401     2 2py  -0.41143     2 2py   0.77401     3 1s   -0.38402
                                    4 1s    0.38402     5 1s   -0.38402     6 1s    0.38402
   17.1    -0.00000     0.77443     1 2px  -0.74110     1 2px   0.63616     2 2px  -0.74110     2 2px   0.63616
   18.1    -0.00000     0.86132     1 1s   -0.87131     1 1s    1.45622     1 2pz   0.36788     2 1s   -0.87131     2 1s    1.45622
                                    2 2pz  -0.36788     3 1s   -0.40352     4 1s   -0.40352     5 1s   -0.40352     6 1s   -0.40352
   19.1    -0.00000     0.87214     1 2px  -0.79434     1 2px   1.09304     2 2px   0.79434     2 2px  -1.09304
   20.1    -0.00000     0.93659     1 1s   -0.74561     1 2pz   0.60639     1 2pz  -0.50097     2 1s    0.74561     2 2pz   0.60639
                                    2 2pz  -0.50097     3 1s    0.38495     4 1s    0.38495     5 1s   -0.38495     6 1s   -0.38495
   21.1    -0.00000     1.10008     1 2py  -0.67280     1 2py   1.09671     2 2py  -0.67280     2 2py   1.09671     3 1s    0.38144
                                    3 1s   -1.06926     4 1s   -0.38144     4 1s    1.06926     5 1s    0.38144     5 1s   -1.06926
                                    6 1s   -0.38144     6 1s    1.06926
   22.1    -0.00000     1.14295     1 2py   0.91498     1 2py  -2.91685     2 2py  -0.91498     2 2py   2.91685     3 1s    1.49070
                                    4 1s   -1.49070     5 1s   -1.49070     6 1s    1.49070
   23.1    -0.00000     1.20664     1 1s    1.04117     1 1s   -1.73900     1 2pz   0.36700     1 2pz  -0.50417     2 1s    1.04117
                                    2 1s   -1.73900     2 2pz  -0.36700     2 2pz   0.50417     3 1s   -0.43569     3 1s    0.87005
                                    4 1s   -0.43569     4 1s    0.87005     5 1s   -0.43569     5 1s    0.87005     6 1s   -0.43569
                                    6 1s    0.87005
   24.1    -0.00000     1.21198     1 1s   -0.49958     1 1s    0.41626     1 2pz  -0.63251     1 2pz   1.25125     2 1s    0.49958
                                    2 1s   -0.41626     2 2pz  -0.63251     2 2pz   1.25125     3 1s    0.46842     3 1s   -0.95628
                                    4 1s    0.46842     4 1s   -0.95628     5 1s   -0.46842     5 1s    0.95628     6 1s   -0.46842
                                    6 1s    0.95628
   25.1    -0.00000     1.32006     1 1s   -1.59826     1 1s    5.38894     1 2pz   0.25325     1 2pz  -1.91228     2 1s    1.59826
                                    2 1s   -5.38894     2 2pz   0.25325     2 2pz  -1.91228     3 1s   -0.33576     4 1s   -0.33576
                                    5 1s    0.33576     6 1s    0.33576
   26.1    -0.00000     1.42197     1 2py   2.24249     2 2py  -2.24249     3 1s   -0.65955     3 1s   -0.53809     4 1s    0.65955
                                    4 1s    0.53809     5 1s    0.65955     5 1s    0.53809     6 1s   -0.65955     6 1s   -0.53809
   27.1    -0.00000     1.75647     1 2py   0.94731     1 3d1+  0.59737     2 2py  -0.94731     2 3d1+ -0.59737     3 1s   -0.29700
                                    4 1s    0.29700     5 1s    0.29700     6 1s   -0.29700
   28.1    -0.00000     1.82168     1 1s    0.31766     1 3d2-  0.67486     2 1s   -0.31766     2 3d2-  0.67486
   29.1    -0.00000     2.05813     1 1s   -0.30583     1 3d2-  0.56967     1 3d2+  0.44389     2 1s   -0.30583     2 3d2- -0.56967
                                    2 3d2+  0.44389
   30.1    -0.00000     2.24140     1 1s   -0.51953     1 3d2- -0.46075     1 3d2+  0.54955     2 1s   -0.51953     2 3d2-  0.46075
                                    2 3d2+  0.54955     3 1s    0.32525     4 1s    0.32525     5 1s    0.32525     6 1s    0.32525
   31.1    -0.00000     2.30211     1 2py   0.27293     1 3d1-  0.68433     2 2py   0.27293     2 3d1- -0.68433     3 1s   -0.51042
                                    4 1s    0.51042     5 1s   -0.51042     6 1s    0.51042
   32.1    -0.00000     2.39388     1 1s   -0.49627     1 2pz   0.28143     1 2pz  -0.45329     1 3d0   0.68065     2 1s   -0.49627
                                    2 2pz  -0.28143     2 2pz   0.45329     2 3d0   0.68065
   33.1    -0.00000     2.59295     1 1s    0.29730     1 1s   -1.36529     1 2pz   0.28316     1 3d2+  0.78820     2 1s   -0.29730
                                    2 1s    1.36529     2 2pz   0.28316     2 3d2+ -0.78820     3 1s    0.44193     4 1s    0.44193
                                    5 1s   -0.44193     6 1s   -0.44193
   34.1    -0.00000     2.69619     1 2px  -0.25732     1 3d1+  0.90056     2 2px   0.25732     2 3d1+  0.90056
   35.1    -0.00000     3.03375     1 2py   0.51859     1 3d1-  0.96555     2 2py  -0.51859     2 3d1-  0.96555     3 1s   -0.46867
                                    4 1s    0.46867     5 1s    0.46867     6 1s   -0.46867
   36.1    -0.00000     3.04705     1 1s    0.30980     1 1s    2.04421     1 2pz  -0.79099     1 2pz  -1.18528     1 3d0   1.11324
                                    2 1s   -0.30980     2 1s   -2.04421     2 2pz  -0.79099     2 2pz  -1.18528     2 3d0  -1.11324


 Natural orbital dump (state averaged) at molpro section  2140.2    (Orbital set 2)



 **********************************************************************************************************************************
 DATASETS  * FILE   NREC   LENGTH (MB)   RECORD NAMES
              1      20       31.60       500      610      700      900      950      970     1000      129      960     1100   
                                          VAR    BASINP    GEOM    SYMINP    ZMAT    AOBASIS   BASIS     P2S    ABASIS      S 
                                         1400     1410     1200     1210     1080     1600     1650     1300     1700     1380   
                                           T        V       H0       H01     AOSYM     SMH    MOLCAS    ERIS     OPER     JKOP   

              2       5        5.42       700     1000      520     2100     2140   
                                         GEOM     BASIS   MCVARS     RHF     MCSCF   

 PROGRAMS   *        TOTAL     MULTI    HF-SCF       INT
 CPU TIMES  *         0.79      0.30      0.11      0.27
 REAL TIME  *         1.06 SEC
 DISK USED  *        38.79 MB
 **********************************************************************************************************************************
 Molecular orbitals read from record     2140.2  Type=MCSCF/NATURAL (state averaged)
 Occupation numbers read from record     2140.2  Type=MCSCF/NATURAL (state averaged)
 Orbital energies read from record       2140.2  Type=MCSCF/NATURAL (state averaged)
 Redundancy group numbers read from rec  2140.2  Type=MCSCF/NATURAL (state averaged)

 MULTI/6-31G* energy=    -77.509208443929

           MULTI          HF-SCF
    -77.50920844    -78.02660669
 **********************************************************************************************************************************
 Molpro calculation terminated
