
 Primary working directories    : /scratch.local/johan406.molpro_temp/molpro.SCvgYF5Cd8
 Secondary working directories  : /scratch.local/johan406.molpro_temp/molpro.SCvgYF5Cd8
 Wavefunction directory         : /home/goodpast/johan406/wfu/
 Main file repository           : /scratch.local/johan406.molpro_temp/molpro.SCvgYF5Cd8/

 id        : roweumn

 Nodes     nprocs
 cn0117       1

 Using customized tuning parameters: mindgm=1; mindgv=20; mindgc=4; mindgr=1; noblas=0; minvec=7
 default implementation of scratch files=df  


 Variables initialized (934), CPU time= 0.00 sec
                                                                                 !leave this line blank
 
 gprint, orbitals=30
 memory, 125., m
 symmetry, nosym
 nelect=16
 basis=6-31g*
 
 geometry={
 C 0.0222 0.0 0.6691
 C -0.0222 0.0 -0.6691
 H -0.0725 0.9149 1.2348
 H -0.0725 -0.9149 1.2348
 H 0.0725 0.9149 -1.2348
 H 0.0725 -0.9149 -1.2348
 }
 
 hf
 {multi,
 closed 7
 occ 9
 wf,spin=0;STATE,3
 }
 
 Commands  initialized (763), CPU time= 0.01 sec, 617 directives.
 Default parameters read. Elapsed time= 0.08 sec

 Checking input...
 Passed
1


                                         ***  PROGRAM SYSTEM MOLPRO  ***
                                       Copyright, TTI GmbH Stuttgart, 2015
                                    Version 2019.2 linked Oct 25 2019 22:50:27


 **********************************************************************************************************************************
 LABEL *                                                                                 
  64 bit serial version                                                                  DATE: 26-Jan-23          TIME: 19:25:45  
 **********************************************************************************************************************************

 SHA1:             8dbd9ae1082e4ce945b0f27595c9eb2d4aa09004
 **********************************************************************************************************************************


 Variable memory set to  125000000 words,  buffer space 

 SETTING NELECT         =        16.00000000                                  
 SETTING BASIS          =    6-31G*
 ZSYMEL=NOSYM


Geometry recognized as XYZ



 Recomputing integrals since basis changed


 Using spherical harmonics

 Library entry C      S 6-31G                selected for orbital group  1
 Library entry C      P 6-31G                selected for orbital group  1
 Library entry C      D 6-31G*               selected for orbital group  1
 Library entry H      S 6-31G                selected for orbital group  2


 PROGRAM * SEWARD (Integral evaluation for generally contracted gaussian basis sets)     Author: Roland Lindh, 1990

 Geometry written to block  1 of record 700


 Point group  C1  



 ATOMIC COORDINATES

 NR  ATOM    CHARGE       X              Y              Z

   1  C       6.00    0.041951920    0.000000000    1.264415750
   2  C       6.00   -0.041951920    0.000000000   -1.264415750
   3  H       1.00   -0.137005144    1.728910431    2.333433819
   4  H       1.00   -0.137005144   -1.728910431    2.333433819
   5  H       1.00    0.137005144    1.728910431   -2.333433819
   6  H       1.00    0.137005144   -1.728910431   -2.333433819

 Bond lengths in Bohr (Angstrom)

 1-2  2.530223035  1-3  2.040577502  1-4  2.040577502  2-5  2.040577502  2-6  2.040577502
     ( 1.338936369)     ( 1.079827111)     ( 1.079827111)     ( 1.079827111)     ( 1.079827111)

 Bond angles

  1-2-5  121.37813606   1-2-6  121.37813606   2-1-3  121.37813606   2-1-4  121.37813606

  3-1-4  115.83091678   5-2-6  115.83091678

 NUCLEAR CHARGE:                   16
 NUMBER OF PRIMITIVE AOS:          72
 NUMBER OF SYMMETRY AOS:           70
 NUMBER OF CONTRACTIONS:           36   (   36A   )
 NUMBER OF CORE ORBITALS:           2   (    2A   )
 NUMBER OF VALENCE ORBITALS:       12   (   12A   )


 NUCLEAR REPULSION ENERGY   33.35031439


 Eigenvalues of metric

         1 0.830E-02 0.190E-01 0.374E-01 0.466E-01 0.717E-01 0.193E+00 0.212E+00 0.223E+00


 Contracted 2-electron integrals neglected if value below      1.0D-11
 AO integral compression algorithm  1   Integral accuracy      1.0D-11

     1.311 MB (compressed) written to integral file ( 49.4%)


 NUMBER OF SORTED TWO-ELECTRON INTEGRALS:     222111.     BUFFER LENGTH:  32768
 NUMBER OF SEGMENTS:   1  SEGMENT LENGTH:     222111      RECORD LENGTH: 524288

 Memory used in sort:       0.78 MW

 SORT1 READ      284735. AND WROTE      177313. INTEGRALS IN      1 RECORDS. CPU TIME:     0.01 SEC, REAL TIME:     0.00 SEC
 SORT2 READ      177313. AND WROTE      222111. INTEGRALS IN      5 RECORDS. CPU TIME:     0.02 SEC, REAL TIME:     0.03 SEC

 FILE SIZES:   FILE 1:    31.4 MBYTE,  FILE 4:     4.2 MBYTE,   TOTAL:     35.6 MBYTE

 OPERATOR DM      FOR CENTER  0  COORDINATES:    0.000000    0.000000    0.000000


 **********************************************************************************************************************************
 DATASETS  * FILE   NREC   LENGTH (MB)   RECORD NAMES
              1      19       30.96       500      610      700      900      950      970     1000      129      960     1100   
                                          VAR    BASINP    GEOM    SYMINP    ZMAT    AOBASIS   BASIS     P2S    ABASIS      S 
                                         1400     1410     1200     1210     1080     1600     1650     1300     1700   
                                           T        V       H0       H01     AOSYM     SMH    MOLCAS    ERIS     OPER   

 PROGRAMS   *        TOTAL       INT
 CPU TIMES  *         0.35      0.25
 REAL TIME  *         0.57 SEC
 DISK USED  *        35.97 MB
 **********************************************************************************************************************************


 PROGRAM * RHF-SCF (CLOSED SHELL)       Authors: W. Meyer, H.-J. Werner


 NUMBER OF ELECTRONS:       8+    8-    SPACE SYMMETRY=1    SPIN SYMMETRY: Singlet 
 CONVERGENCE THRESHOLDS:    1.00E-05 (Density)    1.00E-07 (Energy)
 MAX. NUMBER OF ITERATIONS:       60
 INTERPOLATION TYPE:            DIIS
 INTERPOLATION STEPS:              2 (START)      1 (STEP)
 LEVEL SHIFTS:                  0.00 (CLOSED)  0.00 (OPEN) 



 Orbital guess generated from atomic densities. Full valence occupancy:    8

 Molecular orbital dump at record        2100.2

 Initial occupancy:   8

 ITERATION    DDIFF          GRAD             ENERGY        2-EL.EN.            DIPOLE MOMENTS         DIIS   ORB.
    1      0.000D+00      0.000D+00       -78.00390161    118.609219    0.00000   -0.00000   -0.00000    0    start
    2      0.000D+00      0.856D-02       -78.02577577    116.777321    0.00000    0.00000    0.00000    1    diag
    3      0.817D-02      0.292D-02       -78.02791404    117.408219    0.00000    0.00000   -0.00000    2    diag
    4      0.265D-02      0.719D-03       -78.02813100    117.308233   -0.00000   -0.00000   -0.00000    3    diag
    5      0.109D-02      0.771D-04       -78.02813417    117.311283   -0.00000    0.00000    0.00000    4    diag
    6      0.175D-03      0.164D-04       -78.02813438    117.310784    0.00000    0.00000   -0.00000    5    diag
    7      0.347D-04      0.616D-05       -78.02813442    117.310826   -0.00000    0.00000   -0.00000    6    diag
    8      0.171D-04      0.103D-05       -78.02813442    117.310819   -0.00000    0.00000    0.00000    7    diag
    9      0.247D-05      0.102D-06       -78.02813442    117.310823   -0.00000    0.00000   -0.00000    0    orth

 Final occupancy:   8

 !RHF STATE  1.1 Energy               -78.028134418636
 Nuclear energy                        33.35031439
 One-electron energy                 -170.03386052
 Two-electron energy                   58.65541171
 Virial quotient                       -1.00034162
 !RHF STATE  1.1 Dipole moment         -0.00000000     0.00000000    -0.00000000
 Dipole moment /Debye                  -0.00000000     0.00000000    -0.00000000

 ELECTRON ORBITALS
 =================

  Orbital  Occupation    Energy     Coefficients
    1.1     2.00000   -11.22655     1 1s    0.70419     2 1s    0.70419
    2.1     2.00000   -11.22496     1 1s    0.70455     2 1s   -0.70455
    3.1     2.00000    -1.02702     1 1s    0.30197     2 1s    0.30197
    4.1     2.00000    -0.79119     2 1s   -0.24360
    5.1     2.00000    -0.63663     1 2py   0.32134     2 2py   0.32134
    6.1     2.00000    -0.58171     1 2pz   0.40671     2 2pz  -0.40671
    7.1     2.00000    -0.50323     1 2py   0.30486     2 2py  -0.30486
    8.1     2.00000    -0.37024     1 2px   0.37208     1 2px   0.30737     2 2px   0.37208     2 2px   0.30737
    9.1     0.00000     0.17449     1 2px   0.33923     1 2px   0.71396     2 2px  -0.33923     2 2px  -0.71396
   10.1     0.00000     0.26660     1 1s   -1.48032     1 2pz  -0.64284     2 1s   -1.48032     2 2pz   0.64284     3 1s    1.03765
                                    4 1s    1.03765     5 1s    1.03765     6 1s    1.03765
   11.1     0.00000     0.29373     1 2py  -0.25282     1 2py  -0.80389     2 2py  -0.25282     2 2py  -0.80389     3 1s    1.09459
                                    4 1s   -1.09459     5 1s    1.09459     6 1s   -1.09459
   12.1     0.00000     0.30813     1 1s    1.93133     2 1s   -1.93133     3 1s   -1.07258     4 1s   -1.07258     5 1s    1.07258
                                    6 1s    1.07258
   13.1     0.00000     0.38881     1 2py  -1.84853     2 2py   1.84853     3 1s    1.60001     4 1s   -1.60001     5 1s   -1.60001
                                    6 1s    1.60001
   14.1     0.00000     0.48968     1 1s   -2.98795     1 2pz   2.93060     2 1s    2.98795     2 2pz   2.93060     3 1s   -0.57577
                                    4 1s   -0.57577     5 1s    0.57577     6 1s    0.57577
   15.1     0.00000     0.66923     1 2pz  -0.55694     1 2pz   1.03556     2 2pz   0.55694     2 2pz  -1.03556
   16.1     0.00000     0.76293     1 2py  -0.39994     1 2py   0.76474     2 2py  -0.39994     2 2py   0.76474     3 1s   -0.38735
                                    4 1s    0.38735     5 1s   -0.38735     6 1s    0.38735
   17.1     0.00000     0.77849     1 2px  -0.73916     1 2px   0.64145     2 2px  -0.73916     2 2px   0.64145
   18.1     0.00000     0.87249     1 1s   -0.89398     1 1s    1.47906     1 2pz   0.34871     2 1s   -0.89398     2 1s    1.47906
                                    2 2pz  -0.34871     3 1s   -0.39594     4 1s   -0.39594     5 1s   -0.39594     6 1s   -0.39594
   19.1     0.00000     0.88952     1 2px  -0.81429     1 2px   1.08445     2 2px   0.81429     2 2px  -1.08445
   20.1     0.00000     0.95829     1 1s   -0.83383     1 2pz   0.60835     1 2pz  -0.47986     2 1s    0.83383     2 2pz   0.60835
                                    2 2pz  -0.47986     3 1s    0.38260     4 1s    0.38260     5 1s   -0.38260     6 1s   -0.38260
   21.1     0.00000     1.11331     1 2py  -0.68864     1 2py   1.09806     2 2py  -0.68864     2 2py   1.09806     3 1s    0.38236
                                    3 1s   -1.06131     4 1s   -0.38236     4 1s    1.06131     5 1s    0.38236     5 1s   -1.06131
                                    6 1s   -0.38236     6 1s    1.06131
   22.1     0.00000     1.13373     1 2py  -0.90911     1 2py   3.01725     2 2py   0.90911     2 2py  -3.01725     3 1s   -1.45933
                                    4 1s    1.45933     5 1s    1.45933     6 1s   -1.45933
   23.1     0.00000     1.21377     1 1s    1.03359     1 1s   -1.72264     1 2pz   0.36485     1 2pz  -0.49517     2 1s    1.03359
                                    2 1s   -1.72264     2 2pz  -0.36485     2 2pz   0.49517     3 1s   -0.44024     3 1s    0.86639
                                    4 1s   -0.44024     4 1s    0.86639     5 1s   -0.44024     5 1s    0.86639     6 1s   -0.44024
                                    6 1s    0.86639
   24.1     0.00000     1.21767     1 1s   -0.52682     1 1s    0.50211     1 2pz  -0.62242     1 2pz   1.22563     2 1s    0.52682
                                    2 1s   -0.50211     2 2pz  -0.62242     2 2pz   1.22563     3 1s    0.46865     3 1s   -0.96799
                                    4 1s    0.46865     4 1s   -0.96799     5 1s   -0.46865     5 1s    0.96799     6 1s   -0.46865
                                    6 1s    0.96799
   25.1     0.00000     1.33944     1 1s   -1.59325     1 1s    5.39458     1 2pz   0.25781     1 2pz  -1.91283     2 1s    1.59325
                                    2 1s   -5.39458     2 2pz   0.25781     2 2pz  -1.91283     3 1s   -0.33352     4 1s   -0.33352
                                    5 1s    0.33352     6 1s    0.33352
   26.1     0.00000     1.39619     1 2py   1.77595     2 2py  -1.77595     3 1s   -0.66747     3 1s   -0.29187     4 1s    0.66747
                                    4 1s    0.29187     5 1s    0.66747     5 1s    0.29187     6 1s   -0.66747     6 1s   -0.29187
   27.1     0.00000     1.74325     1 3d1+  0.61671     2 3d1+ -0.61671
   28.1     0.00000     1.89942     1 2py  -1.15751     1 3d2-  0.66368     2 2py   1.15751     2 3d2-  0.66368     3 1s    0.40907
                                    4 1s   -0.40907     5 1s   -0.40907     6 1s    0.40907
   29.1     0.00000     2.09122     1 3d2-  0.65780     1 3d1-  0.28132     2 3d2- -0.65780     2 3d1- -0.28132
   30.1     0.00000     2.19355     1 1s   -0.61952     1 3d2+  0.70855     2 1s   -0.61952     2 3d2+  0.70855     3 1s    0.36674
                                    4 1s    0.36674     5 1s    0.36674     6 1s    0.36674
   31.1     0.00000     2.37070     1 3d2- -0.33723     1 3d1-  0.63047     2 3d2-  0.33723     2 3d1- -0.63047     3 1s   -0.49083
                                    4 1s    0.49083     5 1s   -0.49083     6 1s    0.49083
   32.1     0.00000     2.40757     1 1s   -0.50702     1 2pz   0.28323     1 2pz  -0.44421     1 3d0   0.69172     2 1s   -0.50702
                                    2 2pz  -0.28323     2 2pz   0.44421     2 3d0   0.69172
   33.1     0.00000     2.61050     1 1s    0.29728     1 1s   -1.39038     1 2pz   0.29304     1 3d2+  0.79403     2 1s   -0.29728
                                    2 1s    1.39038     2 2pz   0.29304     2 3d2+ -0.79403     3 1s    0.44014     4 1s    0.44014
                                    5 1s   -0.44014     6 1s   -0.44014
   34.1     0.00000     2.71251     1 2px  -0.25676     1 3d1+  0.89903     2 2px   0.25676     2 3d1+  0.89903
   35.1     0.00000     3.04286     1 2py   0.48982     1 3d1-  0.96525     2 2py  -0.48982     2 3d1-  0.96525     3 1s   -0.46618
                                    4 1s    0.46618     5 1s    0.46618     6 1s   -0.46618
   36.1     0.00000     3.06138     1 1s    0.31562     1 1s    2.00950     1 2pz  -0.79509     1 2pz  -1.17058     1 3d0   1.10944
                                    2 1s   -0.31562     2 1s   -2.00950     2 2pz  -0.79509     2 2pz  -1.17058     2 3d0  -1.10944


 HOMO      8.1    -0.370240 =     -10.0747eV
 LUMO      9.1     0.174493 =       4.7482eV
 LUMO-HOMO         0.544733 =      14.8229eV


 **********************************************************************************************************************************
 DATASETS  * FILE   NREC   LENGTH (MB)   RECORD NAMES
              1      19       30.96       500      610      700      900      950      970     1000      129      960     1100   
                                          VAR    BASINP    GEOM    SYMINP    ZMAT    AOBASIS   BASIS     P2S    ABASIS      S 
                                         1400     1410     1200     1210     1080     1600     1650     1300     1700   
                                           T        V       H0       H01     AOSYM     SMH    MOLCAS    ERIS     OPER   

              2       4        2.86       700     1000      520     2100   
                                         GEOM     BASIS   MCVARS     RHF  

 PROGRAMS   *        TOTAL    HF-SCF       INT
 CPU TIMES  *         0.46      0.11      0.25
 REAL TIME  *         0.70 SEC
 DISK USED  *        35.97 MB
 **********************************************************************************************************************************


 PROGRAM * MULTI (Direct Multiconfiguration SCF)       Authors: P.J. Knowles, H.-J. Werner (1984)


 Number of closed-shell orbitals:   7 (   7 )
 Number of active  orbitals:        2 (   2 )
 Number of external orbitals:      27 (  27 )

 State symmetry 1

 Number of electrons:     2    Spin symmetry=Singlet   Space symmetry=1
 Number of states:        3
 Number of CSFs:          3   (4 determinants, 4 intermediate states)

 Molecular orbitals read from record     2100.2  Type=RHF/CANONICAL (state 1.1)

 Wavefunction dump at record             2140.2

 Convergence thresholds  0.10E-01 (gradient)  0.10E-05 (energy)  0.10E-02 (step length)

 Weight factors for state symmetry  1:    0.33333   0.33333   0.33333

 Number of orbital rotations:      257   (    14 Core/Active    189 Core/Virtual   0 Active/Active     54 Active/Virtual)
 Total number of variables:        269

 Micro-Iterations solved by the two-step solver

 ITER. MIC  NCI  NEG     ENERGY(VAR)     ENERGY(PROJ)   ENERGY CHANGE     GRAD(0)  GRAD(ORB)   GRAD(CI)     STEP       TIME

   1    5    4    0     -77.72860559     -77.73511870   -0.00651311    0.13368565 0.00019744 0.00000000  0.71D-01      0.10
   2    4    4    0     -77.73501107     -77.73501568   -0.00000461    0.00319552 0.00000001 0.00000000  0.27D-02      0.16
   3    2    3    0     -77.73501568     -77.73501568   -0.00000000    0.00000310 0.00000000 0.00000000  0.64D-05      0.21

 ** WVFN ****  CONVERGENCE REACHED, FINAL GRADIENT:  0.28D-10



 Results for state 1.1
 =====================

 !MCSCF STATE  1.1 Energy             -78.045950293845
 Nuclear energy                        33.35031439
 Kinetic energy                        78.07151838
 One electron energy                 -170.16667106
 Two electron energy                   58.77040638
 Virial ratio                           1.99967250

 !MCSCF STATE  1.1 Dipole moment       -0.00000000     0.00000000     0.00000000
 Dipole moment /Debye                  -0.00000000     0.00000000     0.00000000

 Results for state 2.1
 =====================

 !MCSCF STATE  2.1 Energy             -77.671777767451
 Nuclear energy                        33.35031439
 Kinetic energy                        78.24983267
 One electron energy                 -169.59151046
 Two electron energy                   58.56941830
 Virial ratio                           1.99261270

 !MCSCF STATE  2.1 Dipole moment       -0.00000000     0.00000000     0.00000000
 Dipole moment /Debye                  -0.00000000     0.00000000     0.00000000

 Results for state 3.1
 =====================

 !MCSCF STATE  3.1 Energy             -77.487318977440
 Nuclear energy                        33.35031439
 Kinetic energy                        78.42814696
 One electron energy                 -169.01634986
 Two electron energy                   58.17871649
 Virial ratio                           1.98800395

 !MCSCF STATE  3.1 Dipole moment       -0.00000000    -0.00000000     0.00000000
 Dipole moment /Debye                  -0.00000000    -0.00000000     0.00000000

 State-averaged charge density matrix saved on record  2140.2 (density set 1)

 !MCSCF trans         <2.1|DMX|1.1>    -0.172030398767 au =    -0.437229020897 Debye
 !MCSCF trans         <3.1|DMX|2.1>    -0.260036066990 au =    -0.660902467141 Debye

 !MCSCF trans         <2.1|DMZ|1.1>    -1.503112328997 au =    -3.820280233133 Debye
 !MCSCF trans         <3.1|DMZ|2.1>    -2.272060177033 au =    -5.774622704743 Debye


 NATURAL ORBITALS (state averaged)
 =================================

  Orbital  Occupation    Energy     Coefficients
    1.1     2.00000   -11.24249     1 1s    0.70421     2 1s    0.70421
    2.1     2.00000   -11.24117     1 1s    0.70451     2 1s   -0.70451
    3.1     2.00000    -1.04203     1 1s    0.30998     2 1s    0.30998
    4.1     2.00000    -0.79922     1 1s    0.28906     2 1s   -0.28906
    5.1     2.00000    -0.64968     1 2py   0.32706     2 2py   0.32706
    6.1     2.00000    -0.59702     1 2pz   0.40828     2 2pz  -0.40828
    7.1     2.00000    -0.51002     1 2py   0.31148     2 2py  -0.31148
    8.1     1.00000     0.03030     1 2px   0.37756     1 2px   0.67466     2 2px  -0.37756     2 2px  -0.67466
    9.1     1.00000    -0.22676     1 2px   0.35705     1 2px   0.31943     2 2px   0.35705     2 2px   0.31943
   10.1    -0.00000     0.26347     1 1s   -1.48092     1 2pz  -0.65051     2 1s   -1.48092     2 2pz   0.65051     3 1s    1.03901
                                    4 1s    1.03901     5 1s    1.03901     6 1s    1.03901
   11.1    -0.00000     0.28497     1 2py  -0.25124     1 2py  -0.79418     2 2py  -0.25124     2 2py  -0.79418     3 1s    1.08598
                                    4 1s   -1.08598     5 1s    1.08598     6 1s   -1.08598
   12.1    -0.00000     0.30473     1 1s    1.95189     2 1s   -1.95189     3 1s   -1.06749     4 1s   -1.06749     5 1s    1.06749
                                    6 1s    1.06749
   13.1    -0.00000     0.38443     1 2py  -0.25008     1 2py  -1.83400     2 2py   0.25008     2 2py   1.83400     3 1s    1.59328
                                    4 1s   -1.59328     5 1s   -1.59328     6 1s    1.59328
   14.1    -0.00000     0.48695     1 1s   -2.96765     1 2pz   2.91242     2 1s    2.96765     2 2pz   2.91242     3 1s   -0.58392
                                    4 1s   -0.58392     5 1s    0.58392     6 1s    0.58392
   15.1    -0.00000     0.65763     1 1s    0.25834     1 2pz  -0.54846     1 2pz   1.01259     2 1s    0.25834     2 2pz   0.54846
                                    2 2pz  -1.01259
   16.1    -0.00000     0.75234     1 2py  -0.41126     1 2py   0.77219     2 2py  -0.41126     2 2py   0.77219     3 1s   -0.38259
                                    4 1s    0.38259     5 1s   -0.38259     6 1s    0.38259
   17.1    -0.00000     0.77209     1 2px  -0.74606     1 2px   0.63698     2 2px  -0.74606     2 2px   0.63698
   18.1    -0.00000     0.86912     1 1s   -0.87282     1 1s    1.46724     1 2pz   0.37993     2 1s   -0.87282     2 1s    1.46724
                                    2 2pz  -0.37993     3 1s   -0.38569     4 1s   -0.38569     5 1s   -0.38569     6 1s   -0.38569
   19.1    -0.00000     0.87214     1 1s   -0.33625     1 2px  -0.77884     1 2px   1.11054     2 1s   -0.33625     2 2px   0.77884
                                    2 2px  -1.11054
   20.1    -0.00000     0.93926     1 1s   -0.67517     1 2pz   0.61281     1 2pz  -0.56326     2 1s    0.67517     2 2pz   0.61281
                                    2 2pz  -0.56326     3 1s    0.38270     4 1s    0.38270     5 1s   -0.38270     6 1s   -0.38270
   21.1    -0.00000     1.09776     1 2py  -0.67696     1 2py   1.09962     2 2py  -0.67696     2 2py   1.09962     3 1s    0.38318
                                    3 1s   -1.07038     4 1s   -0.38318     4 1s    1.07038     5 1s    0.38318     5 1s   -1.07038
                                    6 1s   -0.38318     6 1s    1.07038
   22.1    -0.00000     1.12151     1 2py  -0.90707     1 2py   3.01599     2 2py   0.90707     2 2py  -3.01599     3 1s   -1.46642
                                    4 1s    1.46642     5 1s    1.46642     6 1s   -1.46642
   23.1    -0.00000     1.21023     1 1s    1.02870     1 1s   -1.71892     1 2pz   0.36849     1 2pz  -0.50078     2 1s    1.02870
                                    2 1s   -1.71892     2 2pz  -0.36849     2 2pz   0.50078     3 1s   -0.44089     3 1s    0.86611
                                    4 1s   -0.44089     4 1s    0.86611     5 1s   -0.44089     5 1s    0.86611     6 1s   -0.44089
                                    6 1s    0.86611
   24.1    -0.00000     1.21491     1 1s   -0.46623     1 1s    0.30211     1 2pz  -0.63553     1 2pz   1.29977     2 1s    0.46623
                                    2 1s   -0.30211     2 2pz  -0.63553     2 2pz   1.29977     3 1s    0.47104     3 1s   -0.95511
                                    4 1s    0.47104     4 1s   -0.95511     5 1s   -0.47104     5 1s    0.95511     6 1s   -0.47104
                                    6 1s    0.95511
   25.1    -0.00000     1.31951     1 1s   -1.61413     1 1s    5.42229     1 2pz  -1.86331     2 1s    1.61413     2 1s   -5.42229
                                    2 2pz  -1.86331     3 1s   -0.37203     4 1s   -0.37203     5 1s    0.37203     6 1s    0.37203
   26.1    -0.00000     1.38812     1 2py   1.78885     2 2py  -1.78885     3 1s   -0.66585     3 1s   -0.29731     4 1s    0.66585
                                    4 1s    0.29731     5 1s    0.66585     5 1s    0.29731     6 1s   -0.66585     6 1s   -0.29731
   27.1    -0.00000     1.71765     1 3d1+  0.61626     2 3d1+ -0.61626
   28.1    -0.00000     1.88499     1 2py  -1.16180     1 3d2-  0.66342     2 2py   1.16180     2 3d2-  0.66342     3 1s    0.41022
                                    4 1s   -0.41022     5 1s   -0.41022     6 1s    0.41022
   29.1    -0.00000     2.06940     1 3d2-  0.66110     1 3d1-  0.27432     2 3d2- -0.66110     2 3d1- -0.27432
   30.1    -0.00000     2.17779     1 1s   -0.61529     1 3d2+  0.70794     2 1s   -0.61529     2 3d2+  0.70794     3 1s    0.36849
                                    4 1s    0.36849     5 1s    0.36849     6 1s    0.36849
   31.1    -0.00000     2.35295     1 2py   0.25539     1 3d2- -0.33070     1 3d1-  0.63163     2 2py   0.25539     2 3d2-  0.33070
                                    2 3d1- -0.63163     3 1s   -0.49553     4 1s    0.49553     5 1s   -0.49553     6 1s    0.49553
   32.1    -0.00000     2.38735     1 1s   -0.50501     1 2pz   0.28915     1 2pz  -0.44691     1 3d0   0.69155     2 1s   -0.50501
                                    2 2pz  -0.28915     2 2pz   0.44691     2 3d0   0.69155
   33.1    -0.00000     2.59072     1 1s    0.29821     1 1s   -1.39771     1 2pz   0.29257     1 3d2+  0.79323     2 1s   -0.29821
                                    2 1s    1.39771     2 2pz   0.29257     2 3d2+ -0.79323     3 1s    0.44328     4 1s    0.44328
                                    5 1s   -0.44328     6 1s   -0.44328
   34.1    -0.00000     2.69001     1 2px  -0.25724     1 3d1+  0.89923     2 2px   0.25724     2 3d1+  0.89923
   35.1    -0.00000     3.02986     1 2py   0.48948     1 3d1-  0.96491     2 2py  -0.48948     2 3d1-  0.96491     3 1s   -0.46840
                                    4 1s    0.46840     5 1s    0.46840     6 1s   -0.46840
   36.1    -0.00000     3.04329     1 1s    0.30860     1 1s    2.03478     1 2pz  -0.78753     1 2pz  -1.18400     1 3d0   1.11109
                                    2 1s   -0.30860     2 1s   -2.03478     2 2pz  -0.78753     2 2pz  -1.18400     2 3d0  -1.11109


 Natural orbital dump (state averaged) at molpro section  2140.2    (Orbital set 2)



 **********************************************************************************************************************************
 DATASETS  * FILE   NREC   LENGTH (MB)   RECORD NAMES
              1      20       31.69       500      610      700      900      950      970     1000      129      960     1100   
                                          VAR    BASINP    GEOM    SYMINP    ZMAT    AOBASIS   BASIS     P2S    ABASIS      S 
                                         1400     1410     1200     1210     1080     1600     1650     1300     1700     1380   
                                           T        V       H0       H01     AOSYM     SMH    MOLCAS    ERIS     OPER     JKOP   

              2       5        5.42       700     1000      520     2100     2140   
                                         GEOM     BASIS   MCVARS     RHF     MCSCF   

 PROGRAMS   *        TOTAL     MULTI    HF-SCF       INT
 CPU TIMES  *         0.72      0.26      0.11      0.25
 REAL TIME  *         1.00 SEC
 DISK USED  *        38.88 MB
 **********************************************************************************************************************************
 Molecular orbitals read from record     2140.2  Type=MCSCF/NATURAL (state averaged)
 Occupation numbers read from record     2140.2  Type=MCSCF/NATURAL (state averaged)
 Orbital energies read from record       2140.2  Type=MCSCF/NATURAL (state averaged)
 Redundancy group numbers read from rec  2140.2  Type=MCSCF/NATURAL (state averaged)

 MULTI/6-31G* energy=    -77.487318977440

           MULTI          HF-SCF
    -77.48731898    -78.02813442
 **********************************************************************************************************************************
 Molpro calculation terminated
