
 Primary working directories    : /scratch.local/johan406.molpro_temp/molpro.zpDGrctSOC
 Secondary working directories  : /scratch.local/johan406.molpro_temp/molpro.zpDGrctSOC
 Wavefunction directory         : /home/goodpast/johan406/wfu/
 Main file repository           : /scratch.local/johan406.molpro_temp/molpro.zpDGrctSOC/

 id        : roweumn

 Nodes     nprocs
 cn0117       1

 Using customized tuning parameters: mindgm=1; mindgv=20; mindgc=4; mindgr=1; noblas=0; minvec=7
 default implementation of scratch files=df  


 Variables initialized (934), CPU time= 0.00 sec
                                                                                 !leave this line blank
 
 gprint, orbitals=30
 memory, 125., m
 symmetry, nosym
 nelect=16
 basis=6-31g*
 
 geometry={
 C -0.0 0.0 0.6691
 C 0.0 0.0 -0.6691
 H 0.172 0.9149 1.2348
 H -0.172 -0.9149 1.2348
 H -0.172 0.9149 -1.2348
 H 0.172 -0.9149 -1.2348
 }
 
 hf
 {multi,
 closed 7
 occ 9
 wf,spin=0;STATE,3
 }
 
 Commands  initialized (763), CPU time= 0.01 sec, 617 directives.
 Default parameters read. Elapsed time= 0.08 sec

 Checking input...
 Passed
1


                                         ***  PROGRAM SYSTEM MOLPRO  ***
                                       Copyright, TTI GmbH Stuttgart, 2015
                                    Version 2019.2 linked Oct 25 2019 22:50:27


 **********************************************************************************************************************************
 LABEL *                                                                                 
  64 bit serial version                                                                  DATE: 26-Jan-23          TIME: 20:00:11  
 **********************************************************************************************************************************

 SHA1:             8dbd9ae1082e4ce945b0f27595c9eb2d4aa09004
 **********************************************************************************************************************************


 Variable memory set to  125000000 words,  buffer space 

 SETTING NELECT         =        16.00000000                                  
 SETTING BASIS          =    6-31G*
 ZSYMEL=NOSYM


Geometry recognized as XYZ



 Recomputing integrals since basis changed


 Using spherical harmonics

 Library entry C      S 6-31G                selected for orbital group  1
 Library entry C      P 6-31G                selected for orbital group  1
 Library entry C      D 6-31G*               selected for orbital group  1
 Library entry H      S 6-31G                selected for orbital group  2


 PROGRAM * SEWARD (Integral evaluation for generally contracted gaussian basis sets)     Author: Roland Lindh, 1990

 Geometry written to block  1 of record 700


 Point group  C1  



 ATOMIC COORDINATES

 NR  ATOM    CHARGE       X              Y              Z

   1  C       6.00   -0.000000000    0.000000000    1.264415750
   2  C       6.00    0.000000000    0.000000000   -1.264415750
   3  H       1.00    0.325032893    1.728910431    2.333433819
   4  H       1.00   -0.325032893   -1.728910431    2.333433819
   5  H       1.00   -0.325032893    1.728910431   -2.333433819
   6  H       1.00    0.325032893   -1.728910431   -2.333433819

 Bond lengths in Bohr (Angstrom)

 1-2  2.528831500  1-3  2.058537659  1-4  2.058537659  2-5  2.058537659  2-6  2.058537659
     ( 1.338200000)     ( 1.089331217)     ( 1.089331217)     ( 1.089331217)     ( 1.089331217)

 Bond angles

  1-2-5  121.28594246   1-2-6  121.28594246   2-1-3  121.28594246   2-1-4  121.28594246

  3-1-4  117.42811507   5-2-6  117.42811507

 NUCLEAR CHARGE:                   16
 NUMBER OF PRIMITIVE AOS:          72
 NUMBER OF SYMMETRY AOS:           70
 NUMBER OF CONTRACTIONS:           36   (   36A   )
 NUMBER OF CORE ORBITALS:           2   (    2A   )
 NUMBER OF VALENCE ORBITALS:       12   (   12A   )


 NUCLEAR REPULSION ENERGY   33.22446208


 Eigenvalues of metric

         1 0.830E-02 0.193E-01 0.388E-01 0.496E-01 0.697E-01 0.192E+00 0.215E+00 0.227E+00


 Contracted 2-electron integrals neglected if value below      1.0D-11
 AO integral compression algorithm  1   Integral accuracy      1.0D-11

     1.049 MB (compressed) written to integral file ( 50.7%)


 NUMBER OF SORTED TWO-ELECTRON INTEGRALS:     222111.     BUFFER LENGTH:  32768
 NUMBER OF SEGMENTS:   1  SEGMENT LENGTH:     222111      RECORD LENGTH: 524288

 Memory used in sort:       0.78 MW

 SORT1 READ      284735. AND WROTE      156951. INTEGRALS IN      1 RECORDS. CPU TIME:     0.00 SEC, REAL TIME:     0.00 SEC
 SORT2 READ      156951. AND WROTE      222111. INTEGRALS IN      4 RECORDS. CPU TIME:     0.02 SEC, REAL TIME:     0.02 SEC

 FILE SIZES:   FILE 1:    31.1 MBYTE,  FILE 4:     4.2 MBYTE,   TOTAL:     35.4 MBYTE

 OPERATOR DM      FOR CENTER  0  COORDINATES:    0.000000    0.000000    0.000000


 **********************************************************************************************************************************
 DATASETS  * FILE   NREC   LENGTH (MB)   RECORD NAMES
              1      19       30.88       500      610      700      900      950      970     1000      129      960     1100   
                                          VAR    BASINP    GEOM    SYMINP    ZMAT    AOBASIS   BASIS     P2S    ABASIS      S 
                                         1400     1410     1200     1210     1080     1600     1650     1300     1700   
                                           T        V       H0       H01     AOSYM     SMH    MOLCAS    ERIS     OPER   

 PROGRAMS   *        TOTAL       INT
 CPU TIMES  *         0.36      0.26
 REAL TIME  *         0.57 SEC
 DISK USED  *        35.71 MB
 **********************************************************************************************************************************


 PROGRAM * RHF-SCF (CLOSED SHELL)       Authors: W. Meyer, H.-J. Werner


 NUMBER OF ELECTRONS:       8+    8-    SPACE SYMMETRY=1    SPIN SYMMETRY: Singlet 
 CONVERGENCE THRESHOLDS:    1.00E-05 (Density)    1.00E-07 (Energy)
 MAX. NUMBER OF ITERATIONS:       60
 INTERPOLATION TYPE:            DIIS
 INTERPOLATION STEPS:              2 (START)      1 (STEP)
 LEVEL SHIFTS:                  0.00 (CLOSED)  0.00 (OPEN) 



 Orbital guess generated from atomic densities. Full valence occupancy:    8

 Molecular orbital dump at record        2100.2

 Initial occupancy:   8

 ITERATION    DDIFF          GRAD             ENERGY        2-EL.EN.            DIPOLE MOMENTS         DIIS   ORB.
    1      0.000D+00      0.000D+00       -77.99583170    118.397585   -0.00000    0.00000    0.00000    0    start
    2      0.000D+00      0.852D-02       -78.01757956    116.553577    0.00000    0.00000   -0.00000    1    diag
    3      0.819D-02      0.293D-02       -78.01974881    117.191072   -0.00000   -0.00000    0.00000    2    diag
    4      0.266D-02      0.721D-03       -78.01997367    117.090341   -0.00000    0.00000    0.00000    3    diag
    5      0.108D-02      0.810D-04       -78.01997730    117.093446   -0.00000   -0.00000   -0.00000    4    diag
    6      0.159D-03      0.144D-04       -78.01997745    117.092927   -0.00000    0.00000    0.00000    5    diag
    7      0.210D-04      0.363D-05       -78.01997746    117.092955    0.00000    0.00000   -0.00000    6    diag
    8      0.567D-05      0.479D-06       -78.01997746    117.092945   -0.00000   -0.00000   -0.00000    0    orth

 Final occupancy:   8

 !RHF STATE  1.1 Energy               -78.019977457077
 Nuclear energy                        33.22446208
 One-electron energy                 -169.79091216
 Two-electron energy                   58.54647263
 Virial quotient                       -1.00088972
 !RHF STATE  1.1 Dipole moment         -0.00000000    -0.00000000    -0.00000000
 Dipole moment /Debye                  -0.00000000    -0.00000000    -0.00000000

 ELECTRON ORBITALS
 =================

  Orbital  Occupation    Energy     Coefficients
    1.1     2.00000   -11.22840     1 1s    0.70419     2 1s    0.70419
    2.1     2.00000   -11.22681     1 1s    0.70455     2 1s   -0.70455
    3.1     2.00000    -1.02553     1 1s    0.30201     2 1s    0.30201
    4.1     2.00000    -0.78572     2 1s   -0.24741
    5.1     2.00000    -0.63355     1 2py   0.31834     2 2py   0.31834
    6.1     2.00000    -0.57901     1 2pz   0.40593     2 2pz  -0.40593
    7.1     2.00000    -0.51108     1 2py   0.28332     2 2py  -0.28332
    8.1     2.00000    -0.35889     1 2px   0.35369     1 2px   0.30190     2 2px   0.35369     2 2px   0.30190
    9.1     0.00000     0.16837     1 2px   0.32980     1 2px   0.67572     2 2px  -0.32980     2 2px  -0.67572
   10.1     0.00000     0.26567     1 1s   -1.45711     1 2pz  -0.63190     2 1s   -1.45711     2 2pz   0.63190     3 1s    1.02222
                                    4 1s    1.02222     5 1s    1.02222     6 1s    1.02222
   11.1     0.00000     0.29635     1 2px  -0.37119     1 2py  -0.77634     2 2px   0.37119     2 2py  -0.77634     3 1s    1.08660
                                    4 1s   -1.08660     5 1s    1.08660     6 1s   -1.08660
   12.1     0.00000     0.30250     1 1s   -1.83982     2 1s    1.83982     3 1s    1.05628     4 1s    1.05628     5 1s   -1.05628
                                    6 1s   -1.05628
   13.1     0.00000     0.38643     1 2py  -1.80591     2 2py   1.80591     3 1s    1.56776     4 1s   -1.56776     5 1s   -1.56776
                                    6 1s    1.56776
   14.1     0.00000     0.48596     1 1s   -3.04517     1 2pz   2.91040     2 1s    3.04517     2 2pz   2.91040     3 1s   -0.52923
                                    4 1s   -0.52923     5 1s    0.52923     6 1s    0.52923
   15.1     0.00000     0.66899     1 2pz  -0.55660     1 2pz   1.02968     2 2pz   0.55660     2 2pz  -1.02968
   16.1     0.00000     0.77937     1 2py  -0.41098     1 2py   0.78322     2 2py  -0.41098     2 2py   0.78322     3 1s   -0.38769
                                    4 1s    0.38769     5 1s   -0.38769     6 1s    0.38769
   17.1     0.00000     0.77951     1 2px  -0.72669     1 2px   0.63782     2 2px  -0.72669     2 2px   0.63782
   18.1     0.00000     0.86523     1 1s   -0.86539     1 1s    1.40064     1 2pz   0.32154     2 1s   -0.86539     2 1s    1.40064
                                    2 2pz  -0.32154     3 1s   -0.40863     4 1s   -0.40863     5 1s   -0.40863     6 1s   -0.40863
   19.1     0.00000     0.88681     1 2px  -0.80335     1 2px   1.06598     2 2px   0.80335     2 2px  -1.06598
   20.1     0.00000     0.95350     1 1s   -0.87327     1 2pz   0.60901     1 2pz  -0.39923     2 1s    0.87327     2 2pz   0.60901
                                    2 2pz  -0.39923     3 1s    0.38140     4 1s    0.38140     5 1s   -0.38140     6 1s   -0.38140
   21.1     0.00000     1.11064     1 2py  -0.67411     1 2px   0.32284     1 2py   1.08026     2 2py  -0.67411     2 2px  -0.32284
                                    2 2py   1.08026     3 1s    0.38208     3 1s   -1.05537     4 1s   -0.38208     4 1s    1.05537
                                    5 1s    0.38208     5 1s   -1.05537     6 1s   -0.38208     6 1s    1.05537
   22.1     0.00000     1.14371     1 2py   0.90246     1 2px  -0.32667     1 2py  -2.87274     2 2py  -0.90246     2 2px  -0.32667
                                    2 2py   2.87274     3 1s    1.44683     4 1s   -1.44683     5 1s   -1.44683     6 1s    1.44683
   23.1     0.00000     1.20282     1 1s    1.05316     1 1s   -1.75498     1 2pz   0.36063     1 2pz  -0.50220     2 1s    1.05316
                                    2 1s   -1.75498     2 2pz  -0.36063     2 2pz   0.50220     3 1s   -0.42891     3 1s    0.87319
                                    4 1s   -0.42891     4 1s    0.87319     5 1s   -0.42891     5 1s    0.87319     6 1s   -0.42891
                                    6 1s    0.87319
   24.1     0.00000     1.20443     1 1s   -0.57396     1 1s    0.67046     1 2pz  -0.60869     1 2pz   1.12719     2 1s    0.57396
                                    2 1s   -0.67046     2 2pz  -0.60869     2 2pz   1.12719     3 1s    0.46441     3 1s   -0.95683
                                    4 1s    0.46441     4 1s   -0.95683     5 1s   -0.46441     5 1s    0.95683     6 1s   -0.46441
                                    6 1s    0.95683
   25.1     0.00000     1.33461     1 1s   -1.56541     1 1s    5.33594     1 2pz   0.28672     1 2pz  -1.99757     2 1s    1.56541
                                    2 1s   -5.33594     2 2pz   0.28672     2 2pz  -1.99757     3 1s   -0.26727     4 1s   -0.26727
                                    5 1s    0.26727     6 1s    0.26727
   26.1     0.00000     1.39203     1 2py   1.96298     2 2py  -1.96298     3 1s   -0.64511     3 1s   -0.40460     4 1s    0.64511
                                    4 1s    0.40460     5 1s    0.64511     5 1s    0.40460     6 1s   -0.64511     6 1s   -0.40460
   27.1     0.00000     1.81337     1 2py   1.13836     1 3d1+  0.59135     2 2py  -1.13836     2 3d1+ -0.59135     3 1s   -0.27621
                                    3 1s   -0.35085     4 1s    0.27621     4 1s    0.35085     5 1s    0.27621     5 1s    0.35085
                                    6 1s   -0.27621     6 1s   -0.35085
   28.1     0.00000     1.84809     1 1s    0.48391     1 3d2-  0.66579     2 1s   -0.48391     2 3d2-  0.66579
   29.1     0.00000     2.03774     1 1s   -0.34331     1 3d2-  0.48277     1 3d2+  0.52533     2 1s   -0.34331     2 3d2- -0.48277
                                    2 3d2+  0.52533
   30.1     0.00000     2.28994     1 1s   -0.25387     1 1s    0.49324     1 3d2-  0.53904     1 3d2+ -0.45600     2 1s   -0.25387
                                    2 1s    0.49324     2 3d2- -0.53904     2 3d2+ -0.45600     3 1s   -0.29761     4 1s   -0.29761
                                    5 1s   -0.29761     6 1s   -0.29761
   31.1     0.00000     2.29636     1 2py   0.25108     1 3d1-  0.67915     2 2py   0.25108     2 3d1- -0.67915     3 1s   -0.49417
                                    4 1s    0.49417     5 1s   -0.49417     6 1s    0.49417
   32.1     0.00000     2.41640     1 1s   -0.47828     1 2pz   0.26750     1 2pz  -0.45422     1 3d0   0.66414     2 1s   -0.47828
                                    2 2pz  -0.26750     2 2pz   0.45422     2 3d0   0.66414
   33.1     0.00000     2.58693     1 1s    0.30179     1 1s   -1.37444     1 2pz   0.30143     1 3d2+  0.77303     2 1s   -0.30179
                                    2 1s    1.37444     2 2pz   0.30143     2 3d2+ -0.77303     3 1s    0.43148     4 1s    0.43148
                                    5 1s   -0.43148     6 1s   -0.43148
   34.1     0.00000     2.72156     1 3d1+  0.89949     2 3d1+  0.89949
   35.1     0.00000     3.01898     1 2py   0.45115     1 3d1-  0.95816     2 2py  -0.45115     2 3d1-  0.95816     3 1s   -0.44900
                                    4 1s    0.44900     5 1s    0.44900     6 1s   -0.44900
   36.1     0.00000     3.06259     1 1s    0.31559     1 1s    2.01904     1 2pz  -0.79750     1 2pz  -1.16785     1 3d0   1.11189
                                    2 1s   -0.31559     2 1s   -2.01904     2 2pz  -0.79750     2 2pz  -1.16785     2 3d0  -1.11189


 HOMO      8.1    -0.358886 =      -9.7658eV
 LUMO      9.1     0.168366 =       4.5815eV
 LUMO-HOMO         0.527252 =      14.3473eV


 **********************************************************************************************************************************
 DATASETS  * FILE   NREC   LENGTH (MB)   RECORD NAMES
              1      19       30.88       500      610      700      900      950      970     1000      129      960     1100   
                                          VAR    BASINP    GEOM    SYMINP    ZMAT    AOBASIS   BASIS     P2S    ABASIS      S 
                                         1400     1410     1200     1210     1080     1600     1650     1300     1700   
                                           T        V       H0       H01     AOSYM     SMH    MOLCAS    ERIS     OPER   

              2       4        2.86       700     1000      520     2100   
                                         GEOM     BASIS   MCVARS     RHF  

 PROGRAMS   *        TOTAL    HF-SCF       INT
 CPU TIMES  *         0.48      0.12      0.26
 REAL TIME  *         0.71 SEC
 DISK USED  *        35.71 MB
 **********************************************************************************************************************************


 PROGRAM * MULTI (Direct Multiconfiguration SCF)       Authors: P.J. Knowles, H.-J. Werner (1984)


 Number of closed-shell orbitals:   7 (   7 )
 Number of active  orbitals:        2 (   2 )
 Number of external orbitals:      27 (  27 )

 State symmetry 1

 Number of electrons:     2    Spin symmetry=Singlet   Space symmetry=1
 Number of states:        3
 Number of CSFs:          3   (4 determinants, 4 intermediate states)

 Molecular orbitals read from record     2100.2  Type=RHF/CANONICAL (state 1.1)

 Wavefunction dump at record             2140.2

 Convergence thresholds  0.10E-01 (gradient)  0.10E-05 (energy)  0.10E-02 (step length)

 Weight factors for state symmetry  1:    0.33333   0.33333   0.33333

 Number of orbital rotations:      257   (    14 Core/Active    189 Core/Virtual   0 Active/Active     54 Active/Virtual)
 Total number of variables:        269

 Micro-Iterations solved by the two-step solver

 ITER. MIC  NCI  NEG     ENERGY(VAR)     ENERGY(PROJ)   ENERGY CHANGE     GRAD(0)  GRAD(ORB)   GRAD(CI)     STEP       TIME

   1    7    6    0     -77.74840697     -77.75892406   -0.01051710    0.12519403 0.00209902 0.00000000  0.11D+00      0.11
   2    4    4    0     -77.75878418     -77.75879184   -0.00000765    0.00354287 0.00000092 0.00000000  0.45D-02      0.17
   3    3    3    0     -77.75879185     -77.75879185   -0.00000000    0.00000669 0.00000000 0.00000000  0.17D-04      0.23

 ** WVFN ****  CONVERGENCE REACHED, FINAL GRADIENT:  0.11D-09



 Results for state 1.1
 =====================

 !MCSCF STATE  1.1 Energy             -78.031484710114
 Nuclear energy                        33.22446208
 Kinetic energy                        77.98542778
 One electron energy                 -169.88617336
 Two electron energy                   58.63022657
 Virial ratio                           2.00059058

 !MCSCF STATE  1.1 Dipole moment        0.00000000     0.00000000    -0.00000000
 Dipole moment /Debye                   0.00000000     0.00000000    -0.00000000

 Results for state 2.1
 =====================

 !MCSCF STATE  2.1 Energy             -77.708714580910
 Nuclear energy                        33.22446208
 Kinetic energy                        78.13085501
 One electron energy                 -169.41474850
 Two electron energy                   58.48157185
 Virial ratio                           1.99459701

 !MCSCF STATE  2.1 Dipole moment        0.00000000     0.00000000    -0.00000000
 Dipole moment /Debye                   0.00000000     0.00000000    -0.00000000

 Results for state 3.1
 =====================

 !MCSCF STATE  3.1 Energy             -77.536176254717
 Nuclear energy                        33.22446208
 Kinetic energy                        78.27628224
 One electron energy                 -168.94332365
 Two electron energy                   58.18268531
 Virial ratio                           1.99054495

 !MCSCF STATE  3.1 Dipole moment        0.00000000     0.00000000    -0.00000000
 Dipole moment /Debye                   0.00000000     0.00000000    -0.00000000

 State-averaged charge density matrix saved on record  2140.2 (density set 1)

 !MCSCF trans         <2.1|DMZ|1.1>    -1.194235962534 au =    -3.035246237656 Debye
 !MCSCF trans         <3.1|DMZ|2.1>    -1.706140603334 au =    -4.336292834621 Debye


 NATURAL ORBITALS (state averaged)
 =================================

  Orbital  Occupation    Energy     Coefficients
    1.1     2.00000   -11.24031     1 1s    0.70420     2 1s    0.70420
    2.1     2.00000   -11.23891     1 1s    0.70452     2 1s   -0.70452
    3.1     2.00000    -1.03617     1 1s    0.30777     2 1s    0.30777
    4.1     2.00000    -0.79185     1 1s    0.27843     2 1s   -0.27843
    5.1     2.00000    -0.63944     1 2py   0.32385     2 2py   0.32385
    6.1     2.00000    -0.59055     1 2pz   0.40720     2 2pz  -0.40720
    7.1     2.00000    -0.51821     1 2py   0.26515     2 2py  -0.26515
    8.1     1.00000    -0.21275     1 2px   0.31810     1 2px   0.29888     2 2px   0.31810     2 2px   0.29888
    9.1     1.00000     0.01994     1 2px   0.36246     1 2px   0.59370     2 2px  -0.36246     2 2px  -0.59370
   10.1    -0.00000     0.26194     1 1s   -1.45306     1 2pz  -0.63565     2 1s   -1.45306     2 2pz   0.63565     3 1s    1.02156
                                    4 1s    1.02156     5 1s    1.02156     6 1s    1.02156
   11.1    -0.00000     0.28992     1 2px  -0.41323     1 2py  -0.75429     2 2px   0.41323     2 2py  -0.75429     3 1s    1.07019
                                    4 1s   -1.07019     5 1s    1.07019     6 1s   -1.07019
   12.1    -0.00000     0.29816     1 1s   -1.85508     2 1s    1.85508     3 1s    1.05281     4 1s    1.05281     5 1s   -1.05281
                                    6 1s   -1.05281
   13.1    -0.00000     0.38136     1 2py  -1.80323     2 2py   1.80323     3 1s    1.56272     4 1s   -1.56272     5 1s   -1.56272
                                    6 1s    1.56272
   14.1    -0.00000     0.48341     1 1s   -3.03280     1 2pz   2.89885     2 1s    3.03280     2 2pz   2.89885     3 1s   -0.53482
                                    4 1s   -0.53482     5 1s    0.53482     6 1s    0.53482
   15.1    -0.00000     0.66022     1 2pz  -0.55147     1 2pz   1.01489     2 2pz   0.55147     2 2pz  -1.01489
   16.1    -0.00000     0.77177     1 2py  -0.41710     1 2px   0.27298     1 2py   0.77571     2 2py  -0.41710     2 2px  -0.27298
                                    2 2py   0.77571     3 1s   -0.38574     4 1s    0.38574     5 1s   -0.38574     6 1s    0.38574
   17.1    -0.00000     0.77723     1 2px  -0.73285     1 2px   0.63699     2 2px  -0.73285     2 2px   0.63699
   18.1    -0.00000     0.86311     1 1s   -0.85733     1 1s    1.41169     1 2pz   0.34996     2 1s   -0.85733     2 1s    1.41169
                                    2 2pz  -0.34996     3 1s   -0.41192     4 1s   -0.41192     5 1s   -0.41192     6 1s   -0.41192
   19.1    -0.00000     0.87016     1 2px  -0.78352     1 2px   1.08110     2 2px   0.78352     2 2px  -1.08110
   20.1    -0.00000     0.93751     1 1s   -0.76918     1 2pz   0.60860     1 2pz  -0.44703     2 1s    0.76918     2 2pz   0.60860
                                    2 2pz  -0.44703     3 1s    0.38400     4 1s    0.38400     5 1s   -0.38400     6 1s   -0.38400
   21.1    -0.00000     1.09753     1 2py  -0.66298     1 2px   0.33303     1 2py   1.08367     2 2py  -0.66298     2 2px  -0.33303
                                    2 2py   1.08367     3 1s    0.38099     3 1s   -1.06336     4 1s   -0.38099     4 1s    1.06336
                                    5 1s    0.38099     5 1s   -1.06336     6 1s   -0.38099     6 1s    1.06336
   22.1    -0.00000     1.13395     1 2py   0.90226     1 2px  -0.32289     1 2py  -2.86731     2 2py  -0.90226     2 2px  -0.32289
                                    2 2py   2.86731     3 1s    1.44966     4 1s   -1.44966     5 1s   -1.44966     6 1s    1.44966
   23.1    -0.00000     1.19781     1 1s    1.05294     1 1s   -1.75770     1 2pz   0.36315     1 2pz  -0.50724     2 1s    1.05294
                                    2 1s   -1.75770     2 2pz  -0.36315     2 2pz   0.50724     3 1s   -0.42835     3 1s    0.87408
                                    4 1s   -0.42835     4 1s    0.87408     5 1s   -0.42835     5 1s    0.87408     6 1s   -0.42835
                                    6 1s    0.87408
   24.1    -0.00000     1.20043     1 1s   -0.54068     1 1s    0.56408     1 2pz  -0.62034     1 2pz   1.17372     2 1s    0.54068
                                    2 1s   -0.56408     2 2pz  -0.62034     2 2pz   1.17372     3 1s    0.46422     3 1s   -0.95197
                                    4 1s    0.46422     4 1s   -0.95197     5 1s   -0.46422     5 1s    0.95197     6 1s   -0.46422
                                    6 1s    0.95197
   25.1    -0.00000     1.31973     1 1s   -1.57860     1 1s    5.35585     1 2pz   0.27325     1 2pz  -1.97342     2 1s    1.57860
                                    2 1s   -5.35585     2 2pz   0.27325     2 2pz  -1.97342     3 1s   -0.28873     4 1s   -0.28873
                                    5 1s    0.28873     6 1s    0.28873
   26.1    -0.00000     1.37666     1 2py   1.96181     2 2py  -1.96181     3 1s   -0.63822     3 1s   -0.40202     4 1s    0.63822
                                    4 1s    0.40202     5 1s    0.63822     5 1s    0.40202     6 1s   -0.63822     6 1s   -0.40202
   27.1    -0.00000     1.79912     1 2py   1.16311     1 3d1+  0.58843     2 2py  -1.16311     2 3d1+ -0.58843     3 1s   -0.28761
                                    3 1s   -0.35825     4 1s    0.28761     4 1s    0.35825     5 1s    0.28761     5 1s    0.35825
                                    6 1s   -0.28761     6 1s   -0.35825
   28.1    -0.00000     1.83931     1 1s    0.47866     1 3d2-  0.66552     2 1s   -0.47866     2 3d2-  0.66552
   29.1    -0.00000     2.01822     1 1s   -0.33808     1 3d2-  0.48612     1 3d2+  0.52302     2 1s   -0.33808     2 3d2- -0.48612
                                    2 3d2+  0.52302
   30.1    -0.00000     2.27870     1 1s   -0.25629     1 1s    0.49392     1 3d2-  0.53366     1 3d2+ -0.45838     2 1s   -0.25629
                                    2 1s    0.49392     2 3d2- -0.53366     2 3d2+ -0.45838     3 1s   -0.29842     4 1s   -0.29842
                                    5 1s   -0.29842     6 1s   -0.29842
   31.1    -0.00000     2.28067     1 2py   0.25703     1 3d1-  0.67706     2 2py   0.25703     2 3d1- -0.67706     3 1s   -0.49538
                                    4 1s    0.49538     5 1s   -0.49538     6 1s    0.49538
   32.1    -0.00000     2.40145     1 1s   -0.47567     1 2pz   0.27038     1 2pz  -0.45637     1 3d0   0.66224     2 1s   -0.47567
                                    2 2pz  -0.27038     2 2pz   0.45637     2 3d0   0.66224
   33.1    -0.00000     2.56994     1 1s    0.30455     1 1s   -1.38115     1 2pz   0.30020     1 3d2+  0.77261     2 1s   -0.30455
                                    2 1s    1.38115     2 2pz   0.30020     2 3d2+ -0.77261     3 1s    0.43306     4 1s    0.43306
                                    5 1s   -0.43306     6 1s   -0.43306
   34.1    -0.00000     2.70630     1 3d1+  0.89880     2 3d1+  0.89880
   35.1    -0.00000     3.00715     1 2py   0.44999     1 3d1-  0.95805     2 2py  -0.44999     2 3d1-  0.95805     3 1s   -0.45016
                                    4 1s    0.45016     5 1s    0.45016     6 1s   -0.45016
   36.1    -0.00000     3.04898     1 1s    0.31047     1 1s    2.03837     1 2pz  -0.79252     1 2pz  -1.17736     1 3d0   1.11298
                                    2 1s   -0.31047     2 1s   -2.03837     2 2pz  -0.79252     2 2pz  -1.17736     2 3d0  -1.11298


 Natural orbital dump (state averaged) at molpro section  2140.2    (Orbital set 2)



 **********************************************************************************************************************************
 DATASETS  * FILE   NREC   LENGTH (MB)   RECORD NAMES
              1      20       31.61       500      610      700      900      950      970     1000      129      960     1100   
                                          VAR    BASINP    GEOM    SYMINP    ZMAT    AOBASIS   BASIS     P2S    ABASIS      S 
                                         1400     1410     1200     1210     1080     1600     1650     1300     1700     1380   
                                           T        V       H0       H01     AOSYM     SMH    MOLCAS    ERIS     OPER     JKOP   

              2       5        5.42       700     1000      520     2100     2140   
                                         GEOM     BASIS   MCVARS     RHF     MCSCF   

 PROGRAMS   *        TOTAL     MULTI    HF-SCF       INT
 CPU TIMES  *         0.76      0.28      0.12      0.26
 REAL TIME  *         1.04 SEC
 DISK USED  *        38.79 MB
 **********************************************************************************************************************************
 Molecular orbitals read from record     2140.2  Type=MCSCF/NATURAL (state averaged)
 Occupation numbers read from record     2140.2  Type=MCSCF/NATURAL (state averaged)
 Orbital energies read from record       2140.2  Type=MCSCF/NATURAL (state averaged)
 Redundancy group numbers read from rec  2140.2  Type=MCSCF/NATURAL (state averaged)

 MULTI/6-31G* energy=    -77.536176254717

           MULTI          HF-SCF
    -77.53617625    -78.01997746
 **********************************************************************************************************************************
 Molpro calculation terminated
