
 Primary working directories    : /scratch.local/johan406.molpro_temp/molpro.vsir0bMcHF
 Secondary working directories  : /scratch.local/johan406.molpro_temp/molpro.vsir0bMcHF
 Wavefunction directory         : /home/goodpast/johan406/wfu/
 Main file repository           : /scratch.local/johan406.molpro_temp/molpro.vsir0bMcHF/

 id        : roweumn

 Nodes     nprocs
 cn0117       1

 Using customized tuning parameters: mindgm=1; mindgv=20; mindgc=4; mindgr=1; noblas=0; minvec=7
 default implementation of scratch files=df  


 Variables initialized (934), CPU time= 0.00 sec
                                                                                 !leave this line blank
 
 gprint, orbitals=30
 memory, 125., m
 symmetry, nosym
 nelect=16
 basis=6-31g*
 
 geometry={
 C 0.0 0.0114 0.6691
 C 0.0 -0.0114 -0.6691
 H 0.0 0.9043 1.2705
 H -0.0 -0.9255 1.1991
 H 0.0 0.9255 -1.1991
 H 0.0 -0.9043 -1.2705
 }
 
 hf
 {multi,
 closed 7
 occ 9
 wf,spin=0;STATE,3
 }
 
 Commands  initialized (763), CPU time= 0.01 sec, 617 directives.
 Default parameters read. Elapsed time= 0.08 sec

 Checking input...
 Passed
1


                                         ***  PROGRAM SYSTEM MOLPRO  ***
                                       Copyright, TTI GmbH Stuttgart, 2015
                                    Version 2019.2 linked Oct 25 2019 22:50:27


 **********************************************************************************************************************************
 LABEL *                                                                                 
  64 bit serial version                                                                  DATE: 26-Jan-23          TIME: 20:03:27  
 **********************************************************************************************************************************

 SHA1:             8dbd9ae1082e4ce945b0f27595c9eb2d4aa09004
 **********************************************************************************************************************************


 Variable memory set to  125000000 words,  buffer space 

 SETTING NELECT         =        16.00000000                                  
 SETTING BASIS          =    6-31G*
 ZSYMEL=NOSYM


Geometry recognized as XYZ



 Recomputing integrals since basis changed


 Using spherical harmonics

 Library entry C      S 6-31G                selected for orbital group  1
 Library entry C      P 6-31G                selected for orbital group  1
 Library entry C      D 6-31G*               selected for orbital group  1
 Library entry H      S 6-31G                selected for orbital group  2


 PROGRAM * SEWARD (Integral evaluation for generally contracted gaussian basis sets)     Author: Roland Lindh, 1990

 Geometry written to block  1 of record 700


 Point group  C1  



 ATOMIC COORDINATES

 NR  ATOM    CHARGE       X              Y              Z

   1  C       6.00    0.000000000    0.021542878    1.264415750
   2  C       6.00    0.000000000   -0.021542878   -1.264415750
   3  H       1.00    0.000000000    1.708879334    2.400897041
   4  H       1.00    0.000000000   -1.748941528    2.265970596
   5  H       1.00    0.000000000    1.748941528   -2.265970596
   6  H       1.00    0.000000000   -1.708879334   -2.400897041

 Bond lengths in Bohr (Angstrom)

 1-2  2.529198517  1-3  2.034378048  1-4  2.034140394  2-5  2.034140394  2-6  2.034378048
     ( 1.338394217)     ( 1.076546502)     ( 1.076420740)     ( 1.076420740)     ( 1.076546502)

 Bond angles

  1-2-5  118.52054026   1-2-6  124.93777271   2-1-3  124.93777271   2-1-4  118.52054026

  3-1-4  116.54168704   5-2-6  116.54168704

 NUCLEAR CHARGE:                   16
 NUMBER OF PRIMITIVE AOS:          72
 NUMBER OF SYMMETRY AOS:           70
 NUMBER OF CONTRACTIONS:           36   (   36A   )
 NUMBER OF CORE ORBITALS:           2   (    2A   )
 NUMBER OF VALENCE ORBITALS:       12   (   12A   )


 NUCLEAR REPULSION ENERGY   33.39626306

 EXTRA SYMMETRY OF AOS IN SYMMETRY 1:   1 1 1 2 1 1 2 1 1 1   2 2 1 1 1 1 1 2 1 1   2 1 1 1 2 2 1 1 1 1   1 1 1 1 1 1

 Eigenvalues of metric

         1 0.826E-02 0.174E-01 0.379E-01 0.460E-01 0.710E-01 0.193E+00 0.211E+00 0.225E+00


 Contracted 2-electron integrals neglected if value below      1.0D-11
 AO integral compression algorithm  1   Integral accuracy      1.0D-11

     1.049 MB (compressed) written to integral file ( 36.6%)


 NUMBER OF SORTED TWO-ELECTRON INTEGRALS:     222111.     BUFFER LENGTH:  32768
 NUMBER OF SEGMENTS:   1  SEGMENT LENGTH:     222111      RECORD LENGTH: 524288

 Memory used in sort:       0.78 MW

 SORT1 READ      284735. AND WROTE      118723. INTEGRALS IN      1 RECORDS. CPU TIME:     0.01 SEC, REAL TIME:     0.01 SEC
 SORT2 READ      118723. AND WROTE      222111. INTEGRALS IN      4 RECORDS. CPU TIME:     0.01 SEC, REAL TIME:     0.02 SEC

 FILE SIZES:   FILE 1:    31.1 MBYTE,  FILE 4:     4.2 MBYTE,   TOTAL:     35.4 MBYTE

 OPERATOR DM      FOR CENTER  0  COORDINATES:    0.000000    0.000000    0.000000


 **********************************************************************************************************************************
 DATASETS  * FILE   NREC   LENGTH (MB)   RECORD NAMES
              1      19       30.72       500      610      700      900      950      970     1000      129      960     1100   
                                          VAR    BASINP    GEOM    SYMINP    ZMAT    AOBASIS   BASIS     P2S    ABASIS      S 
                                         1400     1410     1200     1210     1080     1600     1650     1300     1700   
                                           T        V       H0       H01     AOSYM     SMH    MOLCAS    ERIS     OPER   

 PROGRAMS   *        TOTAL       INT
 CPU TIMES  *         0.37      0.27
 REAL TIME  *         0.57 SEC
 DISK USED  *        35.71 MB
 **********************************************************************************************************************************


 PROGRAM * RHF-SCF (CLOSED SHELL)       Authors: W. Meyer, H.-J. Werner


 NUMBER OF ELECTRONS:       8+    8-    SPACE SYMMETRY=1    SPIN SYMMETRY: Singlet 
 CONVERGENCE THRESHOLDS:    1.00E-05 (Density)    1.00E-07 (Energy)
 MAX. NUMBER OF ITERATIONS:       60
 INTERPOLATION TYPE:            DIIS
 INTERPOLATION STEPS:              2 (START)      1 (STEP)
 LEVEL SHIFTS:                  0.00 (CLOSED)  0.00 (OPEN) 



 Orbital guess generated from atomic densities. Full valence occupancy:    8

 Molecular orbital dump at record        2100.2

 Initial occupancy:   8

 ITERATION    DDIFF          GRAD             ENERGY        2-EL.EN.            DIPOLE MOMENTS         DIIS   ORB.
    1      0.000D+00      0.000D+00       -78.00549922    118.701662   -0.00000    0.00000    0.00000    0    start
    2      0.000D+00      0.858D-02       -78.02739935    116.864719    0.00000   -0.00000   -0.00000    1    diag
    3      0.821D-02      0.291D-02       -78.02952296    117.494996    0.00000    0.00000   -0.00000    2    diag
    4      0.263D-02      0.712D-03       -78.02973239    117.396204    0.00000    0.00000    0.00000    3    diag
    5      0.107D-02      0.683D-04       -78.02973453    117.399112   -0.00000    0.00000    0.00000    4    diag
    6      0.147D-03      0.818D-05       -78.02973456    117.398676    0.00000    0.00000   -0.00000    5    diag
    7      0.157D-04      0.121D-05       -78.02973456    117.398684   -0.00000   -0.00000    0.00000    6    diag
    8      0.185D-05      0.145D-06       -78.02973456    117.398678   -0.00000   -0.00000    0.00000    0    orth

 Final occupancy:   8

 !RHF STATE  1.1 Energy               -78.029734559448
 Nuclear energy                        33.39626306
 One-electron energy                 -170.12533642
 Two-electron energy                   58.69933880
 Virial quotient                       -1.00015743
 !RHF STATE  1.1 Dipole moment         -0.00000000    -0.00000000     0.00000000
 Dipole moment /Debye                  -0.00000000    -0.00000000     0.00000000

 ELECTRON ORBITALS
 =================

  Orbital  Occupation    Energy     Coefficients
    1.1     2.00000   -11.22537     1 1s    0.70418     2 1s    0.70418
    2.1     2.00000   -11.22377     1 1s    0.70454     2 1s   -0.70454
    3.1     2.00000    -1.02693     1 1s    0.30208     2 1s    0.30208
    4.1     2.00000    -0.79190     2 1s   -0.24207
    5.1     2.00000    -0.63840     1 2py   0.32164     2 2py   0.32164
    6.1     2.00000    -0.58392     1 2pz   0.40349     2 2pz  -0.40349
    7.1     2.00000    -0.50374     1 2py   0.30294     2 2py  -0.30294
    8.1     2.00000    -0.36930     1 2px   0.37329     1 2px   0.30794     2 2px   0.37329     2 2px   0.30794
    9.1     0.00000     0.17855     1 2px   0.34210     1 2px   0.73378     2 2px  -0.34210     2 2px  -0.73378
   10.1     0.00000     0.26636     1 1s   -1.49404     1 2pz  -0.64559     2 1s   -1.49404     2 2pz   0.64559     3 1s    1.02175
                                    4 1s    1.05792     5 1s    1.05792     6 1s    1.02175
   11.1     0.00000     0.29304     1 1s   -0.45325     1 2py  -0.77196     2 1s    0.45325     2 2py  -0.77196     3 1s    1.33387
                                    4 1s   -0.78186     5 1s    0.78186     6 1s   -1.33387
   12.1     0.00000     0.31058     1 1s   -1.88218     1 2py   0.25376     2 1s    1.88218     2 2py   0.25376     3 1s    0.72744
                                    4 1s    1.35208     5 1s   -1.35208     6 1s   -0.72744
   13.1     0.00000     0.39018     1 2py  -1.86798     2 2py   1.86798     3 1s    1.67557     4 1s   -1.56901     5 1s   -1.56901
                                    6 1s    1.67557
   14.1     0.00000     0.49053     1 1s   -2.99586     1 2pz   2.96042     2 1s    2.99586     2 2pz   2.96042     3 1s   -0.66688
                                    4 1s   -0.51914     5 1s    0.51914     6 1s    0.66688
   15.1     0.00000     0.66996     1 2pz  -0.55372     1 2pz   1.03604     2 2pz   0.55372     2 2pz  -1.03604
   16.1     0.00000     0.76226     1 2py  -0.39594     1 2py   0.76814     2 2py  -0.39594     2 2py   0.76814     3 1s   -0.42500
                                    4 1s    0.34426     5 1s   -0.34426     6 1s    0.42500
   17.1     0.00000     0.77718     1 2px  -0.74061     1 2px   0.63954     2 2px  -0.74061     2 2px   0.63954
   18.1     0.00000     0.86238     1 1s   -0.88710     1 1s    1.45775     1 2pz   0.33201     2 1s   -0.88710     2 1s    1.45775
                                    2 2pz  -0.33201     3 1s   -0.40110     4 1s   -0.39007     4 1s   -0.27762     5 1s   -0.39007
                                    5 1s   -0.27762     6 1s   -0.40110
   19.1     0.00000     0.89040     1 2px  -0.81854     1 2px   1.07378     2 2px   0.81854     2 2px  -1.07378
   20.1     0.00000     0.95585     1 1s   -0.86897     1 2pz   0.59860     1 2pz  -0.45291     2 1s    0.86897     2 2pz   0.59860
                                    2 2pz  -0.45291     3 1s    0.36252     4 1s    0.39930     5 1s   -0.39930     6 1s   -0.36252
   21.1     0.00000     1.11713     1 2py  -0.68477     1 2py   1.08822     2 2py  -0.68477     2 2py   1.08822     3 1s    0.33409
                                    3 1s   -1.01327     4 1s   -0.43247     4 1s    1.09845     5 1s    0.43247     5 1s   -1.09845
                                    6 1s   -0.33409     6 1s    1.01327
   22.1     0.00000     1.15911     1 2py   0.92185     1 2py  -2.92545     2 2py  -0.92185     2 2py   2.92545     3 1s    1.59974
                                    4 1s   -1.40410     5 1s   -1.40410     6 1s    1.59974
   23.1     0.00000     1.21576     1 1s    1.03555     1 1s   -1.72343     1 2pz   0.36463     1 2pz  -0.49245     2 1s    1.03555
                                    2 1s   -1.72343     2 2pz  -0.36463     2 2pz   0.49245     3 1s   -0.43157     3 1s    0.82268
                                    4 1s   -0.44841     4 1s    0.90748     5 1s   -0.44841     5 1s    0.90748     6 1s   -0.43157
                                    6 1s    0.82268
   24.1     0.00000     1.22220     1 1s   -0.52508     1 1s    0.49333     1 2pz  -0.62834     1 2pz   1.23571     2 1s    0.52508
                                    2 1s   -0.49333     2 2pz  -0.62834     2 2pz   1.23571     3 1s    0.48575     3 1s   -1.01635
                                    4 1s    0.45102     4 1s   -0.92089     5 1s   -0.45102     5 1s    0.92089     6 1s   -0.48575
                                    6 1s    1.01635
   25.1     0.00000     1.33842     1 1s   -1.59196     1 1s    5.38979     1 2pz   0.26217     1 2pz  -1.91973     2 1s    1.59196
                                    2 1s   -5.38979     2 2pz   0.26217     2 2pz  -1.91973     3 1s   -0.25823     4 1s   -0.40798
                                    5 1s    0.40798     6 1s    0.25823
   26.1     0.00000     1.47041     1 2py   2.50108     2 2py  -2.50108     3 1s   -0.71616     3 1s   -0.72714     4 1s    0.67412
                                    4 1s    0.57972     5 1s    0.67412     5 1s    0.57972     6 1s   -0.71616     6 1s   -0.72714
   27.1     0.00000     1.73898     1 3d1+  0.61893     2 3d1+ -0.61893
   28.1     0.00000     1.82187     1 3d2-  0.68117     2 3d2-  0.68117
   29.1     0.00000     2.12786     1 3d2-  0.73602     2 3d2- -0.73602
   30.1     0.00000     2.21064     1 1s   -0.59869     1 3d2+  0.71228     2 1s   -0.59869     2 3d2+  0.71228     3 1s    0.32237
                                    4 1s    0.42245     5 1s    0.42245     6 1s    0.32237
   31.1     0.00000     2.32763     1 2py   0.27567     1 3d1-  0.68753     2 2py   0.27567     2 3d1- -0.68753     3 1s   -0.55833
                                    4 1s    0.47030     5 1s   -0.47030     6 1s    0.55833
   32.1     0.00000     2.40945     1 1s   -0.50548     1 2pz   0.28092     1 2pz  -0.44525     1 3d0   0.68909     2 1s   -0.50548
                                    2 2pz  -0.28092     2 2pz   0.44525     2 3d0   0.68909
   33.1     0.00000     2.62762     1 1s    0.29077     1 1s   -1.37266     1 2pz   0.29217     1 3d2+  0.79691     2 1s   -0.29077
                                    2 1s    1.37266     2 2pz   0.29217     2 3d2+ -0.79691     3 1s    0.38076     4 1s    0.50360
                                    5 1s   -0.50360     6 1s   -0.38076
   34.1     0.00000     2.70779     1 2px  -0.26448     1 3d1+  0.90248     2 2px   0.26448     2 3d1+  0.90248
   35.1     0.00000     3.06177     1 2py   0.54781     1 3d1-  0.97025     2 2py  -0.54781     2 3d1-  0.97025     3 1s   -0.50750
                                    4 1s    0.44277     5 1s    0.44277     6 1s   -0.50750
   36.1     0.00000     3.06416     1 1s    0.31661     1 1s    2.01528     1 2pz  -0.79438     1 2pz  -1.17475     1 3d0   1.11112
                                    2 1s   -0.31661     2 1s   -2.01528     2 2pz  -0.79438     2 2pz  -1.17475     2 3d0  -1.11112


 HOMO      8.1    -0.369297 =     -10.0491eV
 LUMO      9.1     0.178547 =       4.8585eV
 LUMO-HOMO         0.547844 =      14.9076eV


 **********************************************************************************************************************************
 DATASETS  * FILE   NREC   LENGTH (MB)   RECORD NAMES
              1      19       30.72       500      610      700      900      950      970     1000      129      960     1100   
                                          VAR    BASINP    GEOM    SYMINP    ZMAT    AOBASIS   BASIS     P2S    ABASIS      S 
                                         1400     1410     1200     1210     1080     1600     1650     1300     1700   
                                           T        V       H0       H01     AOSYM     SMH    MOLCAS    ERIS     OPER   

              2       4        2.86       700     1000      520     2100   
                                         GEOM     BASIS   MCVARS     RHF  

 PROGRAMS   *        TOTAL    HF-SCF       INT
 CPU TIMES  *         0.47      0.10      0.27
 REAL TIME  *         0.71 SEC
 DISK USED  *        35.71 MB
 **********************************************************************************************************************************


 PROGRAM * MULTI (Direct Multiconfiguration SCF)       Authors: P.J. Knowles, H.-J. Werner (1984)


 Number of closed-shell orbitals:   7 (   7 )
 Number of active  orbitals:        2 (   2 )
 Number of external orbitals:      27 (  27 )

 State symmetry 1

 Number of electrons:     2    Spin symmetry=Singlet   Space symmetry=1
 Number of states:        3
 Number of CSFs:          3   (4 determinants, 4 intermediate states)

 Molecular orbitals read from record     2100.2  Type=RHF/CANONICAL (state 1.1)

 EXTRA SYMMETRY OF MOS IN SYMMETRY 1:   1 1 1 1 1 1 1 2 2 1   1 1 1 1 1 1 2 1 2 1   1 1 1 1 1 1 2 2 2 1   1 1 1 2 1 1

 Wavefunction dump at record             2140.2

 Convergence thresholds  0.10E-01 (gradient)  0.10E-05 (energy)  0.10E-02 (step length)

 Weight factors for state symmetry  1:    0.33333   0.33333   0.33333

 Number of orbital rotations:      257   (    14 Core/Active    189 Core/Virtual   0 Active/Active     54 Active/Virtual)
 Total number of variables:        269

 Micro-Iterations solved by the two-step solver

 ITER. MIC  NCI  NEG     ENERGY(VAR)     ENERGY(PROJ)   ENERGY CHANGE     GRAD(0)  GRAD(ORB)   GRAD(CI)     STEP       TIME

   1    3    3    0     -77.72856058     -77.73480557   -0.00624499    0.13260548 0.00000154 0.00000000  0.63D-01      0.06
   2    2    3    0     -77.73470705     -77.73471082   -0.00000377    0.00304381 0.00000186 0.00000000  0.16D-02      0.09
   3    2    3    0     -77.73471082     -77.73471082   -0.00000000    0.00000216 0.00000000 0.00000000  0.13D-05      0.13

 ** WVFN ****  CONVERGENCE REACHED, FINAL GRADIENT:  0.13D-11



 Results for state 1.1
 =====================

 !MCSCF STATE  1.1 Energy             -78.047411558231
 Nuclear energy                        33.39626306
 Kinetic energy                        78.08580826
 One electron energy                 -170.25741717
 Two electron energy                   58.81374256
 Virial ratio                           1.99950828

 !MCSCF STATE  1.1 Dipole moment        0.00000000     0.00000000     0.00000000
 Dipole moment /Debye                   0.00000000     0.00000000     0.00000000

 Results for state 2.1
 =====================

 !MCSCF STATE  2.1 Energy             -77.671446965340
 Nuclear energy                        33.39626306
 Kinetic energy                        78.26611324
 One electron energy                 -169.68412744
 Two electron energy                   58.61641741
 Virial ratio                           1.99240200

 !MCSCF STATE  2.1 Dipole moment        0.00000000     0.00000000     0.00000000
 Dipole moment /Debye                   0.00000000     0.00000000     0.00000000

 Results for state 3.1
 =====================

 !MCSCF STATE  3.1 Energy             -77.485273928874
 Nuclear energy                        33.39626306
 Kinetic energy                        78.44641821
 One electron energy                 -169.11083770
 Two electron energy                   58.22930072
 Virial ratio                           1.98774776

 !MCSCF STATE  3.1 Dipole moment        0.00000000     0.00000000     0.00000000
 Dipole moment /Debye                   0.00000000     0.00000000     0.00000000

 State-averaged charge density matrix saved on record  2140.2 (density set 1)

 !MCSCF trans         <2.1|DMY|1.1>    -0.025520920221 au =    -0.064863460415 Debye
 !MCSCF trans         <3.1|DMY|2.1>    -0.038416480425 au =    -0.097638558318 Debye

 !MCSCF trans         <2.1|DMZ|1.1>    -1.510264330917 au =    -3.838457618173 Debye
 !MCSCF trans         <3.1|DMZ|2.1>    -2.273391382528 au =    -5.778006070004 Debye


 NATURAL ORBITALS (state averaged)
 =================================

  Orbital  Occupation    Energy     Coefficients
    1.1     2.00000   -11.24109     1 1s    0.70420     2 1s    0.70420
    2.1     2.00000   -11.23976     1 1s    0.70450     2 1s   -0.70450
    3.1     2.00000    -1.04169     1 1s    0.31009     2 1s    0.31009
    4.1     2.00000    -0.79970     1 1s    0.28748     2 1s   -0.28748
    5.1     2.00000    -0.65127     1 2py   0.32732     2 2py   0.32732
    6.1     2.00000    -0.59878     1 2pz   0.40610     2 2pz  -0.40610
    7.1     2.00000    -0.51063     1 2py   0.31006     2 2py  -0.31006
    8.1     1.00000     0.03367     1 2px   0.38008     1 2px   0.68679     2 2px  -0.38008     2 2px  -0.68679
    9.1     1.00000    -0.22543     1 2px   0.35790     1 2px   0.31935     2 2px   0.35790     2 2px   0.31935
   10.1    -0.00000     0.26360     1 1s   -1.48950     1 2pz  -0.65102     2 1s   -1.48950     2 2pz   0.65102     3 1s    1.01220
                                    4 1s    1.06589     5 1s    1.06589     6 1s    1.01220
   11.1    -0.00000     0.28494     1 1s   -0.33262     1 2py  -0.77786     2 1s    0.33262     2 2py  -0.77786     3 1s    1.27100
                                    4 1s   -0.86510     5 1s    0.86510     6 1s   -1.27100
   12.1    -0.00000     0.30710     1 1s   -1.93188     2 1s    1.93188     3 1s    0.81206     4 1s    1.28941     5 1s   -1.28941
                                    6 1s   -0.81206
   13.1    -0.00000     0.38599     1 2py  -1.85317     2 2py   1.85317     3 1s    1.67480     4 1s   -1.55555     5 1s   -1.55555
                                    6 1s    1.67480
   14.1    -0.00000     0.48771     1 1s   -2.97228     1 2pz   2.94159     2 1s    2.97228     2 2pz   2.94159     3 1s   -0.67861
                                    4 1s   -0.52631     5 1s    0.52631     6 1s    0.67861
   15.1    -0.00000     0.65863     1 1s    0.25478     1 2pz  -0.54580     1 2pz   1.01309     2 1s    0.25478     2 2pz   0.54580
                                    2 2pz  -1.01309
   16.1    -0.00000     0.75192     1 2py  -0.40741     1 2py   0.77623     2 2py  -0.40741     2 2py   0.77623     3 1s   -0.41957
                                    4 1s    0.34029     5 1s   -0.34029     6 1s    0.41957
   17.1    -0.00000     0.77116     1 2px  -0.74723     1 2px   0.63427     2 2px  -0.74723     2 2px   0.63427
   18.1    -0.00000     0.85949     1 1s   -0.88055     1 1s    1.48147     1 2pz   0.37815     2 1s   -0.88055     2 1s    1.48147
                                    2 2pz  -0.37815     3 1s   -0.40138     4 1s   -0.39313     4 1s   -0.29183     5 1s   -0.39313
                                    5 1s   -0.29183     6 1s   -0.40138
   19.1    -0.00000     0.87277     1 2px  -0.80296     1 2px   1.10424     2 2px   0.80296     2 2px  -1.10424
   20.1    -0.00000     0.93687     1 1s   -0.71282     1 2pz   0.60345     1 2pz  -0.53698     2 1s    0.71282     2 2pz   0.60345
                                    2 2pz  -0.53698     3 1s    0.36238     4 1s    0.39991     5 1s   -0.39991     6 1s   -0.36238
   21.1    -0.00000     1.10155     1 2py  -0.67349     1 2py   1.09067     2 2py  -0.67349     2 2py   1.09067     3 1s    0.33610
                                    3 1s   -1.02162     4 1s   -0.43180     4 1s    1.10895     5 1s    0.43180     5 1s   -1.10895
                                    6 1s   -0.33610     6 1s    1.02162
   22.1    -0.00000     1.14658     1 2py   0.91923     1 2py  -2.93084     2 2py  -0.91923     2 2py   2.93084     3 1s    1.59741
                                    4 1s   -1.42294     5 1s   -1.42294     6 1s    1.59741
   23.1    -0.00000     1.21247     1 1s    1.03123     1 1s   -1.72208     1 2pz   0.36888     1 2pz  -0.50026     2 1s    1.03123
                                    2 1s   -1.72208     2 2pz  -0.36888     2 2pz   0.50026     3 1s   -0.43463     3 1s    0.84294
                                    4 1s   -0.44641     4 1s    0.88874     5 1s   -0.44641     5 1s    0.88874     6 1s   -0.43463
                                    6 1s    0.84294
   24.1    -0.00000     1.21978     1 1s   -0.45987     1 1s    0.27775     1 2pz  -0.64202     1 2pz   1.31445     2 1s    0.45987
                                    2 1s   -0.27775     2 2pz  -0.64202     2 2pz   1.31445     3 1s    0.48881     3 1s   -1.00489
                                    4 1s    0.45357     4 1s   -0.90362     5 1s   -0.45357     5 1s    0.90362     6 1s   -0.48881
                                    6 1s    1.00489
   25.1    -0.00000     1.31868     1 1s   -1.61410     1 1s    5.41867     1 2pz  -1.86642     2 1s    1.61410     2 1s   -5.41867
                                    2 2pz  -1.86642     3 1s   -0.30148     4 1s   -0.44737     5 1s    0.44737     6 1s    0.30148
   26.1    -0.00000     1.46184     1 2py   2.50484     2 2py  -2.50484     3 1s   -0.71509     3 1s   -0.72909     4 1s    0.67292
                                    4 1s    0.58045     5 1s    0.67292     5 1s    0.58045     6 1s   -0.71509     6 1s   -0.72909
   27.1    -0.00000     1.71327     1 3d1+  0.61866     2 3d1+ -0.61866
   28.1    -0.00000     1.80801     1 3d2-  0.68117     2 3d2-  0.68117
   29.1    -0.00000     2.10476     1 3d2-  0.73602     2 3d2- -0.73602
   30.1    -0.00000     2.19517     1 1s   -0.59462     1 3d2+  0.71179     2 1s   -0.59462     2 3d2+  0.71179     3 1s    0.32455
                                    4 1s    0.42401     5 1s    0.42401     6 1s    0.32455
   31.1    -0.00000     2.31133     1 2py   0.28252     1 3d1-  0.68562     2 2py   0.28252     2 3d1- -0.68562     3 1s   -0.56280
                                    4 1s    0.47240     5 1s   -0.47240     6 1s    0.56280
   32.1    -0.00000     2.38935     1 1s   -0.50351     1 2pz   0.28678     1 2pz  -0.44801     1 3d0   0.68884     2 1s   -0.50351
                                    2 2pz  -0.28678     2 2pz   0.44801     2 3d0   0.68884
   33.1    -0.00000     2.60795     1 1s    0.29164     1 1s   -1.37947     1 2pz   0.29155     1 3d2+  0.79605     2 1s   -0.29164
                                    2 1s    1.37947     2 2pz   0.29155     2 3d2+ -0.79605     3 1s    0.38252     4 1s    0.50779
                                    5 1s   -0.50779     6 1s   -0.38252
   34.1    -0.00000     2.68524     1 2px  -0.26524     1 3d1+  0.90286     2 2px   0.26524     2 3d1+  0.90286
   35.1    -0.00000     3.04614     1 1s    0.30957     1 1s    2.04066     1 2pz  -0.78686     1 2pz  -1.18808     1 3d0   1.11275
                                    2 1s   -0.30957     2 1s   -2.04066     2 2pz  -0.78686     2 2pz  -1.18808     2 3d0  -1.11275
   36.1    -0.00000     3.04892     1 2py   0.54790     1 3d1-  0.96986     2 2py  -0.54790     2 3d1-  0.96986     3 1s   -0.50984
                                    4 1s    0.44504     5 1s    0.44504     6 1s   -0.50984


 Natural orbital dump (state averaged) at molpro section  2140.2    (Orbital set 2)



 **********************************************************************************************************************************
 DATASETS  * FILE   NREC   LENGTH (MB)   RECORD NAMES
              1      20       31.45       500      610      700      900      950      970     1000      129      960     1100   
                                          VAR    BASINP    GEOM    SYMINP    ZMAT    AOBASIS   BASIS     P2S    ABASIS      S 
                                         1400     1410     1200     1210     1080     1600     1650     1300     1700     1380   
                                           T        V       H0       H01     AOSYM     SMH    MOLCAS    ERIS     OPER     JKOP   

              2       5        5.42       700     1000      520     2100     2140   
                                         GEOM     BASIS   MCVARS     RHF     MCSCF   

 PROGRAMS   *        TOTAL     MULTI    HF-SCF       INT
 CPU TIMES  *         0.65      0.17      0.10      0.27
 REAL TIME  *         0.92 SEC
 DISK USED  *        38.63 MB
 **********************************************************************************************************************************
 Molecular orbitals read from record     2140.2  Type=MCSCF/NATURAL (state averaged)
 Occupation numbers read from record     2140.2  Type=MCSCF/NATURAL (state averaged)
 Orbital energies read from record       2140.2  Type=MCSCF/NATURAL (state averaged)
 Redundancy group numbers read from rec  2140.2  Type=MCSCF/NATURAL (state averaged)

 MULTI/6-31G* energy=    -77.485273928874

           MULTI          HF-SCF
    -77.48527393    -78.02973456
 **********************************************************************************************************************************
 Molpro calculation terminated
