
 Primary working directories    : /scratch.local/johan406.molpro_temp/molpro.5IwKsXcjGq
 Secondary working directories  : /scratch.local/johan406.molpro_temp/molpro.5IwKsXcjGq
 Wavefunction directory         : /home/goodpast/johan406/wfu/
 Main file repository           : /scratch.local/johan406.molpro_temp/molpro.5IwKsXcjGq/

 id        : roweumn

 Nodes     nprocs
 cn0117       1

 Using customized tuning parameters: mindgm=1; mindgv=20; mindgc=4; mindgr=1; noblas=0; minvec=7
 default implementation of scratch files=df  


 Variables initialized (934), CPU time= 0.00 sec
                                                                                 !leave this line blank
 
 gprint, orbitals=30
 memory, 125., m
 symmetry, nosym
 nelect=16
 basis=6-31g*
 
 geometry={
 C 0.0 0.018 0.6691
 C 0.0 -0.018 -0.6691
 H 0.0 0.8981 1.2912
 H -0.0 -0.9317 1.1784
 H 0.0 0.9317 -1.1784
 H 0.0 -0.8981 -1.2912
 }
 
 hf
 {multi,
 closed 7
 occ 9
 wf,spin=0;STATE,3
 }
 
 Commands  initialized (763), CPU time= 0.01 sec, 617 directives.
 Default parameters read. Elapsed time= 0.08 sec

 Checking input...
 Passed
1


                                         ***  PROGRAM SYSTEM MOLPRO  ***
                                       Copyright, TTI GmbH Stuttgart, 2015
                                    Version 2019.2 linked Oct 25 2019 22:50:27


 **********************************************************************************************************************************
 LABEL *                                                                                 
  64 bit serial version                                                                  DATE: 26-Jan-23          TIME: 20:04:32  
 **********************************************************************************************************************************

 SHA1:             8dbd9ae1082e4ce945b0f27595c9eb2d4aa09004
 **********************************************************************************************************************************


 Variable memory set to  125000000 words,  buffer space 

 SETTING NELECT         =        16.00000000                                  
 SETTING BASIS          =    6-31G*
 ZSYMEL=NOSYM


Geometry recognized as XYZ



 Recomputing integrals since basis changed


 Using spherical harmonics

 Library entry C      S 6-31G                selected for orbital group  1
 Library entry C      P 6-31G                selected for orbital group  1
 Library entry C      D 6-31G*               selected for orbital group  1
 Library entry H      S 6-31G                selected for orbital group  2


 PROGRAM * SEWARD (Integral evaluation for generally contracted gaussian basis sets)     Author: Roland Lindh, 1990

 Geometry written to block  1 of record 700


 Point group  C1  



 ATOMIC COORDINATES

 NR  ATOM    CHARGE       X              Y              Z

   1  C       6.00    0.000000000    0.034015070    1.264415750
   2  C       6.00    0.000000000   -0.034015070   -1.264415750
   3  H       1.00    0.000000000    1.697163032    2.440014372
   4  H       1.00    0.000000000   -1.760657830    2.226853265
   5  H       1.00    0.000000000    1.760657830   -2.226853265
   6  H       1.00    0.000000000   -1.697163032   -2.440014372

 Bond lengths in Bohr (Angstrom)

 1-2  2.529746401  1-3  2.036686835  1-4  2.036452010  2-5  2.036452010  2-6  2.036686835
     ( 1.338684145)     ( 1.077768259)     ( 1.077643995)     ( 1.077643995)     ( 1.077768259)

 Bond angles

  1-2-5  116.66254121   1-2-6  126.79562568   2-1-3  126.79562568   2-1-4  116.66254121

  3-1-4  116.54183311   5-2-6  116.54183311

 NUCLEAR CHARGE:                   16
 NUMBER OF PRIMITIVE AOS:          72
 NUMBER OF SYMMETRY AOS:           70
 NUMBER OF CONTRACTIONS:           36   (   36A   )
 NUMBER OF CORE ORBITALS:           2   (    2A   )
 NUMBER OF VALENCE ORBITALS:       12   (   12A   )


 NUCLEAR REPULSION ENERGY   33.38103730

 EXTRA SYMMETRY OF AOS IN SYMMETRY 1:   1 1 1 2 1 1 2 1 1 1   2 2 1 1 1 1 1 2 1 1   2 1 1 1 2 2 1 1 1 1   1 1 1 1 1 1

 Eigenvalues of metric

         1 0.819E-02 0.177E-01 0.381E-01 0.461E-01 0.711E-01 0.193E+00 0.211E+00 0.226E+00


 Contracted 2-electron integrals neglected if value below      1.0D-11
 AO integral compression algorithm  1   Integral accuracy      1.0D-11

     1.049 MB (compressed) written to integral file ( 36.6%)


 NUMBER OF SORTED TWO-ELECTRON INTEGRALS:     222111.     BUFFER LENGTH:  32768
 NUMBER OF SEGMENTS:   1  SEGMENT LENGTH:     222111      RECORD LENGTH: 524288

 Memory used in sort:       0.78 MW

 SORT1 READ      284735. AND WROTE      118725. INTEGRALS IN      1 RECORDS. CPU TIME:     0.01 SEC, REAL TIME:     0.00 SEC
 SORT2 READ      118725. AND WROTE      222111. INTEGRALS IN      4 RECORDS. CPU TIME:     0.02 SEC, REAL TIME:     0.03 SEC

 FILE SIZES:   FILE 1:    31.1 MBYTE,  FILE 4:     4.2 MBYTE,   TOTAL:     35.4 MBYTE

 OPERATOR DM      FOR CENTER  0  COORDINATES:    0.000000    0.000000    0.000000


 **********************************************************************************************************************************
 DATASETS  * FILE   NREC   LENGTH (MB)   RECORD NAMES
              1      19       30.72       500      610      700      900      950      970     1000      129      960     1100   
                                          VAR    BASINP    GEOM    SYMINP    ZMAT    AOBASIS   BASIS     P2S    ABASIS      S 
                                         1400     1410     1200     1210     1080     1600     1650     1300     1700   
                                           T        V       H0       H01     AOSYM     SMH    MOLCAS    ERIS     OPER   

 PROGRAMS   *        TOTAL       INT
 CPU TIMES  *         0.35      0.25
 REAL TIME  *         0.57 SEC
 DISK USED  *        35.71 MB
 **********************************************************************************************************************************


 PROGRAM * RHF-SCF (CLOSED SHELL)       Authors: W. Meyer, H.-J. Werner


 NUMBER OF ELECTRONS:       8+    8-    SPACE SYMMETRY=1    SPIN SYMMETRY: Singlet 
 CONVERGENCE THRESHOLDS:    1.00E-05 (Density)    1.00E-07 (Energy)
 MAX. NUMBER OF ITERATIONS:       60
 INTERPOLATION TYPE:            DIIS
 INTERPOLATION STEPS:              2 (START)      1 (STEP)
 LEVEL SHIFTS:                  0.00 (CLOSED)  0.00 (OPEN) 



 Orbital guess generated from atomic densities. Full valence occupancy:    8

 Molecular orbital dump at record        2100.2

 Initial occupancy:   8

 ITERATION    DDIFF          GRAD             ENERGY        2-EL.EN.            DIPOLE MOMENTS         DIIS   ORB.
    1      0.000D+00      0.000D+00       -78.00398622    118.669882   -0.00000   -0.00000   -0.00000    0    start
    2      0.000D+00      0.856D-02       -78.02579787    116.836505   -0.00000   -0.00000   -0.00000    1    diag
    3      0.821D-02      0.291D-02       -78.02791668    117.466249   -0.00000   -0.00000   -0.00000    2    diag
    4      0.263D-02      0.712D-03       -78.02812641    117.367312   -0.00000    0.00000   -0.00000    3    diag
    5      0.107D-02      0.690D-04       -78.02812861    117.370230   -0.00000   -0.00000   -0.00000    4    diag
    6      0.149D-03      0.833D-05       -78.02812864    117.369784   -0.00000    0.00000    0.00000    5    diag
    7      0.161D-04      0.126D-05       -78.02812864    117.369792   -0.00000    0.00000   -0.00000    6    diag
    8      0.196D-05      0.156D-06       -78.02812864    117.369786   -0.00000    0.00000    0.00000    0    orth

 Final occupancy:   8

 !RHF STATE  1.1 Energy               -78.028128643860
 Nuclear energy                        33.38103730
 One-electron energy                 -170.09405882
 Two-electron energy                   58.68489287
 Virial quotient                       -1.00023598
 !RHF STATE  1.1 Dipole moment         -0.00000000     0.00000000     0.00000000
 Dipole moment /Debye                  -0.00000000     0.00000000     0.00000000

 ELECTRON ORBITALS
 =================

  Orbital  Occupation    Energy     Coefficients
    1.1     2.00000   -11.22582     1 1s    0.70419     2 1s    0.70419
    2.1     2.00000   -11.22423     1 1s    0.70454     2 1s   -0.70454
    3.1     2.00000    -1.02699     1 1s    0.30197     2 1s    0.30197
    4.1     2.00000    -0.79143     1 1s    0.24241
    5.1     2.00000    -0.63803     1 2py   0.32147     2 2py   0.32147
    6.1     2.00000    -0.58545     1 2pz   0.39857     2 2pz  -0.39857
    7.1     2.00000    -0.50081     1 2py   0.29970     2 2py  -0.29970
    8.1     2.00000    -0.36938     1 2px   0.37330     1 2px   0.30796     2 2px   0.37330     2 2px   0.30796
    9.1     0.00000     0.17845     1 2px   0.34221     1 2px   0.73351     2 2px  -0.34221     2 2px  -0.73351
   10.1     0.00000     0.26610     1 1s   -1.48873     1 2pz  -0.64261     2 1s   -1.48873     2 2pz   0.64261     3 1s    1.00833
                                    4 1s    1.06521     5 1s    1.06521     6 1s    1.00833
   11.1     0.00000     0.29088     1 1s   -0.61698     1 2py  -0.73372     2 1s    0.61698     2 2py  -0.73372     3 1s    1.39391
                                    4 1s   -0.63400     5 1s    0.63400     6 1s   -1.39391
   12.1     0.00000     0.31168     1 1s   -1.83046     1 2py   0.35711     2 1s    1.83046     2 2py   0.35711     3 1s    0.56957
                                    4 1s    1.43918     5 1s   -1.43918     6 1s   -0.56957
   13.1     0.00000     0.38849     1 2py  -1.84903     2 2py   1.84903     3 1s    1.68943     4 1s   -1.52182     5 1s   -1.52182
                                    6 1s    1.68943
   14.1     0.00000     0.49021     1 1s   -3.00452     1 2pz   2.96596     2 1s    3.00452     2 2pz   2.96596     3 1s   -0.71101
                                    4 1s   -0.47715     5 1s    0.47715     6 1s    0.71101
   15.1     0.00000     0.67092     1 2pz  -0.55045     1 2pz   1.03164     2 2pz   0.55045     2 2pz  -1.03164
   16.1     0.00000     0.76203     1 2py  -0.39204     1 2py   0.76191     1 2pz   0.36421     2 2py  -0.39204     2 2py   0.76191
                                    2 2pz   0.36421     3 1s   -0.44497     4 1s    0.31892     5 1s   -0.31892     6 1s    0.44497
   17.1     0.00000     0.77707     1 2px  -0.74064     1 2px   0.63957     2 2px  -0.74064     2 2px   0.63957
   18.1     0.00000     0.86214     1 1s   -0.88593     1 1s    1.44654     1 2pz   0.32218     2 1s   -0.88593     2 1s    1.44654
                                    2 2pz  -0.32218     3 1s   -0.40471     4 1s   -0.38708     4 1s   -0.30009     5 1s   -0.38708
                                    5 1s   -0.30009     6 1s   -0.40471
   19.1     0.00000     0.89021     1 2px  -0.81849     1 2px   1.07372     2 2px   0.81849     2 2px  -1.07372
   20.1     0.00000     0.95804     1 1s   -0.87004     1 2pz   0.59265     1 2py   0.31192     1 2pz  -0.42983     2 1s    0.87004
                                    2 2pz   0.59265     2 2py   0.31192     2 2pz  -0.42983     3 1s    0.34838     4 1s    0.40357
                                    4 1s    0.26171     5 1s   -0.40357     5 1s   -0.26171     6 1s   -0.34838
   21.1     0.00000     1.11761     1 1s    0.29684     1 2py  -0.67689     1 2py   1.06711     2 1s   -0.29684     2 2py  -0.67689
                                    2 2py   1.06711     3 1s    0.30705     3 1s   -0.97476     4 1s   -0.46388     4 1s    1.11188
                                    5 1s    0.46388     5 1s   -1.11188     6 1s   -0.30705     6 1s    0.97476
   22.1     0.00000     1.15637     1 1s   -0.33766     1 2py   0.91649     1 2py  -2.89420     1 2pz  -0.28234     2 1s   -0.33766
                                    2 2py  -0.91649     2 2py   2.89420     2 2pz   0.28234     3 1s    1.63785     4 1s   -1.33643
                                    5 1s   -1.33643     6 1s    1.63785
   23.1     0.00000     1.21436     1 1s    1.03470     1 1s   -1.71837     1 2pz   0.36258     1 2pz  -0.48738     2 1s    1.03470
                                    2 1s   -1.71837     2 2pz  -0.36258     2 2pz   0.48738     3 1s   -0.42694     3 1s    0.80036
                                    4 1s   -0.45214     4 1s    0.92481     5 1s   -0.45214     5 1s    0.92481     6 1s   -0.42694
                                    6 1s    0.80036
   24.1     0.00000     1.22111     1 1s   -0.52644     1 1s    0.50142     1 2pz  -0.63006     1 2pz   1.23310     2 1s    0.52644
                                    2 1s   -0.50142     2 2pz  -0.63006     2 2pz   1.23310     3 1s    0.49418     3 1s   -1.04278
                                    4 1s    0.43821     4 1s   -0.89093     5 1s   -0.43821     5 1s    0.89093     6 1s   -0.49418
                                    6 1s    1.04278
   25.1     0.00000     1.33823     1 1s   -1.59027     1 1s    5.39430     1 2pz   0.26326     1 2pz  -1.93258     2 1s    1.59027
                                    2 1s   -5.39430     2 2pz   0.26326     2 2pz  -1.93258     4 1s   -0.44787     5 1s    0.44787
   26.1     0.00000     1.46472     1 2py   2.44374     1 2pz   0.29475     2 2py  -2.44374     2 2pz  -0.29475     3 1s   -0.72414
                                    3 1s   -0.74300     4 1s    0.65950     4 1s    0.51459     5 1s    0.65950     5 1s    0.51459
                                    6 1s   -0.72414     6 1s   -0.74300
   27.1     0.00000     1.73867     1 3d1+  0.61876     2 3d1+ -0.61876
   28.1     0.00000     1.82207     1 3d2-  0.68111     2 3d2-  0.68111
   29.1     0.00000     2.12796     1 3d2-  0.73576     2 3d2- -0.73576
   30.1     0.00000     2.21377     1 1s   -0.58453     1 2py   0.32848     1 3d2+  0.71050     2 1s   -0.58453     2 2py  -0.32848
                                    2 3d2+  0.71050     3 1s    0.29134     4 1s    0.44620     5 1s    0.44620     6 1s    0.29134
   31.1     0.00000     2.31897     1 1s   -0.30834     1 2py   0.27218     1 2pz   0.25806     1 3d1-  0.68092     2 1s    0.30834
                                    2 2py   0.27218     2 2pz   0.25806     2 3d1- -0.68092     3 1s   -0.57449     4 1s    0.43981
                                    5 1s   -0.43981     6 1s    0.57449
   32.1     0.00000     2.41185     1 1s   -0.50152     1 2pz   0.27948     1 2pz  -0.44190     1 3d0   0.68859     2 1s   -0.50152
                                    2 2pz  -0.27948     2 2pz   0.44190     2 3d0   0.68859
   33.1     0.00000     2.62786     1 1s    0.29096     1 1s   -1.40665     1 2pz   0.31948     1 3d2+  0.79357     2 1s   -0.29096
                                    2 1s    1.40665     2 2pz   0.31948     2 3d2+ -0.79357     3 1s    0.34334     4 1s    0.53189
                                    5 1s   -0.53189     6 1s   -0.34334
   34.1     0.00000     2.70717     1 2px  -0.26446     1 3d1+  0.90214     2 2px   0.26446     2 3d1+  0.90214
   35.1     0.00000     3.05699     1 2py   0.51765     1 3d1-  0.96872     2 2py  -0.51765     2 3d1-  0.96872     3 1s   -0.51996
                                    4 1s    0.41776     5 1s    0.41776     6 1s   -0.51996
   36.1     0.00000     3.06697     1 1s    0.31755     1 1s    2.00253     1 2pz  -0.79116     1 2pz  -1.16919     1 3d0   1.10992
                                    2 1s   -0.31755     2 1s   -2.00253     2 2pz  -0.79116     2 2pz  -1.16919     2 3d0  -1.10992


 HOMO      8.1    -0.369380 =     -10.0513eV
 LUMO      9.1     0.178448 =       4.8558eV
 LUMO-HOMO         0.547828 =      14.9071eV


 **********************************************************************************************************************************
 DATASETS  * FILE   NREC   LENGTH (MB)   RECORD NAMES
              1      19       30.72       500      610      700      900      950      970     1000      129      960     1100   
                                          VAR    BASINP    GEOM    SYMINP    ZMAT    AOBASIS   BASIS     P2S    ABASIS      S 
                                         1400     1410     1200     1210     1080     1600     1650     1300     1700   
                                           T        V       H0       H01     AOSYM     SMH    MOLCAS    ERIS     OPER   

              2       4        2.86       700     1000      520     2100   
                                         GEOM     BASIS   MCVARS     RHF  

 PROGRAMS   *        TOTAL    HF-SCF       INT
 CPU TIMES  *         0.46      0.11      0.25
 REAL TIME  *         0.72 SEC
 DISK USED  *        35.71 MB
 **********************************************************************************************************************************


 PROGRAM * MULTI (Direct Multiconfiguration SCF)       Authors: P.J. Knowles, H.-J. Werner (1984)


 Number of closed-shell orbitals:   7 (   7 )
 Number of active  orbitals:        2 (   2 )
 Number of external orbitals:      27 (  27 )

 State symmetry 1

 Number of electrons:     2    Spin symmetry=Singlet   Space symmetry=1
 Number of states:        3
 Number of CSFs:          3   (4 determinants, 4 intermediate states)

 Molecular orbitals read from record     2100.2  Type=RHF/CANONICAL (state 1.1)

 EXTRA SYMMETRY OF MOS IN SYMMETRY 1:   1 1 1 1 1 1 1 2 2 1   1 1 1 1 1 1 2 1 2 1   1 1 1 1 1 1 2 2 2 1   1 1 1 2 1 1

 Wavefunction dump at record             2140.2

 Convergence thresholds  0.10E-01 (gradient)  0.10E-05 (energy)  0.10E-02 (step length)

 Weight factors for state symmetry  1:    0.33333   0.33333   0.33333

 Number of orbital rotations:      257   (    14 Core/Active    189 Core/Virtual   0 Active/Active     54 Active/Virtual)
 Total number of variables:        269

 Micro-Iterations solved by the two-step solver

 ITER. MIC  NCI  NEG     ENERGY(VAR)     ENERGY(PROJ)   ENERGY CHANGE     GRAD(0)  GRAD(ORB)   GRAD(CI)     STEP       TIME

   1    3    3    0     -77.72696191     -77.73320452   -0.00624261    0.13254793 0.00000154 0.00000000  0.63D-01      0.07
   2    2    3    0     -77.73310611     -77.73310988   -0.00000377    0.00304208 0.00000186 0.00000000  0.16D-02      0.11
   3    2    3    0     -77.73310988     -77.73310988   -0.00000000    0.00000216 0.00000000 0.00000000  0.13D-05      0.14

 ** WVFN ****  CONVERGENCE REACHED, FINAL GRADIENT:  0.13D-11



 Results for state 1.1
 =====================

 !MCSCF STATE  1.1 Energy             -78.045815603705
 Nuclear energy                        33.38103730
 Kinetic energy                        78.07810650
 One electron energy                 -170.22599108
 Two electron energy                   58.79913817
 Virial ratio                           1.99958643

 !MCSCF STATE  1.1 Dipole moment        0.00000000     0.00000000    -0.00000000
 Dipole moment /Debye                   0.00000000     0.00000000    -0.00000000

 Results for state 2.1
 =====================

 !MCSCF STATE  2.1 Energy             -77.669826917192
 Nuclear energy                        33.38103730
 Kinetic energy                        78.25861347
 One electron energy                 -169.65314631
 Two electron energy                   58.60228210
 Virial ratio                           1.99247640

 !MCSCF STATE  2.1 Dipole moment        0.00000000     0.00000000    -0.00000000
 Dipole moment /Debye                   0.00000000     0.00000000    -0.00000000

 Results for state 3.1
 =====================

 !MCSCF STATE  3.1 Energy             -77.483687115441
 Nuclear energy                        33.38103730
 Kinetic energy                        78.43912044
 One electron energy                 -169.08030155
 Two electron energy                   58.21557713
 Virial ratio                           1.98781943

 !MCSCF STATE  3.1 Dipole moment        0.00000000     0.00000000    -0.00000000
 Dipole moment /Debye                   0.00000000     0.00000000    -0.00000000

 State-averaged charge density matrix saved on record  2140.2 (density set 1)

 !MCSCF trans         <2.1|DMY|1.1>    -0.040295727847 au =    -0.102414815982 Debye
 !MCSCF trans         <3.1|DMY|2.1>    -0.060662774386 au =    -0.154179294123 Debye

 !MCSCF trans         <2.1|DMZ|1.1>    -1.509993123216 au =    -3.837768322103 Debye
 !MCSCF trans         <3.1|DMZ|2.1>    -2.273203067710 au =    -5.777527452830 Debye


 NATURAL ORBITALS (state averaged)
 =================================

  Orbital  Occupation    Energy     Coefficients
    1.1     2.00000   -11.24150     1 1s    0.70420     2 1s    0.70420
    2.1     2.00000   -11.24018     1 1s    0.70450     2 1s   -0.70450
    3.1     2.00000    -1.04177     1 1s    0.30998     2 1s    0.30998
    4.1     2.00000    -0.79921     1 1s    0.28788     2 1s   -0.28788
    5.1     2.00000    -0.65091     1 2py   0.32712     2 2py   0.32712
    6.1     2.00000    -0.59990     1 2pz   0.40223     2 2pz  -0.40223
    7.1     2.00000    -0.50804     1 2py   0.30753     2 2py  -0.30753
    8.1     1.00000     0.03358     1 2px   0.38017     1 2px   0.68653     2 2px  -0.38017     2 2px  -0.68653
    9.1     1.00000    -0.22551     1 2px   0.35790     1 2px   0.31938     2 2px   0.35790     2 2px   0.31938
   10.1    -0.00000     0.26331     1 1s   -1.48339     1 2pz  -0.64746     2 1s   -1.48339     2 2pz   0.64746     3 1s    0.99332
                                    4 1s    1.07764     5 1s    1.07764     6 1s    0.99332
   11.1    -0.00000     0.28316     1 1s   -0.47884     1 2py  -0.75082     2 1s    0.47884     2 2py  -0.75082     3 1s    1.33167
                                    4 1s   -0.74274     5 1s    0.74274     6 1s   -1.33167
   12.1    -0.00000     0.30779     1 1s   -1.89690     1 2py   0.29334     2 1s    1.89690     2 2py   0.29334     3 1s    0.67711
                                    4 1s    1.37622     5 1s   -1.37622     6 1s   -0.67711
   13.1    -0.00000     0.38425     1 2py  -1.83363     2 2py   1.83363     3 1s    1.69190     4 1s   -1.50430     5 1s   -1.50430
                                    6 1s    1.69190
   14.1    -0.00000     0.48731     1 1s   -2.97937     1 2pz   2.94634     2 1s    2.97937     2 2pz   2.94634     3 1s   -0.72417
                                    4 1s   -0.48328     5 1s    0.48328     6 1s    0.72417
   15.1    -0.00000     0.65967     1 1s    0.25352     1 2pz  -0.54261     1 2pz   1.00953     2 1s    0.25352     2 2pz   0.54261
                                    2 2pz  -1.00953
   16.1    -0.00000     0.75195     1 2py  -0.40368     1 2py   0.77112     1 2pz   0.38552     2 2py  -0.40368     2 2py   0.77112
                                    2 2pz   0.38552     3 1s   -0.43914     4 1s    0.31528     5 1s   -0.31528     6 1s    0.43914
   17.1    -0.00000     0.77106     1 2px  -0.74727     1 2px   0.63429     2 2px  -0.74727     2 2px   0.63429
   18.1    -0.00000     0.85921     1 1s   -0.87950     1 1s    1.46916     1 2pz   0.36693     2 1s   -0.87950     2 1s    1.46916
                                    2 2pz  -0.36693     3 1s   -0.40413     4 1s   -0.39084     4 1s   -0.31562     5 1s   -0.39084
                                    5 1s   -0.31562     6 1s   -0.40413
   19.1    -0.00000     0.87260     1 2px  -0.80290     1 2px   1.10417     2 2px   0.80290     2 2px  -1.10417
   20.1    -0.00000     0.93902     1 1s   -0.71702     1 2pz   0.59784     1 2py   0.30096     1 2pz  -0.51316     2 1s    0.71702
                                    2 2pz   0.59784     2 2py   0.30096     2 2pz  -0.51316     3 1s    0.34810     4 1s    0.40471
                                    4 1s    0.25047     5 1s   -0.40471     5 1s   -0.25047     6 1s   -0.34810
   21.1    -0.00000     1.10199     1 1s    0.27425     1 2py  -0.66615     1 2py   1.07080     2 1s   -0.27425     2 2py  -0.66615
                                    2 2py   1.07080     3 1s    0.30987     3 1s   -0.98331     4 1s   -0.46222     4 1s    1.12342
                                    5 1s    0.46222     5 1s   -1.12342     6 1s   -0.30987     6 1s    0.98331
   22.1    -0.00000     1.14395     1 1s   -0.30924     1 2py   0.91433     1 2py  -2.90008     1 2pz  -0.27433     2 1s   -0.30924
                                    2 2py  -0.91433     2 2py   2.90008     2 2pz   0.27433     3 1s    1.63045     4 1s   -1.36090
                                    5 1s   -1.36090     6 1s    1.63045
   23.1    -0.00000     1.21102     1 1s    1.03112     1 1s   -1.72040     1 2pz   0.36767     1 2pz  -0.49813     2 1s    1.03112
                                    2 1s   -1.72040     2 2pz  -0.36767     2 2pz   0.49813     3 1s   -0.43127     3 1s    0.83183
                                    4 1s   -0.44881     4 1s    0.89792     5 1s   -0.44881     5 1s    0.89792     6 1s   -0.43127
                                    6 1s    0.83183
   24.1    -0.00000     1.21872     1 1s   -0.46186     1 1s    0.28705     1 2pz  -0.64350     1 2pz   1.31176     2 1s    0.46186
                                    2 1s   -0.28705     2 2pz  -0.64350     2 2pz   1.31176     3 1s    0.49737     3 1s   -1.03305
                                    4 1s    0.44080     4 1s   -0.87247     5 1s   -0.44080     5 1s    0.87247     6 1s   -0.49737
                                    6 1s    1.03305
   25.1    -0.00000     1.31847     1 1s   -1.61226     1 1s    5.42351     1 2pz  -1.88007     2 1s    1.61226     2 1s   -5.42351
                                    2 2pz  -1.88007     3 1s   -0.25628     4 1s   -0.48566     5 1s    0.48566     6 1s    0.25628
   26.1    -0.00000     1.45623     1 2py   2.44769     1 2pz   0.29574     2 2py  -2.44769     2 2pz  -0.29574     3 1s   -0.72316
                                    3 1s   -0.74534     4 1s    0.65831     4 1s    0.51502     5 1s    0.65831     5 1s    0.51502
                                    6 1s   -0.72316     6 1s   -0.74534
   27.1    -0.00000     1.71298     1 3d1+  0.61849     2 3d1+ -0.61849
   28.1    -0.00000     1.80824     1 3d2-  0.68111     2 3d2-  0.68111
   29.1    -0.00000     2.10489     1 3d2-  0.73576     2 3d2- -0.73576
   30.1    -0.00000     2.19826     1 1s   -0.58053     1 2py   0.32635     1 3d2+  0.71000     2 1s   -0.58053     2 2py  -0.32635
                                    2 3d2+  0.71000     3 1s    0.29365     4 1s    0.44754     5 1s    0.44754     6 1s    0.29365
   31.1    -0.00000     2.30260     1 1s   -0.30861     1 2py   0.27898     1 2pz   0.25982     1 3d1-  0.67885     2 1s    0.30861
                                    2 2py   0.27898     2 2pz   0.25982     2 3d1- -0.67885     3 1s   -0.57936     4 1s    0.44117
                                    5 1s   -0.44117     6 1s    0.57936
   32.1    -0.00000     2.39180     1 1s   -0.49950     1 2pz   0.28526     1 2pz  -0.44463     1 3d0   0.68830     2 1s   -0.49950
                                    2 2pz  -0.28526     2 2pz   0.44463     2 3d0   0.68830
   33.1    -0.00000     2.60832     1 1s    0.29186     1 1s   -1.41463     1 2pz   0.31967     1 3d2+  0.79258     2 1s   -0.29186
                                    2 1s    1.41463     2 2pz   0.31967     2 3d2+ -0.79258     3 1s    0.34440     4 1s    0.53650
                                    5 1s   -0.53650     6 1s   -0.34440
   34.1    -0.00000     2.68465     1 2px  -0.26522     1 3d1+  0.90253     2 2px   0.26522     2 3d1+  0.90253
   35.1    -0.00000     3.04409     1 2py   0.51772     1 3d1-  0.96834     2 2py  -0.51772     2 3d1-  0.96834     3 1s   -0.52233
                                    4 1s    0.42001     5 1s    0.42001     6 1s   -0.52233
   36.1    -0.00000     3.04901     1 1s    0.31060     1 1s    2.02743     1 2pz  -0.78365     1 2pz  -1.18237     1 3d0   1.11152
                                    2 1s   -0.31060     2 1s   -2.02743     2 2pz  -0.78365     2 2pz  -1.18237     2 3d0  -1.11152


 Natural orbital dump (state averaged) at molpro section  2140.2    (Orbital set 2)



 **********************************************************************************************************************************
 DATASETS  * FILE   NREC   LENGTH (MB)   RECORD NAMES
              1      20       31.45       500      610      700      900      950      970     1000      129      960     1100   
                                          VAR    BASINP    GEOM    SYMINP    ZMAT    AOBASIS   BASIS     P2S    ABASIS      S 
                                         1400     1410     1200     1210     1080     1600     1650     1300     1700     1380   
                                           T        V       H0       H01     AOSYM     SMH    MOLCAS    ERIS     OPER     JKOP   

              2       5        5.42       700     1000      520     2100     2140   
                                         GEOM     BASIS   MCVARS     RHF     MCSCF   

 PROGRAMS   *        TOTAL     MULTI    HF-SCF       INT
 CPU TIMES  *         0.64      0.18      0.11      0.25
 REAL TIME  *         0.93 SEC
 DISK USED  *        38.63 MB
 **********************************************************************************************************************************
 Molecular orbitals read from record     2140.2  Type=MCSCF/NATURAL (state averaged)
 Occupation numbers read from record     2140.2  Type=MCSCF/NATURAL (state averaged)
 Orbital energies read from record       2140.2  Type=MCSCF/NATURAL (state averaged)
 Redundancy group numbers read from rec  2140.2  Type=MCSCF/NATURAL (state averaged)

 MULTI/6-31G* energy=    -77.483687115441

           MULTI          HF-SCF
    -77.48368712    -78.02812864
 **********************************************************************************************************************************
 Molpro calculation terminated
