
 Primary working directories    : /scratch.local/johan406.molpro_temp/molpro.TJOw52HWY9
 Secondary working directories  : /scratch.local/johan406.molpro_temp/molpro.TJOw52HWY9
 Wavefunction directory         : /home/goodpast/johan406/wfu/
 Main file repository           : /scratch.local/johan406.molpro_temp/molpro.TJOw52HWY9/

 id        : roweumn

 Nodes     nprocs
 cn0117       1

 Using customized tuning parameters: mindgm=1; mindgv=20; mindgc=4; mindgr=1; noblas=0; minvec=7
 default implementation of scratch files=df  


 Variables initialized (934), CPU time= 0.01 sec
                                                                                 !leave this line blank
 
 gprint, orbitals=30
 memory, 125., m
 symmetry, nosym
 nelect=16
 basis=6-31g*
 
 geometry={
 C 0.0 0.0294 0.6691
 C 0.0 -0.0294 -0.6691
 H 0.0 0.8875 1.3269
 H -0.0 -0.9423 1.1427
 H 0.0 0.9423 -1.1427
 H 0.0 -0.8875 -1.3269
 }
 
 hf
 {multi,
 closed 7
 occ 9
 wf,spin=0;STATE,3
 }
 
 Commands  initialized (763), CPU time= 0.01 sec, 617 directives.
 Default parameters read. Elapsed time= 0.08 sec

 Checking input...
 Passed
1


                                         ***  PROGRAM SYSTEM MOLPRO  ***
                                       Copyright, TTI GmbH Stuttgart, 2015
                                    Version 2019.2 linked Oct 25 2019 22:50:27


 **********************************************************************************************************************************
 LABEL *                                                                                 
  64 bit serial version                                                                  DATE: 26-Jan-23          TIME: 20:06:28  
 **********************************************************************************************************************************

 SHA1:             8dbd9ae1082e4ce945b0f27595c9eb2d4aa09004
 **********************************************************************************************************************************


 Variable memory set to  125000000 words,  buffer space 

 SETTING NELECT         =        16.00000000                                  
 SETTING BASIS          =    6-31G*
 ZSYMEL=NOSYM


Geometry recognized as XYZ



 Recomputing integrals since basis changed


 Using spherical harmonics

 Library entry C      S 6-31G                selected for orbital group  1
 Library entry C      P 6-31G                selected for orbital group  1
 Library entry C      D 6-31G*               selected for orbital group  1
 Library entry H      S 6-31G                selected for orbital group  2


 PROGRAM * SEWARD (Integral evaluation for generally contracted gaussian basis sets)     Author: Roland Lindh, 1990

 Geometry written to block  1 of record 700


 Point group  C1  



 ATOMIC COORDINATES

 NR  ATOM    CHARGE       X              Y              Z

   1  C       6.00    0.000000000    0.055557948    1.264415750
   2  C       6.00    0.000000000   -0.055557948   -1.264415750
   3  H       1.00    0.000000000    1.677131936    2.507477595
   4  H       1.00    0.000000000   -1.780688927    2.159390043
   5  H       1.00    0.000000000    1.780688927   -2.159390043
   6  H       1.00    0.000000000   -1.677131936   -2.507477595

 Bond lengths in Bohr (Angstrom)

 1-2  2.531271518  1-3  2.043209472  1-4  2.042738743  2-5  2.042738743  2-6  2.043209472
     ( 1.339491202)     ( 1.081219890)     ( 1.080970791)     ( 1.080970791)     ( 1.081219890)

 Bond angles

  1-2-5  113.46835404   1-2-6  129.98889184   2-1-3  129.98889184   2-1-4  113.46835404

  3-1-4  116.54275411   5-2-6  116.54275411

 NUCLEAR CHARGE:                   16
 NUMBER OF PRIMITIVE AOS:          72
 NUMBER OF SYMMETRY AOS:           70
 NUMBER OF CONTRACTIONS:           36   (   36A   )
 NUMBER OF CORE ORBITALS:           2   (    2A   )
 NUMBER OF VALENCE ORBITALS:       12   (   12A   )


 NUCLEAR REPULSION ENERGY   33.33899495

 EXTRA SYMMETRY OF AOS IN SYMMETRY 1:   1 1 1 2 1 1 2 1 1 1   2 2 1 1 1 1 1 2 1 1   2 1 1 1 2 2 1 1 1 1   1 1 1 1 1 1

 Eigenvalues of metric

         1 0.799E-02 0.185E-01 0.389E-01 0.462E-01 0.714E-01 0.193E+00 0.213E+00 0.227E+00


 Contracted 2-electron integrals neglected if value below      1.0D-11
 AO integral compression algorithm  1   Integral accuracy      1.0D-11

     1.049 MB (compressed) written to integral file ( 36.7%)


 NUMBER OF SORTED TWO-ELECTRON INTEGRALS:     222111.     BUFFER LENGTH:  32768
 NUMBER OF SEGMENTS:   1  SEGMENT LENGTH:     222111      RECORD LENGTH: 524288

 Memory used in sort:       0.78 MW

 SORT1 READ      284735. AND WROTE      118725. INTEGRALS IN      1 RECORDS. CPU TIME:     0.00 SEC, REAL TIME:     0.00 SEC
 SORT2 READ      118725. AND WROTE      222111. INTEGRALS IN      4 RECORDS. CPU TIME:     0.02 SEC, REAL TIME:     0.03 SEC

 FILE SIZES:   FILE 1:    31.1 MBYTE,  FILE 4:     4.2 MBYTE,   TOTAL:     35.4 MBYTE

 OPERATOR DM      FOR CENTER  0  COORDINATES:    0.000000    0.000000    0.000000


 **********************************************************************************************************************************
 DATASETS  * FILE   NREC   LENGTH (MB)   RECORD NAMES
              1      19       30.72       500      610      700      900      950      970     1000      129      960     1100   
                                          VAR    BASINP    GEOM    SYMINP    ZMAT    AOBASIS   BASIS     P2S    ABASIS      S 
                                         1400     1410     1200     1210     1080     1600     1650     1300     1700   
                                           T        V       H0       H01     AOSYM     SMH    MOLCAS    ERIS     OPER   

 PROGRAMS   *        TOTAL       INT
 CPU TIMES  *         0.35      0.26
 REAL TIME  *         0.58 SEC
 DISK USED  *        35.71 MB
 **********************************************************************************************************************************


 PROGRAM * RHF-SCF (CLOSED SHELL)       Authors: W. Meyer, H.-J. Werner


 NUMBER OF ELECTRONS:       8+    8-    SPACE SYMMETRY=1    SPIN SYMMETRY: Singlet 
 CONVERGENCE THRESHOLDS:    1.00E-05 (Density)    1.00E-07 (Energy)
 MAX. NUMBER OF ITERATIONS:       60
 INTERPOLATION TYPE:            DIIS
 INTERPOLATION STEPS:              2 (START)      1 (STEP)
 LEVEL SHIFTS:                  0.00 (CLOSED)  0.00 (OPEN) 



 Orbital guess generated from atomic densities. Full valence occupancy:    8

 Molecular orbital dump at record        2100.2

 Initial occupancy:   8

 ITERATION    DDIFF          GRAD             ENERGY        2-EL.EN.            DIPOLE MOMENTS         DIIS   ORB.
    1      0.000D+00      0.000D+00       -77.99975215    118.581998   -0.00000    0.00000   -0.00000    0    start
    2      0.000D+00      0.851D-02       -78.02132003    116.758558   -0.00000   -0.00000    0.00000    1    diag
    3      0.821D-02      0.290D-02       -78.02342529    117.386806    0.00000    0.00000   -0.00000    2    diag
    4      0.263D-02      0.711D-03       -78.02363582    117.287462    0.00000    0.00000    0.00000    3    diag
    5      0.108D-02      0.709D-04       -78.02363819    117.290404    0.00000   -0.00000    0.00000    4    diag
    6      0.156D-03      0.874D-05       -78.02363823    117.289935   -0.00000   -0.00000    0.00000    5    diag
    7      0.173D-04      0.139D-05       -78.02363823    117.289942    0.00000   -0.00000   -0.00000    6    diag
    8      0.227D-05      0.180D-06       -78.02363823    117.289935    0.00000    0.00000   -0.00000    0    orth

 Final occupancy:   8

 !RHF STATE  1.1 Energy               -78.023638227548
 Nuclear energy                        33.33899495
 One-electron energy                 -170.00760073
 Two-electron energy                   58.64496756
 Virial quotient                       -1.00045190
 !RHF STATE  1.1 Dipole moment          0.00000000     0.00000000    -0.00000000
 Dipole moment /Debye                   0.00000000     0.00000000    -0.00000000

 ELECTRON ORBITALS
 =================

  Orbital  Occupation    Energy     Coefficients
    1.1     2.00000   -11.22707     1 1s    0.70419     2 1s    0.70419
    2.1     2.00000   -11.22549     1 1s    0.70454     2 1s   -0.70454
    3.1     2.00000    -1.02715     1 1s    0.30169     2 1s    0.30169
    4.1     2.00000    -0.79014     1 1s    0.24331
    5.1     2.00000    -0.63702     1 2py   0.32100     2 2py   0.32100
    6.1     2.00000    -0.58911     1 2pz   0.38805     2 2pz  -0.38805
    7.1     2.00000    -0.49325     1 2py   0.29287     2 2py  -0.29287
    8.1     2.00000    -0.36961     1 2px   0.37333     1 2px   0.30799     2 2px   0.37333     2 2px   0.30799
    9.1     0.00000     0.17817     1 2px   0.34250     1 2px   0.73275     2 2px  -0.34250     2 2px  -0.73275
   10.1     0.00000     0.26535     1 1s   -1.47414     1 2pz  -0.63445     2 1s   -1.47414     2 2pz   0.63445     3 1s    0.98240
                                    4 1s    1.07429     5 1s    1.07429     6 1s    0.98240
   11.1     0.00000     0.28579     1 1s   -0.76477     1 2py  -0.67323     2 1s    0.76477     2 2py  -0.67323     3 1s    1.43015
                                    4 1s   -0.46317     5 1s    0.46317     6 1s   -1.43015
   12.1     0.00000     0.31386     1 1s   -1.76044     1 2py   0.47732     2 1s    1.76044     2 2py   0.47732     3 1s    0.38517
                                    4 1s    1.52070     5 1s   -1.52070     6 1s   -0.38517
   13.1     0.00000     0.38396     1 2py  -1.79830     2 2py   1.79830     3 1s    1.69633     4 1s   -1.42704     5 1s   -1.42704
                                    6 1s    1.69633
   14.1     0.00000     0.48935     1 1s   -3.02857     1 2pz   2.98144     2 1s    3.02857     2 2pz   2.98144     3 1s   -0.78850
                                    4 1s   -0.40549     5 1s    0.40549     6 1s    0.78850
   15.1     0.00000     0.67347     1 2pz  -0.54195     1 2pz   1.02000     2 2pz   0.54195     2 2pz  -1.02000     3 1s   -0.26195
                                    6 1s   -0.26195
   16.1     0.00000     0.76166     1 1s   -0.33516     1 2py  -0.38205     1 2py   0.74688     1 2pz   0.58802     2 1s    0.33516
                                    2 2py  -0.38205     2 2py   0.74688     2 2pz   0.58802     3 1s   -0.47472     4 1s    0.27516
                                    5 1s   -0.27516     6 1s    0.47472
   17.1     0.00000     0.77677     1 2px  -0.74073     1 2px   0.63963     2 2px  -0.74073     2 2px   0.63963
   18.1     0.00000     0.86152     1 1s   -0.88259     1 1s    1.41619     1 2pz   0.29573     2 1s   -0.88259     2 1s    1.41619
                                    2 2pz  -0.29573     3 1s   -0.41161     4 1s   -0.38188     4 1s   -0.33237     5 1s   -0.38188
                                    5 1s   -0.33237     6 1s   -0.41161
   19.1     0.00000     0.88970     1 2px  -0.81833     1 2px   1.07357     2 2px   0.81833     2 2px  -1.07357
   20.1     0.00000     0.96360     1 1s   -0.86807     1 2pz   0.57637     1 2py   0.50672     1 2pz  -0.37028     2 1s    0.86807
                                    2 2pz   0.57637     2 2py   0.50672     2 2pz  -0.37028     3 1s    0.32372     4 1s    0.40091
                                    4 1s    0.37458     5 1s   -0.40091     5 1s   -0.37458     6 1s   -0.32372
   21.1     0.00000     1.11921     1 1s    0.48427     1 2py  -0.65401     1 2py   1.00622     2 1s   -0.48427     2 2py  -0.65401
                                    2 2py   1.00622     3 1s    0.26071     3 1s   -0.88986     4 1s   -0.52203     4 1s    1.12366
                                    5 1s    0.52203     5 1s   -1.12366     6 1s   -0.26071     6 1s    0.88986
   22.1     0.00000     1.14912     1 1s   -0.52396     1 2py   0.90272     1 2py  -2.81063     1 2pz  -0.44502     2 1s   -0.52396
                                    2 2py  -0.90272     2 2py   2.81063     2 2pz   0.44502     3 1s    1.68018     4 1s   -1.21616
                                    5 1s   -1.21616     6 1s    1.68018
   23.1     0.00000     1.21046     1 1s    1.03337     1 1s   -1.70800     1 2pz   0.35769     1 2pz  -0.47618     2 1s    1.03337
                                    2 1s   -1.70800     2 2pz  -0.35769     2 2pz   0.47618     3 1s   -0.42057     3 1s    0.77032
                                    4 1s   -0.45607     4 1s    0.94431     5 1s   -0.45607     5 1s    0.94431     6 1s   -0.42057
                                    6 1s    0.77032
   24.1     0.00000     1.21814     1 1s   -0.52947     1 1s    0.52342     1 2pz  -0.63528     1 2pz   1.22536     2 1s    0.52947
                                    2 1s   -0.52342     2 2pz  -0.63528     2 2pz   1.22536     3 1s    0.50756     3 1s   -1.08633
                                    4 1s    0.41185     4 1s   -0.83631     5 1s   -0.41185     5 1s    0.83631     6 1s   -0.50756
                                    6 1s    1.08633
   25.1     0.00000     1.33770     1 1s   -1.58603     1 1s    5.40818     1 2pz   0.26587     1 2py  -0.34177     1 2pz  -1.96799
                                    2 1s    1.58603     2 1s   -5.40818     2 2pz   0.26587     2 2py  -0.34177     2 2pz  -1.96799
                                    4 1s   -0.51222     5 1s    0.51222
   26.1     0.00000     1.45019     1 1s    0.34242     1 2py   2.29932     1 2pz   0.45897     2 1s    0.34242     2 2py  -2.29932
                                    2 2pz  -0.45897     3 1s   -0.73227     3 1s   -0.74447     4 1s    0.63447     4 1s    0.38964
                                    5 1s    0.63447     5 1s    0.38964     6 1s   -0.73227     6 1s   -0.74447
   27.1     0.00000     1.73783     1 3d1+  0.61827     2 3d1+ -0.61827
   28.1     0.00000     1.82260     1 3d2-  0.68092     2 3d2-  0.68092
   29.1     0.00000     2.12823     1 3d2-  0.73505     2 3d2- -0.73505
   30.1     0.00000     2.22134     1 1s   -0.54950     1 2py   0.49080     1 3d2+  0.70566     2 1s   -0.54950     2 2py  -0.49080
                                    2 3d2+  0.70566     4 1s    0.47901     5 1s    0.47901
   31.1     0.00000     2.29621     1 1s   -0.51075     1 2py   0.26327     1 2pz   0.41856     1 3d1-  0.66507     2 1s    0.51075
                                    2 2py   0.26327     2 2pz   0.41856     2 3d1- -0.66507     3 1s   -0.59115     4 1s    0.38816
                                    5 1s   -0.38816     6 1s    0.59115
   32.1     0.00000     2.41831     1 1s   -0.49075     1 2pz   0.27552     1 2pz  -0.43181     1 3d0   0.68724     2 1s   -0.49075
                                    2 2pz  -0.27552     2 2pz   0.43181     2 3d0   0.68724     4 1s    0.25856     5 1s    0.25856
   33.1     0.00000     2.62777     1 1s    0.29197     1 1s   -1.49259     1 2pz   0.38920     1 3d2+  0.78594     2 1s   -0.29197
                                    2 1s    1.49259     2 2pz   0.38920     2 3d2+ -0.78594     3 1s    0.28277     4 1s    0.57018
                                    5 1s   -0.57018     6 1s   -0.28277
   34.1     0.00000     2.70548     1 2px  -0.26440     1 3d1+  0.90121     2 2px   0.26440     2 3d1+  0.90121
   35.1     0.00000     3.04440     1 2py   0.44034     1 3d1-  0.96449     2 2py  -0.44034     2 3d1-  0.96449     3 1s   -0.53486
                                    4 1s    0.36892     5 1s    0.36892     6 1s   -0.53486
   36.1     0.00000     3.07438     1 1s    0.31968     1 1s    1.97037     1 2pz  -0.78264     1 2pz  -1.15506     1 3d0   1.10680
                                    2 1s   -0.31968     2 1s   -1.97037     2 2pz  -0.78264     2 2pz  -1.15506     2 3d0  -1.10680


 HOMO      8.1    -0.369606 =     -10.0575eV
 LUMO      9.1     0.178173 =       4.8483eV
 LUMO-HOMO         0.547779 =      14.9058eV


 **********************************************************************************************************************************
 DATASETS  * FILE   NREC   LENGTH (MB)   RECORD NAMES
              1      19       30.72       500      610      700      900      950      970     1000      129      960     1100   
                                          VAR    BASINP    GEOM    SYMINP    ZMAT    AOBASIS   BASIS     P2S    ABASIS      S 
                                         1400     1410     1200     1210     1080     1600     1650     1300     1700   
                                           T        V       H0       H01     AOSYM     SMH    MOLCAS    ERIS     OPER   

              2       4        2.86       700     1000      520     2100   
                                         GEOM     BASIS   MCVARS     RHF  

 PROGRAMS   *        TOTAL    HF-SCF       INT
 CPU TIMES  *         0.46      0.11      0.26
 REAL TIME  *         0.72 SEC
 DISK USED  *        35.71 MB
 **********************************************************************************************************************************


 PROGRAM * MULTI (Direct Multiconfiguration SCF)       Authors: P.J. Knowles, H.-J. Werner (1984)


 Number of closed-shell orbitals:   7 (   7 )
 Number of active  orbitals:        2 (   2 )
 Number of external orbitals:      27 (  27 )

 State symmetry 1

 Number of electrons:     2    Spin symmetry=Singlet   Space symmetry=1
 Number of states:        3
 Number of CSFs:          3   (4 determinants, 4 intermediate states)

 Molecular orbitals read from record     2100.2  Type=RHF/CANONICAL (state 1.1)

 EXTRA SYMMETRY OF MOS IN SYMMETRY 1:   1 1 1 1 1 1 1 2 2 1   1 1 1 1 1 1 2 1 2 1   1 1 1 1 1 1 2 2 2 1   1 1 1 2 1 1

 Wavefunction dump at record             2140.2

 Convergence thresholds  0.10E-01 (gradient)  0.10E-05 (energy)  0.10E-02 (step length)

 Weight factors for state symmetry  1:    0.33333   0.33333   0.33333

 Number of orbital rotations:      257   (    14 Core/Active    189 Core/Virtual   0 Active/Active     54 Active/Virtual)
 Total number of variables:        269

 Micro-Iterations solved by the two-step solver

 ITER. MIC  NCI  NEG     ENERGY(VAR)     ENERGY(PROJ)   ENERGY CHANGE     GRAD(0)  GRAD(ORB)   GRAD(CI)     STEP       TIME

   1    3    3    0     -77.72249403     -77.72872994   -0.00623592    0.13238667 0.00000154 0.00000000  0.63D-01      0.06
   2    2    3    0     -77.72863184     -77.72863559   -0.00000376    0.00303714 0.00000186 0.00000000  0.16D-02      0.10
   3    2    3    0     -77.72863559     -77.72863559   -0.00000000    0.00000216 0.00000000 0.00000000  0.13D-05      0.13

 ** WVFN ****  CONVERGENCE REACHED, FINAL GRADIENT:  0.13D-11



 Results for state 1.1
 =====================

 !MCSCF STATE  1.1 Energy             -78.041353196828
 Nuclear energy                        33.33899495
 Kinetic energy                        78.05686409
 One electron energy                 -170.13911970
 Two electron energy                   58.75877156
 Virial ratio                           1.99980129

 !MCSCF STATE  1.1 Dipole moment        0.00000000    -0.00000000     0.00000000
 Dipole moment /Debye                   0.00000000    -0.00000000     0.00000000

 Results for state 2.1
 =====================

 !MCSCF STATE  2.1 Energy             -77.665299315193
 Nuclear energy                        33.33899495
 Kinetic energy                        78.23793109
 One electron energy                 -169.56751642
 Two electron energy                   58.56322215
 Virial ratio                           1.99268089

 !MCSCF STATE  2.1 Dipole moment        0.00000000    -0.00000000     0.00000000
 Dipole moment /Debye                   0.00000000    -0.00000000     0.00000000

 Results for state 3.1
 =====================

 !MCSCF STATE  3.1 Energy             -77.479254272818
 Nuclear energy                        33.33899495
 Kinetic energy                        78.41899809
 One electron energy                 -168.99591313
 Two electron energy                   58.17766391
 Virial ratio                           1.98801638

 !MCSCF STATE  3.1 Dipole moment        0.00000000    -0.00000000     0.00000000
 Dipole moment /Debye                   0.00000000    -0.00000000     0.00000000

 State-averaged charge density matrix saved on record  2140.2 (density set 1)

 !MCSCF trans         <2.1|DMY|1.1>    -0.065803604588 au =    -0.167245125348 Debye
 !MCSCF trans         <3.1|DMY|2.1>    -0.099090418694 au =    -0.251846226343 Debye

 !MCSCF trans         <2.1|DMZ|1.1>    -1.509235829419 au =    -3.835843599335 Debye
 !MCSCF trans         <3.1|DMZ|2.1>    -2.272684166494 au =    -5.776208623877 Debye


 NATURAL ORBITALS (state averaged)
 =================================

  Orbital  Occupation    Energy     Coefficients
    1.1     2.00000   -11.24263     1 1s    0.70421     2 1s    0.70421
    2.1     2.00000   -11.24132     1 1s    0.70450     2 1s   -0.70450
    3.1     2.00000    -1.04198     1 1s    0.30965     2 1s    0.30965
    4.1     2.00000    -0.79785     1 1s    0.28894     2 1s   -0.28894
    5.1     2.00000    -0.64995     1 2py   0.32657     2 2py   0.32657
    6.1     2.00000    -0.60263     1 2pz   0.39346     2 2pz  -0.39346
    7.1     2.00000    -0.50126     1 2py   0.30186     2 2py  -0.30186
    8.1     1.00000     0.03333     1 2px   0.38042     1 2px   0.68581     2 2px  -0.38042     2 2px  -0.68581
    9.1     1.00000    -0.22572     1 2px   0.35790     1 2px   0.31944     2 2px   0.35790     2 2px   0.31944
   10.1    -0.00000     0.26251     1 1s   -1.46663     1 2pz  -0.63775     2 1s   -1.46663     2 2pz   0.63775     3 1s    0.95787
                                    4 1s    1.09353     5 1s    1.09353     6 1s    0.95787
   11.1    -0.00000     0.27865     1 1s   -0.64330     1 2py  -0.69909     2 1s    0.64330     2 2py  -0.69909     3 1s    1.38243
                                    4 1s   -0.57582     5 1s    0.57582     6 1s   -1.38243
   12.1    -0.00000     0.30927     1 1s   -1.83594     1 2py   0.41888     2 1s    1.83594     2 2py   0.41888     3 1s    0.49287
                                    4 1s    1.47273     5 1s   -1.47273     6 1s   -0.49287
   13.1    -0.00000     0.37962     1 2py  -1.78133     2 2py   1.78133     3 1s    1.70389     4 1s   -1.40236     5 1s   -1.40236
                                    6 1s    1.70389
   14.1    -0.00000     0.48623     1 1s   -2.99927     1 2pz   2.95977     2 1s    2.99927     2 2pz   2.95977     3 1s   -0.80403
                                    4 1s   -0.41027     5 1s    0.41027     6 1s    0.80403
   15.1    -0.00000     0.66244     1 1s    0.25020     1 2pz  -0.53435     1 2pz   1.00007     2 1s    0.25020     2 2pz   0.53435
                                    2 2pz  -1.00007
   16.1    -0.00000     0.75230     1 1s   -0.39057     1 2py  -0.39407     1 2py   0.75886     1 2pz   0.62146     2 1s    0.39057
                                    2 2py  -0.39407     2 2py   0.75886     2 2pz   0.62146     3 1s   -0.46828     4 1s    0.27187
                                    5 1s   -0.27187     6 1s    0.46828
   17.1    -0.00000     0.77080     1 2px  -0.74738     1 2px   0.63434     2 2px  -0.74738     2 2px   0.63434
   18.1    -0.00000     0.85847     1 1s   -0.87649     1 1s    1.43593     1 2py  -0.27001     1 2pz   0.33682     2 1s   -0.87649
                                    2 1s    1.43593     2 2py   0.27001     2 2pz  -0.33682     3 1s   -0.40955     4 1s   -0.38670
                                    4 1s   -0.34938     5 1s   -0.38670     5 1s   -0.34938     6 1s   -0.40955
   19.1    -0.00000     0.87214     1 2px  -0.80274     1 2px   1.10397     2 2px   0.80274     2 2px  -1.10397
   20.1    -0.00000     0.94454     1 1s   -0.72387     1 2pz   0.58250     1 2py   0.48953     1 2pz  -0.45141     2 1s    0.72387
                                    2 2pz   0.58250     2 2py   0.48953     2 2pz  -0.45141     3 1s    0.32305     4 1s    0.40350
                                    4 1s    0.35960     5 1s   -0.40350     5 1s   -0.35960     6 1s   -0.32305
   21.1    -0.00000     1.10347     1 1s    0.44743     1 2py  -0.64491     1 2py   1.01360     2 1s   -0.44743     2 2py  -0.64491
                                    2 2py   1.01360     3 1s    0.26524     3 1s   -0.90028     4 1s   -0.51830     4 1s    1.13723
                                    5 1s    0.51830     5 1s   -1.13723     6 1s   -0.26524     6 1s    0.90028
   22.1    -0.00000     1.13698     1 1s   -0.48292     1 2py   0.90149     1 2py  -2.81718     1 2pz  -0.43341     2 1s   -0.48292
                                    2 2py  -0.90149     2 2py   2.81718     2 2pz   0.43341     3 1s    1.66575     4 1s   -1.24839
                                    5 1s   -1.24839     6 1s    1.66575
   23.1    -0.00000     1.20702     1 1s    1.03137     1 1s   -1.71761     1 2pz   0.36471     1 2pz  -0.49369     2 1s    1.03137
                                    2 1s   -1.71761     2 2pz  -0.36471     2 2pz   0.49369     3 1s   -0.42661     3 1s    0.81798
                                    4 1s   -0.45076     4 1s    0.90798     5 1s   -0.45076     5 1s    0.90798     6 1s   -0.42661
                                    6 1s    0.81798
   24.1    -0.00000     1.21581     1 1s   -0.46632     1 1s    0.31105     1 2pz  -0.64799     1 2pz   1.30420     2 1s    0.46632
                                    2 1s   -0.31105     2 2pz  -0.64799     2 2pz   1.30420     3 1s    0.51085     3 1s   -1.07921
                                    4 1s    0.41505     4 1s   -0.81668     5 1s   -0.41505     5 1s    0.81668     6 1s   -0.51085
                                    6 1s    1.07921
   25.1    -0.00000     1.31789     1 1s   -1.60765     1 1s    5.43824     1 2py  -0.33939     1 2pz  -1.91754     2 1s    1.60765
                                    2 1s   -5.43824     2 2py  -0.33939     2 2pz  -1.91754     4 1s   -0.54696     5 1s    0.54696
   26.1    -0.00000     1.44186     1 1s    0.34762     1 2py   2.30368     1 2pz   0.46060     2 1s    0.34762     2 2py  -2.30368
                                    2 2pz  -0.46060     3 1s   -0.73151     3 1s   -0.74749     4 1s    0.63331     4 1s    0.38958
                                    5 1s    0.63331     5 1s    0.38958     6 1s   -0.73151     6 1s   -0.74749
   27.1    -0.00000     1.71221     1 3d1+  0.61800     2 3d1+ -0.61800
   28.1    -0.00000     1.80887     1 3d2-  0.68093     2 3d2-  0.68093
   29.1    -0.00000     2.10526     1 3d2-  0.73504     2 3d2- -0.73504
   30.1    -0.00000     2.20573     1 1s   -0.54569     1 2py   0.48751     1 3d2+  0.70512     2 1s   -0.54569     2 2py  -0.48751
                                    2 3d2+  0.70512     4 1s    0.47989     5 1s    0.47989
   31.1    -0.00000     2.27968     1 1s   -0.51149     1 2py   0.27001     1 2pz   0.42117     1 3d1-  0.66267     2 1s    0.51149
                                    2 2py   0.27001     2 2pz   0.42117     2 3d1- -0.66267     3 1s   -0.59641     4 1s    0.38848
                                    5 1s   -0.38848     6 1s    0.59641
   32.1    -0.00000     2.39842     1 1s   -0.48860     1 2pz   0.28112     1 2pz  -0.43442     1 3d0   0.68683     2 1s   -0.48860
                                    2 2pz  -0.28112     2 2pz   0.43442     2 3d0   0.68683     4 1s    0.25952     5 1s    0.25952
   33.1    -0.00000     2.60855     1 1s    0.29297     1 1s   -1.50333     1 2pz   0.39127     1 3d2+  0.78471     2 1s   -0.29297
                                    2 1s    1.50333     2 2pz   0.39127     2 3d2+ -0.78471     3 1s    0.28291     4 1s    0.57512
                                    5 1s   -0.57512     6 1s   -0.28291
   34.1    -0.00000     2.68301     1 2px  -0.26516     1 3d1+  0.90160     2 2px   0.26516     2 3d1+  0.90160
   35.1    -0.00000     3.03139     1 2py   0.44034     1 3d1-  0.96413     2 2py  -0.44034     2 3d1-  0.96413     3 1s   -0.53727
                                    4 1s    0.37116     5 1s    0.37116     6 1s   -0.53727
   36.1    -0.00000     3.05659     1 1s    0.31299     1 1s    1.99403     1 2pz  -0.77517     1 2pz  -1.16786     1 3d0   1.10834
                                    2 1s   -0.31299     2 1s   -1.99403     2 2pz  -0.77517     2 2pz  -1.16786     2 3d0  -1.10834


 Natural orbital dump (state averaged) at molpro section  2140.2    (Orbital set 2)



 **********************************************************************************************************************************
 DATASETS  * FILE   NREC   LENGTH (MB)   RECORD NAMES
              1      20       31.45       500      610      700      900      950      970     1000      129      960     1100   
                                          VAR    BASINP    GEOM    SYMINP    ZMAT    AOBASIS   BASIS     P2S    ABASIS      S 
                                         1400     1410     1200     1210     1080     1600     1650     1300     1700     1380   
                                           T        V       H0       H01     AOSYM     SMH    MOLCAS    ERIS     OPER     JKOP   

              2       5        5.42       700     1000      520     2100     2140   
                                         GEOM     BASIS   MCVARS     RHF     MCSCF   

 PROGRAMS   *        TOTAL     MULTI    HF-SCF       INT
 CPU TIMES  *         0.64      0.18      0.11      0.26
 REAL TIME  *         0.93 SEC
 DISK USED  *        38.63 MB
 **********************************************************************************************************************************
 Molecular orbitals read from record     2140.2  Type=MCSCF/NATURAL (state averaged)
 Occupation numbers read from record     2140.2  Type=MCSCF/NATURAL (state averaged)
 Orbital energies read from record       2140.2  Type=MCSCF/NATURAL (state averaged)
 Redundancy group numbers read from rec  2140.2  Type=MCSCF/NATURAL (state averaged)

 MULTI/6-31G* energy=    -77.479254272818

           MULTI          HF-SCF
    -77.47925427    -78.02363823
 **********************************************************************************************************************************
 Molpro calculation terminated
