
 Primary working directories    : /scratch.local/johan406.molpro_temp/molpro.unsxIpsNXz
 Secondary working directories  : /scratch.local/johan406.molpro_temp/molpro.unsxIpsNXz
 Wavefunction directory         : /home/goodpast/johan406/wfu/
 Main file repository           : /scratch.local/johan406.molpro_temp/molpro.unsxIpsNXz/

 id        : roweumn

 Nodes     nprocs
 cn0117       1

 Using customized tuning parameters: mindgm=1; mindgv=20; mindgc=4; mindgr=1; noblas=0; minvec=7
 default implementation of scratch files=df  


 Variables initialized (934), CPU time= 0.00 sec
                                                                                 !leave this line blank
 
 gprint, orbitals=30
 memory, 125., m
 symmetry, nosym
 nelect=16
 basis=6-31g*
 
 geometry={
 C 0.0 0.0384 0.6691
 C 0.0 -0.0384 -0.6691
 H 0.0 0.8791 1.3551
 H -0.0 -0.9507 1.1145
 H 0.0 0.9507 -1.1145
 H 0.0 -0.8791 -1.3551
 }
 
 hf
 {multi,
 closed 7
 occ 9
 wf,spin=0;STATE,3
 }
 
 Commands  initialized (763), CPU time= 0.01 sec, 617 directives.
 Default parameters read. Elapsed time= 0.09 sec

 Checking input...
 Passed
1


                                         ***  PROGRAM SYSTEM MOLPRO  ***
                                       Copyright, TTI GmbH Stuttgart, 2015
                                    Version 2019.2 linked Oct 25 2019 22:50:27


 **********************************************************************************************************************************
 LABEL *                                                                                 
  64 bit serial version                                                                  DATE: 26-Jan-23          TIME: 20:07:58  
 **********************************************************************************************************************************

 SHA1:             8dbd9ae1082e4ce945b0f27595c9eb2d4aa09004
 **********************************************************************************************************************************


 Variable memory set to  125000000 words,  buffer space 

 SETTING NELECT         =        16.00000000                                  
 SETTING BASIS          =    6-31G*
 ZSYMEL=NOSYM


Geometry recognized as XYZ



 Recomputing integrals since basis changed


 Using spherical harmonics

 Library entry C      S 6-31G                selected for orbital group  1
 Library entry C      P 6-31G                selected for orbital group  1
 Library entry C      D 6-31G*               selected for orbital group  1
 Library entry H      S 6-31G                selected for orbital group  2


 PROGRAM * SEWARD (Integral evaluation for generally contracted gaussian basis sets)     Author: Roland Lindh, 1990

 Geometry written to block  1 of record 700


 Point group  C1  



 ATOMIC COORDINATES

 NR  ATOM    CHARGE       X              Y              Z

   1  C       6.00    0.000000000    0.072565483    1.264415750
   2  C       6.00    0.000000000   -0.072565483   -1.264415750
   3  H       1.00    0.000000000    1.661258236    2.560767871
   4  H       1.00    0.000000000   -1.796562627    2.106099766
   5  H       1.00    0.000000000    1.796562627   -2.106099766
   6  H       1.00    0.000000000   -1.661258236   -2.560767871

 Bond lengths in Bohr (Angstrom)

 1-2  2.532992647  1-3  2.050481282  1-4  2.049895576  2-5  2.049895576  2-6  2.050481282
     ( 1.340401984)     ( 1.085067966)     ( 1.084758024)     ( 1.084758024)     ( 1.085067966)

 Bond angles

  1-2-5  110.95780433   1-2-6  132.49861876   2-1-3  132.49861876   2-1-4  110.95780433

  3-1-4  116.54357690   5-2-6  116.54357690

 NUCLEAR CHARGE:                   16
 NUMBER OF PRIMITIVE AOS:          72
 NUMBER OF SYMMETRY AOS:           70
 NUMBER OF CONTRACTIONS:           36   (   36A   )
 NUMBER OF CORE ORBITALS:           2   (    2A   )
 NUMBER OF VALENCE ORBITALS:       12   (   12A   )


 NUCLEAR REPULSION ENERGY   33.29193884

 EXTRA SYMMETRY OF AOS IN SYMMETRY 1:   1 1 1 2 1 1 2 1 1 1   2 2 1 1 1 1 1 2 1 1   2 1 1 1 2 2 1 1 1 1   1 1 1 1 1 1

 Eigenvalues of metric

         1 0.776E-02 0.194E-01 0.398E-01 0.463E-01 0.718E-01 0.194E+00 0.215E+00 0.229E+00


 Contracted 2-electron integrals neglected if value below      1.0D-11
 AO integral compression algorithm  1   Integral accuracy      1.0D-11

     1.049 MB (compressed) written to integral file ( 36.7%)


 NUMBER OF SORTED TWO-ELECTRON INTEGRALS:     222111.     BUFFER LENGTH:  32768
 NUMBER OF SEGMENTS:   1  SEGMENT LENGTH:     222111      RECORD LENGTH: 524288

 Memory used in sort:       0.78 MW

 SORT1 READ      284735. AND WROTE      118725. INTEGRALS IN      1 RECORDS. CPU TIME:     0.00 SEC, REAL TIME:     0.01 SEC
 SORT2 READ      118725. AND WROTE      222111. INTEGRALS IN      4 RECORDS. CPU TIME:     0.02 SEC, REAL TIME:     0.02 SEC

 FILE SIZES:   FILE 1:    31.1 MBYTE,  FILE 4:     4.2 MBYTE,   TOTAL:     35.4 MBYTE

 OPERATOR DM      FOR CENTER  0  COORDINATES:    0.000000    0.000000    0.000000


 **********************************************************************************************************************************
 DATASETS  * FILE   NREC   LENGTH (MB)   RECORD NAMES
              1      19       30.72       500      610      700      900      950      970     1000      129      960     1100   
                                          VAR    BASINP    GEOM    SYMINP    ZMAT    AOBASIS   BASIS     P2S    ABASIS      S 
                                         1400     1410     1200     1210     1080     1600     1650     1300     1700   
                                           T        V       H0       H01     AOSYM     SMH    MOLCAS    ERIS     OPER   

 PROGRAMS   *        TOTAL       INT
 CPU TIMES  *         0.36      0.26
 REAL TIME  *         0.58 SEC
 DISK USED  *        35.71 MB
 **********************************************************************************************************************************


 PROGRAM * RHF-SCF (CLOSED SHELL)       Authors: W. Meyer, H.-J. Werner


 NUMBER OF ELECTRONS:       8+    8-    SPACE SYMMETRY=1    SPIN SYMMETRY: Singlet 
 CONVERGENCE THRESHOLDS:    1.00E-05 (Density)    1.00E-07 (Energy)
 MAX. NUMBER OF ITERATIONS:       60
 INTERPOLATION TYPE:            DIIS
 INTERPOLATION STEPS:              2 (START)      1 (STEP)
 LEVEL SHIFTS:                  0.00 (CLOSED)  0.00 (OPEN) 



 Orbital guess generated from atomic densities. Full valence occupancy:    8

 Molecular orbital dump at record        2100.2

 Initial occupancy:   8

 ITERATION    DDIFF          GRAD             ENERGY        2-EL.EN.            DIPOLE MOMENTS         DIIS   ORB.
    1      0.000D+00      0.000D+00       -77.99492411    118.483352   -0.00000    0.00000    0.00000    0    start
    2      0.000D+00      0.846D-02       -78.01622025    116.671214   -0.00000   -0.00000    0.00000    1    diag
    3      0.820D-02      0.288D-02       -78.01830992    117.297727   -0.00000   -0.00000    0.00000    2    diag
    4      0.262D-02      0.710D-03       -78.01852128    117.197922   -0.00000    0.00000   -0.00000    3    diag
    5      0.108D-02      0.730D-04       -78.01852385    117.200889   -0.00000   -0.00000   -0.00000    4    diag
    6      0.162D-03      0.920D-05       -78.01852389    117.200393   -0.00000   -0.00000   -0.00000    5    diag
    7      0.187D-04      0.153D-05       -78.01852389    117.200398    0.00000    0.00000    0.00000    6    diag
    8      0.263D-05      0.203D-06       -78.01852389    117.200391    0.00000    0.00000   -0.00000    0    orth

 Final occupancy:   8

 !RHF STATE  1.1 Energy               -78.018523892360
 Nuclear energy                        33.29193884
 One-electron energy                 -169.91065811
 Two-electron energy                   58.60019538
 Virial quotient                       -1.00069183
 !RHF STATE  1.1 Dipole moment          0.00000000     0.00000000    -0.00000000
 Dipole moment /Debye                   0.00000000     0.00000000    -0.00000000

 ELECTRON ORBITALS
 =================

  Orbital  Occupation    Energy     Coefficients
    1.1     2.00000   -11.22847     1 1s    0.70419     2 1s    0.70419
    2.1     2.00000   -11.22690     1 1s    0.70454     2 1s   -0.70454
    3.1     2.00000    -1.02733     1 1s    0.30137     2 1s    0.30137
    4.1     2.00000    -0.78869     1 1s    0.24427
    5.1     2.00000    -0.63590     1 2py   0.32048     2 2py   0.32048
    6.1     2.00000    -0.59249     1 2pz   0.37961     2 2pz  -0.37961
    7.1     2.00000    -0.48549     1 2py   0.28750     2 2py  -0.28750
    8.1     2.00000    -0.36986     1 2px   0.37338     1 2px   0.30803     2 2px   0.37338     2 2px   0.30803
    9.1     0.00000     0.17786     1 2px   0.34283     1 2px   0.73189     2 2px  -0.34283     2 2px  -0.73189
   10.1     0.00000     0.26450     1 1s   -1.45789     1 2pz  -0.62544     2 1s   -1.45789     2 2pz   0.62544     3 1s    0.95955
                                    4 1s    1.07836     5 1s    1.07836     6 1s    0.95955
   11.1     0.00000     0.28085     1 1s   -0.81090     1 2py  -0.63503     2 1s    0.81090     2 2py  -0.63503     3 1s    1.43146
                                    4 1s   -0.37968     5 1s    0.37968     6 1s   -1.43146
   12.1     0.00000     0.31553     1 1s   -1.72381     1 2py   0.54265     2 1s    1.72381     2 2py   0.54265     3 1s    0.29138
                                    4 1s    1.55580     5 1s   -1.55580     6 1s   -0.29138
   13.1     0.00000     0.37913     1 1s   -0.27671     1 2py  -1.74415     2 1s   -0.27671     2 2py   1.74415     3 1s    1.68877
                                    4 1s   -1.34290     5 1s   -1.34290     6 1s    1.68877
   14.1     0.00000     0.48842     1 1s   -3.05577     1 2pz   2.99913     2 1s    3.05577     2 2pz   2.99913     3 1s   -0.85118
                                    4 1s   -0.34918     5 1s    0.34918     6 1s    0.85118
   15.1     0.00000     0.67622     1 2pz  -0.53330     1 2pz   1.00785     2 2pz   0.53330     2 2pz  -1.00785     3 1s   -0.30555
                                    6 1s   -0.30555
   16.1     0.00000     0.76166     1 1s   -0.44180     1 2py  -0.37200     1 2py   0.73317     1 2pz   0.75969     2 1s    0.44180
                                    2 2py  -0.37200     2 2py   0.73317     2 2pz   0.75969     3 1s   -0.49402     6 1s    0.49402
   17.1     0.00000     0.77644     1 2px  -0.74083     1 2px   0.63970     2 2px  -0.74083     2 2px   0.63970
   18.1     0.00000     0.86086     1 1s   -0.87871     1 1s    1.38334     1 2py  -0.29914     1 2pz   0.26745     2 1s   -0.87871
                                    2 1s    1.38334     2 2py   0.29914     2 2pz  -0.26745     3 1s   -0.41777     4 1s   -0.37767
                                    4 1s   -0.35190     5 1s   -0.37767     5 1s   -0.35190     6 1s   -0.41777
   19.1     0.00000     0.88912     1 2px  -0.81816     1 2px   1.07341     2 2px   0.81816     2 2px  -1.07341
   20.1     0.00000     0.96907     1 1s   -0.85772     1 2py  -0.30410     1 2pz   0.55828     1 2py   0.65722     1 2pz  -0.31041
                                    2 1s    0.85772     2 2py  -0.30410     2 2pz   0.55828     2 2py   0.65722     2 2pz  -0.31041
                                    3 1s    0.30520     3 1s   -0.28937     4 1s    0.38851     4 1s    0.46764     5 1s   -0.38851
                                    5 1s   -0.46764     6 1s   -0.30520     6 1s    0.28937
   21.1     0.00000     1.12144     1 1s   -0.62897     1 2py   0.62653     1 2py  -0.93402     1 2pz   0.26362     2 1s    0.62897
                                    2 2py   0.62653     2 2py  -0.93402     2 2pz   0.26362     3 1s    0.80096     4 1s    0.57226
                                    4 1s   -1.12400     5 1s   -0.57226     5 1s    1.12400     6 1s   -0.80096
   22.1     0.00000     1.14150     1 1s   -0.64814     1 2py   0.88889     1 2py  -2.72176     1 2pz  -0.55931     2 1s   -0.64814
                                    2 2py  -0.88889     2 2py   2.72176     2 2pz   0.55931     3 1s    1.69197     4 1s   -1.12315
                                    5 1s   -1.12315     6 1s    1.69197
   23.1     0.00000     1.20609     1 1s    1.03326     1 1s   -1.70171     1 2pz   0.35341     1 2pz  -0.46794     2 1s    1.03326
                                    2 1s   -1.70171     2 2pz  -0.35341     2 2pz   0.46794     3 1s   -0.41732     3 1s    0.75817
                                    4 1s   -0.45655     4 1s    0.94935     5 1s   -0.45655     5 1s    0.94935     6 1s   -0.41732
                                    6 1s    0.75817
   24.1     0.00000     1.21490     1 1s   -0.53186     1 1s    0.54915     1 2pz  -0.64200     1 2pz   1.21486     2 1s    0.53186
                                    2 1s   -0.54915     2 2pz  -0.64200     2 2pz   1.21486     3 1s    0.51776     3 1s   -1.11957
                                    4 1s    0.38491     4 1s   -0.78771     5 1s   -0.38491     5 1s    0.78771     6 1s   -0.51776
                                    6 1s    1.11957
   25.1     0.00000     1.33712     1 1s   -1.58200     1 1s    5.42627     1 2pz   0.26811     1 2py  -0.44361     1 2pz  -2.00781
                                    2 1s    1.58200     2 1s   -5.42627     2 2pz   0.26811     2 2py  -0.44361     2 2pz  -2.00781
                                    4 1s   -0.55846     5 1s    0.55846
   26.1     0.00000     1.43565     1 1s    0.42340     1 2py   2.15851     1 2pz   0.57114     2 1s    0.42340     2 2py  -2.15851
                                    2 2pz  -0.57114     3 1s   -0.73389     3 1s   -0.72778     4 1s    0.61605     4 1s    0.28707
                                    5 1s    0.61605     5 1s    0.28707     6 1s   -0.73389     6 1s   -0.72778
   27.1     0.00000     1.73689     1 3d1+  0.61774     2 3d1+ -0.61774
   28.1     0.00000     1.82319     1 3d2-  0.68071     2 3d2-  0.68071
   29.1     0.00000     2.12850     1 3d2-  0.73425     2 3d2- -0.73425
   30.1     0.00000     2.22821     1 1s    0.26353     1 1s   -0.51607     1 2py   0.58390     1 3d2+  0.70043     2 1s    0.26353
                                    2 1s   -0.51607     2 2py  -0.58390     2 3d2+  0.70043     4 1s    0.49721     4 1s    0.25706
                                    5 1s    0.49721     5 1s    0.25706
   31.1     0.00000     2.27249     1 1s   -0.67704     1 2py   0.25428     1 2pz   0.54466     1 3d1-  0.65053     2 1s    0.67704
                                    2 2py   0.25428     2 2pz   0.54466     2 3d1- -0.65053     3 1s   -0.59560     4 1s    0.35070
                                    5 1s   -0.35070     6 1s    0.59560
   32.1     0.00000     2.42523     1 1s   -0.47920     1 2pz   0.27134     1 2pz  -0.41948     1 3d0   0.68590     2 1s   -0.47920
                                    2 2pz  -0.27134     2 2pz   0.41948     2 3d0   0.68590     4 1s    0.28921     5 1s    0.28921
   33.1     0.00000     2.62652     1 1s    0.29375     1 1s   -1.57740     1 2pz   0.45930     1 3d2+  0.77947     2 1s   -0.29375
                                    2 1s    1.57740     2 2pz   0.45930     2 3d2+ -0.77947     4 1s    0.59148     5 1s   -0.59148
   34.1     0.00000     2.70360     1 2px  -0.26434     1 3d1+  0.90016     2 2px   0.26434     2 3d1+  0.90016
   35.1     0.00000     3.03129     1 2py   0.36301     1 3d1-  0.95974     2 2py  -0.36301     2 3d1-  0.95974     3 1s   -0.54109
                                    4 1s    0.32590     5 1s    0.32590     6 1s   -0.54109
   36.1     0.00000     3.08210     1 1s    0.32138     1 1s    1.93941     1 2pz  -0.77374     1 2pz  -1.14138     1 3d0   1.10366
                                    2 1s   -0.32138     2 1s   -1.93941     2 2pz  -0.77374     2 2pz  -1.14138     2 3d0  -1.10366


 HOMO      8.1    -0.369857 =     -10.0643eV
 LUMO      9.1     0.177863 =       4.8399eV
 LUMO-HOMO         0.547720 =      14.9042eV


 **********************************************************************************************************************************
 DATASETS  * FILE   NREC   LENGTH (MB)   RECORD NAMES
              1      19       30.72       500      610      700      900      950      970     1000      129      960     1100   
                                          VAR    BASINP    GEOM    SYMINP    ZMAT    AOBASIS   BASIS     P2S    ABASIS      S 
                                         1400     1410     1200     1210     1080     1600     1650     1300     1700   
                                           T        V       H0       H01     AOSYM     SMH    MOLCAS    ERIS     OPER   

              2       4        2.86       700     1000      520     2100   
                                         GEOM     BASIS   MCVARS     RHF  

 PROGRAMS   *        TOTAL    HF-SCF       INT
 CPU TIMES  *         0.47      0.11      0.26
 REAL TIME  *         0.72 SEC
 DISK USED  *        35.71 MB
 **********************************************************************************************************************************


 PROGRAM * MULTI (Direct Multiconfiguration SCF)       Authors: P.J. Knowles, H.-J. Werner (1984)


 Number of closed-shell orbitals:   7 (   7 )
 Number of active  orbitals:        2 (   2 )
 Number of external orbitals:      27 (  27 )

 State symmetry 1

 Number of electrons:     2    Spin symmetry=Singlet   Space symmetry=1
 Number of states:        3
 Number of CSFs:          3   (4 determinants, 4 intermediate states)

 Molecular orbitals read from record     2100.2  Type=RHF/CANONICAL (state 1.1)

 EXTRA SYMMETRY OF MOS IN SYMMETRY 1:   1 1 1 1 1 1 1 2 2 1   1 1 1 1 1 1 2 1 2 1   1 1 1 1 1 1 2 2 2 1   1 1 1 2 1 1

 Wavefunction dump at record             2140.2

 Convergence thresholds  0.10E-01 (gradient)  0.10E-05 (energy)  0.10E-02 (step length)

 Weight factors for state symmetry  1:    0.33333   0.33333   0.33333

 Number of orbital rotations:      257   (    14 Core/Active    189 Core/Virtual   0 Active/Active     54 Active/Virtual)
 Total number of variables:        269

 Micro-Iterations solved by the two-step solver

 ITER. MIC  NCI  NEG     ENERGY(VAR)     ENERGY(PROJ)   ENERGY CHANGE     GRAD(0)  GRAD(ORB)   GRAD(CI)     STEP       TIME

   1    3    3    0     -77.71740838     -77.72363665   -0.00622827    0.13220299 0.00000154 0.00000000  0.63D-01      0.07
   2    2    3    0     -77.72353888     -77.72354263   -0.00000375    0.00303137 0.00000185 0.00000000  0.16D-02      0.10
   3    2    3    0     -77.72354263     -77.72354263   -0.00000000    0.00000216 0.00000000 0.00000000  0.13D-05      0.14

 ** WVFN ****  CONVERGENCE REACHED, FINAL GRADIENT:  0.13D-11



 Results for state 1.1
 =====================

 !MCSCF STATE  1.1 Energy             -78.036271007858
 Nuclear energy                        33.29193884
 Kinetic energy                        78.03313859
 One electron energy                 -170.04170852
 Two electron energy                   58.71349867
 Virial ratio                           2.00004014

 !MCSCF STATE  1.1 Dipole moment        0.00000000    -0.00000000     0.00000000
 Dipole moment /Debye                   0.00000000    -0.00000000     0.00000000

 Results for state 2.1
 =====================

 !MCSCF STATE  2.1 Energy             -77.660145779110
 Nuclear energy                        33.29193884
 Kinetic energy                        78.21483508
 One electron energy                 -169.47151368
 Two electron energy                   58.51942906
 Virial ratio                           1.99290813

 !MCSCF STATE  2.1 Dipole moment        0.00000000    -0.00000000     0.00000000
 Dipole moment /Debye                   0.00000000    -0.00000000     0.00000000

 Results for state 3.1
 =====================

 !MCSCF STATE  3.1 Energy             -77.474211111070
 Nuclear energy                        33.29193884
 Kinetic energy                        78.39653157
 One electron energy                 -168.90131883
 Two electron energy                   58.13516888
 Virial ratio                           1.98823519

 !MCSCF STATE  3.1 Dipole moment        0.00000000    -0.00000000     0.00000000
 Dipole moment /Debye                   0.00000000    -0.00000000     0.00000000

 State-averaged charge density matrix saved on record  2140.2 (density set 1)

 !MCSCF trans         <2.1|DMY|1.1>    -0.085929924631 au =    -0.218397777843 Debye
 !MCSCF trans         <3.1|DMY|2.1>    -0.129438488186 au =    -0.328978272804 Debye

 !MCSCF trans         <2.1|DMZ|1.1>    -1.508375971803 au =    -3.833658202415 Debye
 !MCSCF trans         <3.1|DMZ|2.1>    -2.272106093951 au =    -5.774739406263 Debye


 NATURAL ORBITALS (state averaged)
 =================================

  Orbital  Occupation    Energy     Coefficients
    1.1     2.00000   -11.24391     1 1s    0.70421     2 1s    0.70421
    2.1     2.00000   -11.24260     1 1s    0.70450     2 1s   -0.70450
    3.1     2.00000    -1.04221     1 1s    0.30928     2 1s    0.30928
    4.1     2.00000    -0.79632     1 1s    0.29009     2 1s   -0.29009
    5.1     2.00000    -0.64887     1 2py   0.32596     2 2py   0.32596
    6.1     2.00000    -0.60518     1 2pz   0.38593     2 2pz  -0.38593
    7.1     2.00000    -0.49415     1 2py   0.29705     2 2py  -0.29705
    8.1     1.00000     0.03304     1 2px   0.38070     1 2px   0.68499     2 2px  -0.38070     2 2px  -0.68499
    9.1     1.00000    -0.22595     1 2px   0.35791     1 2px   0.31951     2 2px   0.35791     2 2px   0.31951
   10.1    -0.00000     0.26160     1 1s   -1.44802     1 2pz  -0.62707     2 1s   -1.44802     2 2pz   0.62707     3 1s    0.92754
                                    4 1s    1.10211     5 1s    1.10211     6 1s    0.92754
   11.1    -0.00000     0.27407     1 1s   -0.71327     1 2py  -0.66126     2 1s    0.71327     2 2py  -0.66126     3 1s    1.39336
                                    4 1s   -0.48141     5 1s    0.48141     6 1s   -1.39336
   12.1    -0.00000     0.31046     1 1s   -1.79603     1 2py   0.49271     2 1s    1.79603     2 2py   0.49271     3 1s    0.38632
                                    4 1s    1.51879     5 1s   -1.51879     6 1s   -0.38632
   13.1    -0.00000     0.37470     1 1s   -0.31052     1 2py  -1.72551     2 1s   -0.31052     2 2py   1.72551     3 1s    1.70000
                                    4 1s   -1.31251     5 1s   -1.31251     6 1s    1.70000
   14.1    -0.00000     0.48507     1 1s   -3.02217     1 2pz   2.97541     2 1s    3.02217     2 2pz   2.97541     3 1s   -0.86837
                                    4 1s   -0.35336     5 1s    0.35336     6 1s    0.86837
   15.1    -0.00000     0.66540     1 2pz  -0.52596     1 2pz   0.99014     2 2pz   0.52596     2 2pz  -0.99014     3 1s   -0.29722
                                    6 1s   -0.29722
   16.1    -0.00000     0.75305     1 1s   -0.50971     1 2py  -0.38431     1 2py   0.74777     1 2pz   0.80139     2 1s    0.50971
                                    2 2py  -0.38431     2 2py   0.74777     2 2pz   0.80139     3 1s   -0.48717     6 1s    0.48717
   17.1    -0.00000     0.77051     1 2px  -0.74749     1 2px   0.63440     2 2px  -0.74749     2 2px   0.63440
   18.1    -0.00000     0.85769     1 1s   -0.87296     1 1s    1.40012     1 2py  -0.34179     1 2pz   0.30472     2 1s   -0.87296
                                    2 1s    1.40012     2 2py   0.34179     2 2pz  -0.30472     3 1s   -0.41455     4 1s   -0.38315
                                    4 1s   -0.36939     5 1s   -0.38315     5 1s   -0.36939     6 1s   -0.41455
   19.1    -0.00000     0.87162     1 2px  -0.80256     1 2px   1.10374     2 2px   0.80256     2 2px  -1.10374
   20.1    -0.00000     0.95002     1 1s   -0.72367     1 2py  -0.29303     1 2pz   0.56546     1 2py   0.63593     1 2pz  -0.38881
                                    2 1s    0.72367     2 2py  -0.29303     2 2pz   0.56546     2 2py   0.63593     2 2pz  -0.38881
                                    3 1s    0.30403     3 1s   -0.27814     4 1s    0.39279     4 1s    0.45010     5 1s   -0.39279
                                    5 1s   -0.45010     6 1s   -0.30403     6 1s    0.27814
   21.1    -0.00000     1.10555     1 1s   -0.58174     1 2py   0.61948     1 2py  -0.94587     2 1s    0.58174     2 2py   0.61948
                                    2 2py  -0.94587     3 1s    0.81517     4 1s    0.56642     4 1s   -1.13894     5 1s   -0.56642
                                    5 1s    1.13894     6 1s   -0.81517
   22.1    -0.00000     1.12963     1 1s   -0.60054     1 2py   0.88827     1 2py  -2.72818     1 2pz  -0.54568     2 1s   -0.60054
                                    2 2py  -0.88827     2 2py   2.72818     2 2pz   0.54568     3 1s    1.67329     4 1s   -1.15940
                                    5 1s   -1.15940     6 1s    1.67329
   23.1    -0.00000     1.20256     1 1s    1.03247     1 1s   -1.71749     1 2pz   0.36203     1 2pz  -0.49117     2 1s    1.03247
                                    2 1s   -1.71749     2 2pz  -0.36203     2 2pz   0.49117     3 1s   -0.42425     3 1s    0.81494
                                    4 1s   -0.44991     4 1s    0.90932     5 1s   -0.44991     5 1s    0.90932     6 1s   -0.42425
                                    6 1s    0.81494
   24.1    -0.00000     1.21261     1 1s   -0.46978     1 1s    0.33650     1 2pz  -0.65378     1 2pz   1.29484     2 1s    0.46978
                                    2 1s   -0.33650     2 2pz  -0.65378     2 2pz   1.29484     3 1s    0.52095     3 1s   -1.11383
                                    4 1s    0.38962     4 1s   -0.76856     5 1s   -0.38962     5 1s    0.76856     6 1s   -0.52095
                                    6 1s    1.11383
   25.1    -0.00000     1.31726     1 1s   -1.60322     1 1s    5.45717     1 2py  -0.44082     1 2pz  -1.95939     2 1s    1.60322
                                    2 1s   -5.45717     2 2py  -0.44082     2 2pz  -1.95939     4 1s   -0.59067     5 1s    0.59067
   26.1    -0.00000     1.42751     1 1s    0.43015     1 2py   2.16319     1 2pz   0.57326     2 1s    0.43015     2 2py  -2.16319
                                    2 2pz  -0.57326     3 1s   -0.73335     3 1s   -0.73129     4 1s    0.61493     4 1s    0.28662
                                    5 1s    0.61493     5 1s    0.28662     6 1s   -0.73335     6 1s   -0.73129
   27.1    -0.00000     1.71135     1 3d1+  0.61746     2 3d1+ -0.61746
   28.1    -0.00000     1.80957     1 3d2-  0.68072     2 3d2-  0.68072
   29.1    -0.00000     2.10565     1 3d2-  0.73424     2 3d2- -0.73424
   30.1    -0.00000     2.21250     1 1s    0.26029     1 1s   -0.51248     1 2py   0.57983     1 3d2+  0.69985     2 1s    0.26029
                                    2 1s   -0.51248     2 2py  -0.57983     2 3d2+  0.69985     4 1s    0.49769     4 1s    0.25414
                                    5 1s    0.49769     5 1s    0.25414
   31.1    -0.00000     2.25586     1 1s   -0.67832     1 2py   0.26100     1 2pz   0.54782     1 3d1-  0.64790     2 1s    0.67832
                                    2 2py   0.26100     2 2pz   0.54782     2 3d1- -0.64790     3 1s   -0.60097     4 1s    0.35047
                                    5 1s   -0.35047     6 1s    0.60097
   32.1    -0.00000     2.40552     1 1s   -0.47691     1 2pz   0.27673     1 2pz  -0.42192     1 3d0   0.68536     2 1s   -0.47691
                                    2 2pz  -0.27673     2 2pz   0.42192     2 3d0   0.68536     4 1s    0.29059     5 1s    0.29059
   33.1    -0.00000     2.60758     1 1s    0.29486     1 1s   -1.59063     1 2pz   0.46303     1 3d2+  0.77808     2 1s   -0.29486
                                    2 1s    1.59063     2 2pz   0.46303     2 3d2+ -0.77808     4 1s    0.59641     5 1s   -0.59641
   34.1    -0.00000     2.68119     1 2px  -0.26510     1 3d1+  0.90055     2 2px   0.26510     2 3d1+  0.90055
   35.1    -0.00000     3.01816     1 2py   0.36298     1 3d1-  0.95941     2 2py  -0.36298     2 3d1-  0.95941     3 1s   -0.54354
                                    4 1s    0.32815     5 1s    0.32815     6 1s   -0.54354
   36.1    -0.00000     3.06448     1 1s    0.31493     1 1s    1.96181     1 2pz  -0.76630     1 2pz  -1.15377     1 3d0   1.10513
                                    2 1s   -0.31493     2 1s   -1.96181     2 2pz  -0.76630     2 2pz  -1.15377     2 3d0  -1.10513


 Natural orbital dump (state averaged) at molpro section  2140.2    (Orbital set 2)



 **********************************************************************************************************************************
 DATASETS  * FILE   NREC   LENGTH (MB)   RECORD NAMES
              1      20       31.45       500      610      700      900      950      970     1000      129      960     1100   
                                          VAR    BASINP    GEOM    SYMINP    ZMAT    AOBASIS   BASIS     P2S    ABASIS      S 
                                         1400     1410     1200     1210     1080     1600     1650     1300     1700     1380   
                                           T        V       H0       H01     AOSYM     SMH    MOLCAS    ERIS     OPER     JKOP   

              2       5        5.42       700     1000      520     2100     2140   
                                         GEOM     BASIS   MCVARS     RHF     MCSCF   

 PROGRAMS   *        TOTAL     MULTI    HF-SCF       INT
 CPU TIMES  *         0.64      0.17      0.11      0.26
 REAL TIME  *         0.94 SEC
 DISK USED  *        38.63 MB
 **********************************************************************************************************************************
 Molecular orbitals read from record     2140.2  Type=MCSCF/NATURAL (state averaged)
 Occupation numbers read from record     2140.2  Type=MCSCF/NATURAL (state averaged)
 Orbital energies read from record       2140.2  Type=MCSCF/NATURAL (state averaged)
 Redundancy group numbers read from rec  2140.2  Type=MCSCF/NATURAL (state averaged)

 MULTI/6-31G* energy=    -77.474211111070

           MULTI          HF-SCF
    -77.47421111    -78.01852389
 **********************************************************************************************************************************
 Molpro calculation terminated
