
 Primary working directories    : /scratch.local/johan406.molpro_temp/molpro.uxsBPYadv7
 Secondary working directories  : /scratch.local/johan406.molpro_temp/molpro.uxsBPYadv7
 Wavefunction directory         : /home/goodpast/johan406/wfu/
 Main file repository           : /scratch.local/johan406.molpro_temp/molpro.uxsBPYadv7/

 id        : roweumn

 Nodes     nprocs
 cn0117       1

 Using customized tuning parameters: mindgm=1; mindgv=20; mindgc=4; mindgr=1; noblas=0; minvec=7
 default implementation of scratch files=df  


 Variables initialized (934), CPU time= 0.00 sec
                                                                                 !leave this line blank
 
 gprint, orbitals=30
 memory, 125., m
 symmetry, nosym
 nelect=16
 basis=6-31g*
 
 geometry={
 C 0.0 0.0408 0.6691
 C 0.0 -0.0408 -0.6691
 H 0.0 0.8768 1.3626
 H -0.0 -0.953 1.1069
 H 0.0 0.953 -1.1069
 H 0.0 -0.8768 -1.3626
 }
 
 hf
 {multi,
 closed 7
 occ 9
 wf,spin=0;STATE,3
 }
 
 Commands  initialized (763), CPU time= 0.01 sec, 617 directives.
 Default parameters read. Elapsed time= 0.08 sec

 Checking input...
 Passed
1


                                         ***  PROGRAM SYSTEM MOLPRO  ***
                                       Copyright, TTI GmbH Stuttgart, 2015
                                    Version 2019.2 linked Oct 25 2019 22:50:27


 **********************************************************************************************************************************
 LABEL *                                                                                 
  64 bit serial version                                                                  DATE: 26-Jan-23          TIME: 20:08:22  
 **********************************************************************************************************************************

 SHA1:             8dbd9ae1082e4ce945b0f27595c9eb2d4aa09004
 **********************************************************************************************************************************


 Variable memory set to  125000000 words,  buffer space 

 SETTING NELECT         =        16.00000000                                  
 SETTING BASIS          =    6-31G*
 ZSYMEL=NOSYM


Geometry recognized as XYZ



 Recomputing integrals since basis changed


 Using spherical harmonics

 Library entry C      S 6-31G                selected for orbital group  1
 Library entry C      P 6-31G                selected for orbital group  1
 Library entry C      D 6-31G*               selected for orbital group  1
 Library entry H      S 6-31G                selected for orbital group  2


 PROGRAM * SEWARD (Integral evaluation for generally contracted gaussian basis sets)     Author: Roland Lindh, 1990

 Geometry written to block  1 of record 700


 Point group  C1  



 ATOMIC COORDINATES

 NR  ATOM    CHARGE       X              Y              Z

   1  C       6.00    0.000000000    0.077100826    1.264415750
   2  C       6.00    0.000000000   -0.077100826   -1.264415750
   3  H       1.00    0.000000000    1.656911866    2.574940817
   4  H       1.00    0.000000000   -1.800908997    2.091737847
   5  H       1.00    0.000000000    1.800908997   -2.091737847
   6  H       1.00    0.000000000   -1.656911866   -2.574940817

 Bond lengths in Bohr (Angstrom)

 1-2  2.533528548  1-3  2.052627310  1-4  2.052165380  2-5  2.052165380  2-6  2.052627310
     ( 1.340685571)     ( 1.086203595)     ( 1.085959152)     ( 1.085959152)     ( 1.086203595)

 Bond angles

  1-2-5  110.28556399   1-2-6  133.16667824   2-1-3  133.16667824   2-1-4  110.28556399

  3-1-4  116.54775777   5-2-6  116.54775777

 NUCLEAR CHARGE:                   16
 NUMBER OF PRIMITIVE AOS:          72
 NUMBER OF SYMMETRY AOS:           70
 NUMBER OF CONTRACTIONS:           36   (   36A   )
 NUMBER OF CORE ORBITALS:           2   (    2A   )
 NUMBER OF VALENCE ORBITALS:       12   (   12A   )


 NUCLEAR REPULSION ENERGY   33.27771963

 EXTRA SYMMETRY OF AOS IN SYMMETRY 1:   1 1 1 2 1 1 2 1 1 1   2 2 1 1 1 1 1 2 1 1   2 1 1 1 2 2 1 1 1 1   1 1 1 1 1 1

 Eigenvalues of metric

         1 0.769E-02 0.196E-01 0.401E-01 0.464E-01 0.719E-01 0.195E+00 0.215E+00 0.229E+00


 Contracted 2-electron integrals neglected if value below      1.0D-11
 AO integral compression algorithm  1   Integral accuracy      1.0D-11

     1.049 MB (compressed) written to integral file ( 36.8%)


 NUMBER OF SORTED TWO-ELECTRON INTEGRALS:     222111.     BUFFER LENGTH:  32768
 NUMBER OF SEGMENTS:   1  SEGMENT LENGTH:     222111      RECORD LENGTH: 524288

 Memory used in sort:       0.78 MW

 SORT1 READ      284735. AND WROTE      118725. INTEGRALS IN      1 RECORDS. CPU TIME:     0.00 SEC, REAL TIME:     0.00 SEC
 SORT2 READ      118725. AND WROTE      222111. INTEGRALS IN      4 RECORDS. CPU TIME:     0.03 SEC, REAL TIME:     0.03 SEC

 FILE SIZES:   FILE 1:    31.1 MBYTE,  FILE 4:     4.2 MBYTE,   TOTAL:     35.4 MBYTE

 OPERATOR DM      FOR CENTER  0  COORDINATES:    0.000000    0.000000    0.000000


 **********************************************************************************************************************************
 DATASETS  * FILE   NREC   LENGTH (MB)   RECORD NAMES
              1      19       30.72       500      610      700      900      950      970     1000      129      960     1100   
                                          VAR    BASINP    GEOM    SYMINP    ZMAT    AOBASIS   BASIS     P2S    ABASIS      S 
                                         1400     1410     1200     1210     1080     1600     1650     1300     1700   
                                           T        V       H0       H01     AOSYM     SMH    MOLCAS    ERIS     OPER   

 PROGRAMS   *        TOTAL       INT
 CPU TIMES  *         0.34      0.24
 REAL TIME  *         0.58 SEC
 DISK USED  *        35.71 MB
 **********************************************************************************************************************************


 PROGRAM * RHF-SCF (CLOSED SHELL)       Authors: W. Meyer, H.-J. Werner


 NUMBER OF ELECTRONS:       8+    8-    SPACE SYMMETRY=1    SPIN SYMMETRY: Singlet 
 CONVERGENCE THRESHOLDS:    1.00E-05 (Density)    1.00E-07 (Energy)
 MAX. NUMBER OF ITERATIONS:       60
 INTERPOLATION TYPE:            DIIS
 INTERPOLATION STEPS:              2 (START)      1 (STEP)
 LEVEL SHIFTS:                  0.00 (CLOSED)  0.00 (OPEN) 



 Orbital guess generated from atomic densities. Full valence occupancy:    8

 Molecular orbital dump at record        2100.2

 Initial occupancy:   8

 ITERATION    DDIFF          GRAD             ENERGY        2-EL.EN.            DIPOLE MOMENTS         DIIS   ORB.
    1      0.000D+00      0.000D+00       -77.99340535    118.453383    0.00000    0.00000   -0.00000    0    start
    2      0.000D+00      0.844D-02       -78.01461765    116.644801    0.00000   -0.00000   -0.00000    1    diag
    3      0.820D-02      0.288D-02       -78.01670236    117.270747   -0.00000    0.00000    0.00000    2    diag
    4      0.262D-02      0.709D-03       -78.01691395    117.170800   -0.00000   -0.00000   -0.00000    3    diag
    5      0.108D-02      0.737D-04       -78.01691659    117.173774   -0.00000    0.00000   -0.00000    4    diag
    6      0.164D-03      0.934D-05       -78.01691663    117.173269   -0.00000   -0.00000   -0.00000    5    diag
    7      0.191D-04      0.157D-05       -78.01691663    117.173273   -0.00000    0.00000    0.00000    6    diag
    8      0.274D-05      0.210D-06       -78.01691663    117.173266   -0.00000    0.00000   -0.00000    0    orth

 Final occupancy:   8

 !RHF STATE  1.1 Energy               -78.016916634415
 Nuclear energy                        33.27771963
 One-electron energy                 -169.88126939
 Two-electron energy                   58.58663312
 Virial quotient                       -1.00076411
 !RHF STATE  1.1 Dipole moment         -0.00000000     0.00000000    -0.00000000
 Dipole moment /Debye                  -0.00000000     0.00000000    -0.00000000

 ELECTRON ORBITALS
 =================

  Orbital  Occupation    Energy     Coefficients
    1.1     2.00000   -11.22890     1 1s    0.70419     2 1s    0.70419
    2.1     2.00000   -11.22733     1 1s    0.70454     2 1s   -0.70454
    3.1     2.00000    -1.02739     1 1s    0.30127     2 1s    0.30127
    4.1     2.00000    -0.78824     1 1s    0.24456
    5.1     2.00000    -0.63556     1 2py   0.32031     2 2py   0.32031
    6.1     2.00000    -0.59343     1 2pz   0.37745     2 2pz  -0.37745
    7.1     2.00000    -0.48320     1 2py   0.28614     2 2py  -0.28614
    8.1     2.00000    -0.36993     1 2px   0.37339     1 2px   0.30805     2 2px   0.37339     2 2px   0.30805
    9.1     0.00000     0.17777     1 2px   0.34293     1 2px   0.73162     2 2px  -0.34293     2 2px  -0.73162
   10.1     0.00000     0.26423     1 1s   -1.45286     1 2pz  -0.62263     2 1s   -1.45286     2 2pz   0.62263     3 1s    0.95307
                                    4 1s    1.07900     5 1s    1.07900     6 1s    0.95307
   11.1     0.00000     0.27944     1 1s   -0.81673     1 2py  -0.62623     1 2pz  -0.25416     2 1s    0.81673     2 2py  -0.62623
                                    2 2pz  -0.25416     3 1s    1.42990     4 1s   -0.36263     5 1s    0.36263     6 1s   -1.42990
   12.1     0.00000     0.31595     1 1s   -1.71606     1 2py   0.55745     2 1s    1.71606     2 2py   0.55745     3 1s    0.27146
                                    4 1s    1.56281     5 1s   -1.56281     6 1s   -0.27146
   13.1     0.00000     0.37768     1 1s   -0.29296     1 2py  -1.72794     2 1s   -0.29296     2 2py   1.72794     3 1s    1.68535
                                    4 1s   -1.31931     5 1s   -1.31931     6 1s    1.68535
   14.1     0.00000     0.48814     1 1s   -3.06420     1 2pz   3.00464     2 1s    3.06420     2 2pz   3.00464     3 1s   -0.86821
                                    4 1s   -0.33405     5 1s    0.33405     6 1s    0.86821
   15.1     0.00000     0.67704     1 2pz  -0.53077     1 2pz   1.00425     2 2pz   0.53077     2 2pz  -1.00425     3 1s   -0.31593
                                    6 1s   -0.31593
   16.1     0.00000     0.76174     1 1s   -0.47034     1 2py  -0.36903     1 2py   0.72949     1 2pz   0.80481     2 1s    0.47034
                                    2 2py  -0.36903     2 2py   0.72949     2 2pz   0.80481     3 1s   -0.49859     6 1s    0.49859
   17.1     0.00000     0.77634     1 2px  -0.74086     1 2px   0.63973     2 2px  -0.74086     2 2px   0.63973
   18.1     0.00000     0.86065     1 1s   -0.87749     1 1s    1.37339     1 2py  -0.31482     1 2pz   0.25886     2 1s   -0.87749
                                    2 1s    1.37339     2 2py   0.31482     2 2pz  -0.25886     3 1s   -0.41951     4 1s   -0.37651
                                    4 1s   -0.35614     5 1s   -0.37651     5 1s   -0.35614     6 1s   -0.41951
   19.1     0.00000     0.88895     1 2px  -0.81811     1 2px   1.07336     2 2px   0.81811     2 2px  -1.07336
   20.1     0.00000     0.97062     1 1s   -0.85312     1 2py  -0.32299     1 2pz   0.55267     1 2py   0.69678     1 2pz  -0.29297
                                    2 1s    0.85312     2 2py  -0.32299     2 2pz   0.55267     2 2py   0.69678     2 2pz  -0.29297
                                    3 1s    0.30040     3 1s   -0.31438     4 1s    0.38354     4 1s    0.49314     5 1s   -0.38354
                                    5 1s   -0.49314     6 1s   -0.30040     6 1s    0.31438
   21.1     0.00000     1.12224     1 1s   -0.66644     1 2py   0.61761     1 2py  -0.91079     1 2pz   0.28768     2 1s    0.66644
                                    2 2py   0.61761     2 2py  -0.91079     2 2pz   0.28768     3 1s    0.77278     4 1s    0.58648
                                    4 1s   -1.12316     5 1s   -0.58648     5 1s    1.12316     6 1s   -0.77278
   22.1     0.00000     1.13924     1 1s   -0.67707     1 2py   0.88493     1 2py  -2.69543     1 2pz  -0.58738     2 1s   -0.67707
                                    2 2py  -0.88493     2 2py   2.69543     2 2pz   0.58738     3 1s    1.69194     4 1s   -1.09946
                                    5 1s   -1.09946     6 1s    1.69194
   23.1     0.00000     1.20473     1 1s    1.03351     1 1s   -1.70098     1 2pz   0.35238     1 2pz  -0.46640     2 1s    1.03351
                                    2 1s   -1.70098     2 2pz  -0.35238     2 2pz   0.46640     3 1s   -0.41670     3 1s    0.75753
                                    4 1s   -0.45626     4 1s    0.94884     5 1s   -0.45626     5 1s    0.94884     6 1s   -0.41670
                                    6 1s    0.75753
   24.1     0.00000     1.21393     1 1s   -0.53236     1 1s    0.55748     1 2pz  -0.64429     1 2pz   1.21110     2 1s    0.53236
                                    2 1s   -0.55748     2 2pz  -0.64429     2 2pz   1.21110     3 1s    0.52058     3 1s   -1.12860
                                    4 1s    0.37623     4 1s   -0.77307     5 1s   -0.37623     5 1s    0.77307     6 1s   -0.52058
                                    6 1s    1.12860
   25.1     0.00000     1.33694     1 1s   -1.58093     1 1s    5.43262     1 2pz   0.26864     1 2py  -0.47054     1 2pz  -2.02029
                                    2 1s    1.58093     2 1s   -5.43262     2 2pz   0.26864     2 2py  -0.47054     2 2pz  -2.02029
                                    4 1s   -0.57012     5 1s    0.57012
   26.1     0.00000     1.43151     1 1s    0.44281     1 2py   2.11867     1 2pz   0.59846     2 1s    0.44281     2 2py  -2.11867
                                    2 2pz  -0.59846     3 1s   -0.73374     3 1s   -0.72149     4 1s    0.61140     4 1s    0.25996
                                    5 1s    0.61140     5 1s    0.25996     6 1s   -0.73374     6 1s   -0.72149
   27.1     0.00000     1.73660     1 3d1+  0.61758     2 3d1+ -0.61758
   28.1     0.00000     1.82337     1 3d2-  0.68064     2 3d2-  0.68064
   29.1     0.00000     2.12858     1 3d2-  0.73401     2 3d2- -0.73401
   30.1     0.00000     2.23005     1 1s    0.26899     1 1s   -0.50666     1 2py   0.60348     1 3d2+  0.69884     2 1s    0.26899
                                    2 1s   -0.50666     2 2py  -0.60348     2 3d2+  0.69884     4 1s    0.50097     4 1s    0.25850
                                    5 1s    0.50097     5 1s    0.25850
   31.1     0.00000     2.26550     1 1s   -0.72280     1 2py   0.25167     1 2pz   0.57856     1 3d1-  0.64657     2 1s    0.72280
                                    2 2py   0.25167     2 2pz   0.57856     2 3d1- -0.64657     3 1s   -0.59577     4 1s    0.34138
                                    5 1s   -0.34138     6 1s    0.59577
   32.1     0.00000     2.42731     1 1s   -0.47575     1 2pz   0.27010     1 2pz  -0.41548     1 3d0   0.68552     2 1s   -0.47575
                                    2 2pz  -0.27010     2 2pz   0.41548     2 3d0   0.68552     4 1s    0.29720     5 1s    0.29720
   33.1     0.00000     2.62594     1 1s    0.29443     1 1s   -1.60184     1 2pz   0.47979     1 3d2+  0.77781     2 1s   -0.29443
                                    2 1s    1.60184     2 2pz   0.47979     2 3d2+ -0.77781     4 1s    0.59598     5 1s   -0.59598
   34.1     0.00000     2.70301     1 2px  -0.26432     1 3d1+  0.89984     2 2px   0.26432     2 3d1+  0.89984
   35.1     0.00000     3.02743     1 2py   0.34080     1 3d1-  0.95827     2 2py  -0.34080     2 3d1-  0.95827     3 1s   -0.54204
                                    4 1s    0.31377     5 1s    0.31377     6 1s   -0.54204
   36.1     0.00000     3.08437     1 1s    0.32177     1 1s    1.93078     1 2pz  -0.77109     1 2pz  -1.13754     1 3d0   1.10275
                                    2 1s   -0.32177     2 1s   -1.93078     2 2pz  -0.77109     2 2pz  -1.13754     2 3d0  -1.10275


 HOMO      8.1    -0.369934 =     -10.0664eV
 LUMO      9.1     0.177766 =       4.8373eV
 LUMO-HOMO         0.547701 =      14.9037eV


 **********************************************************************************************************************************
 DATASETS  * FILE   NREC   LENGTH (MB)   RECORD NAMES
              1      19       30.72       500      610      700      900      950      970     1000      129      960     1100   
                                          VAR    BASINP    GEOM    SYMINP    ZMAT    AOBASIS   BASIS     P2S    ABASIS      S 
                                         1400     1410     1200     1210     1080     1600     1650     1300     1700   
                                           T        V       H0       H01     AOSYM     SMH    MOLCAS    ERIS     OPER   

              2       4        2.86       700     1000      520     2100   
                                         GEOM     BASIS   MCVARS     RHF  

 PROGRAMS   *        TOTAL    HF-SCF       INT
 CPU TIMES  *         0.45      0.11      0.24
 REAL TIME  *         0.72 SEC
 DISK USED  *        35.71 MB
 **********************************************************************************************************************************


 PROGRAM * MULTI (Direct Multiconfiguration SCF)       Authors: P.J. Knowles, H.-J. Werner (1984)


 Number of closed-shell orbitals:   7 (   7 )
 Number of active  orbitals:        2 (   2 )
 Number of external orbitals:      27 (  27 )

 State symmetry 1

 Number of electrons:     2    Spin symmetry=Singlet   Space symmetry=1
 Number of states:        3
 Number of CSFs:          3   (4 determinants, 4 intermediate states)

 Molecular orbitals read from record     2100.2  Type=RHF/CANONICAL (state 1.1)

 EXTRA SYMMETRY OF MOS IN SYMMETRY 1:   1 1 1 1 1 1 1 2 2 1   1 1 1 1 1 1 2 1 2 1   1 1 1 1 1 1 2 2 2 1   1 1 1 2 1 1

 Wavefunction dump at record             2140.2

 Convergence thresholds  0.10E-01 (gradient)  0.10E-05 (energy)  0.10E-02 (step length)

 Weight factors for state symmetry  1:    0.33333   0.33333   0.33333

 Number of orbital rotations:      257   (    14 Core/Active    189 Core/Virtual   0 Active/Active     54 Active/Virtual)
 Total number of variables:        269

 Micro-Iterations solved by the two-step solver

 ITER. MIC  NCI  NEG     ENERGY(VAR)     ENERGY(PROJ)   ENERGY CHANGE     GRAD(0)  GRAD(ORB)   GRAD(CI)     STEP       TIME

   1    3    3    0     -77.71581058     -77.72203636   -0.00622578    0.13214491 0.00000154 0.00000000  0.63D-01      0.07
   2    2    3    0     -77.72193871     -77.72194245   -0.00000374    0.00302945 0.00000185 0.00000000  0.16D-02      0.10
   3    2    3    0     -77.72194245     -77.72194245   -0.00000000    0.00000216 0.00000000 0.00000000  0.13D-05      0.14

 ** WVFN ****  CONVERGENCE REACHED, FINAL GRADIENT:  0.13D-11



 Results for state 1.1
 =====================

 !MCSCF STATE  1.1 Energy             -78.034673918427
 Nuclear energy                        33.27771963
 Kinetic energy                        78.02592678
 One electron energy                 -170.01216495
 Two electron energy                   58.69977140
 Virial ratio                           2.00011211

 !MCSCF STATE  1.1 Dipole moment        0.00000000     0.00000000     0.00000000
 Dipole moment /Debye                   0.00000000     0.00000000     0.00000000

 Results for state 2.1
 =====================

 !MCSCF STATE  2.1 Energy             -77.658526627002
 Nuclear energy                        33.27771963
 Kinetic energy                        78.20782155
 One electron energy                 -169.44240979
 Two electron energy                   58.50616353
 Virial ratio                           1.99297647

 !MCSCF STATE  2.1 Dipole moment        0.00000000     0.00000000    -0.00000000
 Dipole moment /Debye                   0.00000000     0.00000000    -0.00000000

 Results for state 3.1
 =====================

 !MCSCF STATE  3.1 Energy             -77.472626809500
 Nuclear energy                        33.27771963
 Kinetic energy                        78.38971633
 One electron energy                 -168.87265462
 Two electron energy                   58.12230818
 Virial ratio                           1.98830090

 !MCSCF STATE  3.1 Dipole moment        0.00000000     0.00000000     0.00000000
 Dipole moment /Debye                   0.00000000     0.00000000     0.00000000

 State-averaged charge density matrix saved on record  2140.2 (density set 1)

 !MCSCF trans         <2.1|DMY|1.1>    -0.091296733805 au =    -0.232037952704 Debye
 !MCSCF trans         <3.1|DMY|2.1>    -0.137536299712 au =    -0.349559508622 Debye

 !MCSCF trans         <2.1|DMZ|1.1>    -1.508108184990 au =    -3.832977600807 Debye
 !MCSCF trans         <3.1|DMZ|2.1>    -2.271928147743 au =    -5.774287141741 Debye


 NATURAL ORBITALS (state averaged)
 =================================

  Orbital  Occupation    Energy     Coefficients
    1.1     2.00000   -11.24430     1 1s    0.70421     2 1s    0.70421
    2.1     2.00000   -11.24300     1 1s    0.70450     2 1s   -0.70450
    3.1     2.00000    -1.04229     1 1s    0.30917     2 1s    0.30917
    4.1     2.00000    -0.79585     1 1s    0.29044     2 1s   -0.29044
    5.1     2.00000    -0.64855     1 2py   0.32577     2 2py   0.32577
    6.1     2.00000    -0.60589     1 2pz   0.38393     2 2pz  -0.38393
    7.1     2.00000    -0.49203     1 2py   0.29579     2 2py  -0.29579
    8.1     1.00000     0.03296     1 2px   0.38079     1 2px   0.68474     2 2px  -0.38079     2 2px  -0.68474
    9.1     1.00000    -0.22602     1 2px   0.35791     1 2px   0.31953     2 2px   0.35791     2 2px   0.31953
   10.1    -0.00000     0.26131     1 1s   -1.44226     1 2pz  -0.62376     2 1s   -1.44226     2 2pz   0.62376     3 1s    0.91907
                                    4 1s    1.10383     5 1s    1.10383     6 1s    0.91907
   11.1    -0.00000     0.27274     1 1s   -0.72538     1 2py  -0.65205     2 1s    0.72538     2 2py  -0.65205     3 1s    1.39375
                                    4 1s   -0.46090     5 1s    0.46090     6 1s   -1.39375
   12.1    -0.00000     0.31077     1 1s   -1.78680     1 2py   0.50969     2 1s    1.78680     2 2py   0.50969     3 1s    0.36260
                                    4 1s    1.52818     5 1s   -1.52818     6 1s   -0.36260
   13.1    -0.00000     0.37322     1 1s   -0.32868     1 2py  -1.70879     2 1s   -0.32868     2 2py   1.70879     3 1s    1.69752
                                    4 1s   -1.28740     5 1s   -1.28740     6 1s    1.69752
   14.1    -0.00000     0.48472     1 1s   -3.02933     1 2pz   2.98033     2 1s    3.02933     2 2pz   2.98033     3 1s   -0.88580
                                    4 1s   -0.33815     5 1s    0.33815     6 1s    0.88580
   15.1    -0.00000     0.66629     1 2pz  -0.52351     1 2pz   0.98718     2 2pz   0.52351     2 2pz  -0.98718     3 1s   -0.30852
                                    6 1s   -0.30852
   16.1    -0.00000     0.75334     1 1s   -0.54112     1 2py  -0.38141     1 2py   0.74482     1 2pz   0.84850     2 1s    0.54112
                                    2 2py  -0.38141     2 2py   0.74482     2 2pz   0.84850     3 1s   -0.49165     6 1s    0.49165
   17.1    -0.00000     0.77042     1 2px  -0.74753     1 2px   0.63442     2 2px  -0.74753     2 2px   0.63442
   18.1    -0.00000     0.85744     1 1s   -0.87185     1 1s    1.38929     1 2py  -0.35952     1 2pz   0.29501     2 1s   -0.87185
                                    2 1s    1.38929     2 2py   0.35952     2 2pz  -0.29501     3 1s   -0.41598     4 1s   -0.38215
                                    4 1s   -0.37367     5 1s   -0.38215     5 1s   -0.37367     6 1s   -0.41598
   19.1    -0.00000     0.87146     1 2px  -0.80251     1 2px   1.10367     2 2px   0.80251     2 2px  -1.10367
   20.1    -0.00000     0.95160     1 1s   -0.72227     1 2py  -0.31127     1 2pz   0.56017     1 2py   0.67458     1 2pz  -0.37046
                                    2 1s    0.72227     2 2py  -0.31127     2 2pz   0.56017     2 2py   0.67458     2 2pz  -0.37046
                                    3 1s    0.29907     3 1s   -0.30218     4 1s    0.38834     4 1s    0.47499     5 1s   -0.38834
                                    5 1s   -0.47499     6 1s   -0.29907     6 1s    0.30218
   21.1    -0.00000     1.10629     1 1s   -0.61679     1 2py   0.61124     1 2py  -0.92409     1 2pz   0.26872     2 1s    0.61679
                                    2 2py   0.61124     2 2py  -0.92409     2 2pz   0.26872     3 1s    0.78856     4 1s    0.57999
                                    4 1s   -1.13832     5 1s   -0.57999     5 1s    1.13832     6 1s   -0.78856
   22.1    -0.00000     1.12745     1 1s   -0.62821     1 2py   0.88441     1 2py  -2.70164     1 2pz  -0.57330     2 1s   -0.62821
                                    2 2py  -0.88441     2 2py   2.70164     2 2pz   0.57330     3 1s    1.67227     4 1s   -1.13644
                                    5 1s   -1.13644     6 1s    1.67227
   23.1    -0.00000     1.20119     1 1s    1.03300     1 1s   -1.71827     1 2pz   0.36139     1 2pz  -0.49109     2 1s    1.03300
                                    2 1s   -1.71827     2 2pz  -0.36139     2 2pz   0.49109     3 1s   -0.42379     3 1s    0.81613
                                    4 1s   -0.44929     4 1s    0.90829     5 1s   -0.44929     5 1s    0.90829     6 1s   -0.42379
                                    6 1s    0.81613
   24.1    -0.00000     1.21165     1 1s   -0.47047     1 1s    0.34404     1 2pz  -0.65575     1 2pz   1.29173     2 1s    0.47047
                                    2 1s   -0.34404     2 2pz  -0.65575     2 2pz   1.29173     3 1s    0.52371     3 1s   -1.12306
                                    4 1s    0.38163     4 1s   -0.75439     5 1s   -0.38163     5 1s    0.75439     6 1s   -0.52371
                                    6 1s    1.12306
   25.1    -0.00000     1.31707     1 1s   -1.60203     1 1s    5.46375     1 2py  -0.46765     1 2pz  -1.97242     2 1s    1.60203
                                    2 1s   -5.46375     2 2py  -0.46765     2 2pz  -1.97242     4 1s   -0.60164     5 1s    0.60164
   26.1    -0.00000     1.42342     1 1s    0.44996     1 2py   2.12343     1 2pz   0.60071     2 1s    0.44996     2 2py  -2.12343
                                    2 2pz  -0.60071     3 1s   -0.73326     3 1s   -0.72512     4 1s    0.61029     4 1s    0.25940
                                    5 1s    0.61029     5 1s    0.25940     6 1s   -0.73326     6 1s   -0.72512
   27.1    -0.00000     1.71108     1 3d1+  0.61730     2 3d1+ -0.61730
   28.1    -0.00000     1.80978     1 3d2-  0.68066     2 3d2-  0.68066
   29.1    -0.00000     2.10577     1 3d2-  0.73400     2 3d2- -0.73400
   30.1    -0.00000     2.21432     1 1s    0.26578     1 1s   -0.50314     1 2py   0.59922     1 3d2+  0.69825     2 1s    0.26578
                                    2 1s   -0.50314     2 2py  -0.59922     2 3d2+  0.69825     4 1s    0.50134     4 1s    0.25557
                                    5 1s    0.50134     5 1s    0.25557
   31.1    -0.00000     2.24885     1 1s   -0.72424     1 2py   0.25839     1 2pz   0.58184     1 3d1-  0.64389     2 1s    0.72424
                                    2 2py   0.25839     2 2pz   0.58184     2 3d1- -0.64389     3 1s   -0.60116     4 1s    0.34104
                                    5 1s   -0.34104     6 1s    0.60116
   32.1    -0.00000     2.40766     1 1s   -0.47342     1 2pz   0.27544     1 2pz  -0.41786     1 3d0   0.68495     2 1s   -0.47342
                                    2 2pz  -0.27544     2 2pz   0.41786     2 3d0   0.68495     4 1s    0.29870     5 1s    0.29870
   33.1    -0.00000     2.60708     1 1s    0.29557     1 1s   -1.61575     1 2pz   0.48397     1 3d2+  0.77638     2 1s   -0.29557
                                    2 1s    1.61575     2 2pz   0.48397     2 3d2+ -0.77638     4 1s    0.60088     5 1s   -0.60088
   34.1    -0.00000     2.68062     1 2px  -0.26507     1 3d1+  0.90022     2 2px   0.26507     2 3d1+  0.90022
   35.1    -0.00000     3.01426     1 2py   0.34076     1 3d1-  0.95795     2 2py  -0.34076     2 3d1-  0.95795     3 1s   -0.54450
                                    4 1s    0.31602     5 1s    0.31602     6 1s   -0.54450
   36.1    -0.00000     3.06682     1 1s    0.31540     1 1s    1.95282     1 2pz  -0.76367     1 2pz  -1.14980     1 3d0   1.10420
                                    2 1s   -0.31540     2 1s   -1.95282     2 2pz  -0.76367     2 2pz  -1.14980     2 3d0  -1.10420


 Natural orbital dump (state averaged) at molpro section  2140.2    (Orbital set 2)



 **********************************************************************************************************************************
 DATASETS  * FILE   NREC   LENGTH (MB)   RECORD NAMES
              1      20       31.45       500      610      700      900      950      970     1000      129      960     1100   
                                          VAR    BASINP    GEOM    SYMINP    ZMAT    AOBASIS   BASIS     P2S    ABASIS      S 
                                         1400     1410     1200     1210     1080     1600     1650     1300     1700     1380   
                                           T        V       H0       H01     AOSYM     SMH    MOLCAS    ERIS     OPER     JKOP   

              2       5        5.42       700     1000      520     2100     2140   
                                         GEOM     BASIS   MCVARS     RHF     MCSCF   

 PROGRAMS   *        TOTAL     MULTI    HF-SCF       INT
 CPU TIMES  *         0.63      0.18      0.11      0.24
 REAL TIME  *         0.93 SEC
 DISK USED  *        38.63 MB
 **********************************************************************************************************************************
 Molecular orbitals read from record     2140.2  Type=MCSCF/NATURAL (state averaged)
 Occupation numbers read from record     2140.2  Type=MCSCF/NATURAL (state averaged)
 Orbital energies read from record       2140.2  Type=MCSCF/NATURAL (state averaged)
 Redundancy group numbers read from rec  2140.2  Type=MCSCF/NATURAL (state averaged)

 MULTI/6-31G* energy=    -77.472626809500

           MULTI          HF-SCF
    -77.47262681    -78.01691663
 **********************************************************************************************************************************
 Molpro calculation terminated
