
 Primary working directories    : /scratch.local/johan406.molpro_temp/molpro.2v5sruKQ8D
 Secondary working directories  : /scratch.local/johan406.molpro_temp/molpro.2v5sruKQ8D
 Wavefunction directory         : /home/goodpast/johan406/wfu/
 Main file repository           : /scratch.local/johan406.molpro_temp/molpro.2v5sruKQ8D/

 id        : roweumn

 Nodes     nprocs
 cn0117       1

 Using customized tuning parameters: mindgm=1; mindgv=20; mindgc=4; mindgr=1; noblas=0; minvec=7
 default implementation of scratch files=df  


 Variables initialized (934), CPU time= 0.00 sec
                                                                                 !leave this line blank
 
 gprint, orbitals=30
 memory, 125., m
 symmetry, nosym
 nelect=16
 basis=6-31g*
 
 geometry={
 C 0.0 0.042 0.6691
 C 0.0 -0.042 -0.6691
 H 0.0 0.8757 1.3664
 H -0.0 -0.9541 1.1032
 H 0.0 0.9541 -1.1032
 H 0.0 -0.8757 -1.3664
 }
 
 hf
 {multi,
 closed 7
 occ 9
 wf,spin=0;STATE,3
 }
 
 Commands  initialized (763), CPU time= 0.01 sec, 617 directives.
 Default parameters read. Elapsed time= 0.08 sec

 Checking input...
 Passed
1


                                         ***  PROGRAM SYSTEM MOLPRO  ***
                                       Copyright, TTI GmbH Stuttgart, 2015
                                    Version 2019.2 linked Oct 25 2019 22:50:27


 **********************************************************************************************************************************
 LABEL *                                                                                 
  64 bit serial version                                                                  DATE: 26-Jan-23          TIME: 20:08:34  
 **********************************************************************************************************************************

 SHA1:             8dbd9ae1082e4ce945b0f27595c9eb2d4aa09004
 **********************************************************************************************************************************


 Variable memory set to  125000000 words,  buffer space 

 SETTING NELECT         =        16.00000000                                  
 SETTING BASIS          =    6-31G*
 ZSYMEL=NOSYM


Geometry recognized as XYZ



 Recomputing integrals since basis changed


 Using spherical harmonics

 Library entry C      S 6-31G                selected for orbital group  1
 Library entry C      P 6-31G                selected for orbital group  1
 Library entry C      D 6-31G*               selected for orbital group  1
 Library entry H      S 6-31G                selected for orbital group  2


 PROGRAM * SEWARD (Integral evaluation for generally contracted gaussian basis sets)     Author: Roland Lindh, 1990

 Geometry written to block  1 of record 700


 Point group  C1  



 ATOMIC COORDINATES

 NR  ATOM    CHARGE       X              Y              Z

   1  C       6.00    0.000000000    0.079368497    1.264415750
   2  C       6.00    0.000000000   -0.079368497   -1.264415750
   3  H       1.00    0.000000000    1.654833167    2.582121777
   4  H       1.00    0.000000000   -1.802987695    2.084745861
   5  H       1.00    0.000000000    1.802987695   -2.084745861
   6  H       1.00    0.000000000   -1.654833167   -2.582121777

 Bond lengths in Bohr (Angstrom)

 1-2  2.533808633  1-3  2.053883663  1-4  2.053340285  2-5  2.053340285  2-6  2.053883663
     ( 1.340833785)     ( 1.086868428)     ( 1.086580885)     ( 1.086580885)     ( 1.086868428)

 Bond angles

  1-2-5  109.95575948   1-2-6  133.50063503   2-1-3  133.50063503   2-1-4  109.95575948

  3-1-4  116.54360548   5-2-6  116.54360548

 NUCLEAR CHARGE:                   16
 NUMBER OF PRIMITIVE AOS:          72
 NUMBER OF SYMMETRY AOS:           70
 NUMBER OF CONTRACTIONS:           36   (   36A   )
 NUMBER OF CORE ORBITALS:           2   (    2A   )
 NUMBER OF VALENCE ORBITALS:       12   (   12A   )


 NUCLEAR REPULSION ENERGY   33.26972055

 EXTRA SYMMETRY OF AOS IN SYMMETRY 1:   1 1 1 2 1 1 2 1 1 1   2 2 1 1 1 1 1 2 1 1   2 1 1 1 2 2 1 1 1 1   1 1 1 1 1 1

 Eigenvalues of metric

         1 0.766E-02 0.198E-01 0.402E-01 0.464E-01 0.720E-01 0.195E+00 0.215E+00 0.229E+00


 Contracted 2-electron integrals neglected if value below      1.0D-11
 AO integral compression algorithm  1   Integral accuracy      1.0D-11

     1.049 MB (compressed) written to integral file ( 36.8%)


 NUMBER OF SORTED TWO-ELECTRON INTEGRALS:     222111.     BUFFER LENGTH:  32768
 NUMBER OF SEGMENTS:   1  SEGMENT LENGTH:     222111      RECORD LENGTH: 524288

 Memory used in sort:       0.78 MW

 SORT1 READ      284735. AND WROTE      118725. INTEGRALS IN      1 RECORDS. CPU TIME:     0.00 SEC, REAL TIME:     0.00 SEC
 SORT2 READ      118725. AND WROTE      222111. INTEGRALS IN      4 RECORDS. CPU TIME:     0.03 SEC, REAL TIME:     0.03 SEC

 FILE SIZES:   FILE 1:    31.1 MBYTE,  FILE 4:     4.2 MBYTE,   TOTAL:     35.4 MBYTE

 OPERATOR DM      FOR CENTER  0  COORDINATES:    0.000000    0.000000    0.000000


 **********************************************************************************************************************************
 DATASETS  * FILE   NREC   LENGTH (MB)   RECORD NAMES
              1      19       30.72       500      610      700      900      950      970     1000      129      960     1100   
                                          VAR    BASINP    GEOM    SYMINP    ZMAT    AOBASIS   BASIS     P2S    ABASIS      S 
                                         1400     1410     1200     1210     1080     1600     1650     1300     1700   
                                           T        V       H0       H01     AOSYM     SMH    MOLCAS    ERIS     OPER   

 PROGRAMS   *        TOTAL       INT
 CPU TIMES  *         0.37      0.26
 REAL TIME  *         0.58 SEC
 DISK USED  *        35.71 MB
 **********************************************************************************************************************************


 PROGRAM * RHF-SCF (CLOSED SHELL)       Authors: W. Meyer, H.-J. Werner


 NUMBER OF ELECTRONS:       8+    8-    SPACE SYMMETRY=1    SPIN SYMMETRY: Singlet 
 CONVERGENCE THRESHOLDS:    1.00E-05 (Density)    1.00E-07 (Energy)
 MAX. NUMBER OF ITERATIONS:       60
 INTERPOLATION TYPE:            DIIS
 INTERPOLATION STEPS:              2 (START)      1 (STEP)
 LEVEL SHIFTS:                  0.00 (CLOSED)  0.00 (OPEN) 



 Orbital guess generated from atomic densities. Full valence occupancy:    8

 Molecular orbital dump at record        2100.2

 Initial occupancy:   8

 ITERATION    DDIFF          GRAD             ENERGY        2-EL.EN.            DIPOLE MOMENTS         DIIS   ORB.
    1      0.000D+00      0.000D+00       -77.99261418    118.436659   -0.00000   -0.00000   -0.00000    0    start
    2      0.000D+00      0.843D-02       -78.01378247    116.629926    0.00000   -0.00000   -0.00000    1    diag
    3      0.819D-02      0.287D-02       -78.01586464    117.255598   -0.00000   -0.00000   -0.00000    2    diag
    4      0.262D-02      0.709D-03       -78.01607637    117.155571   -0.00000   -0.00000   -0.00000    3    diag
    5      0.109D-02      0.741D-04       -78.01607904    117.158549    0.00000   -0.00000   -0.00000    4    diag
    6      0.166D-03      0.942D-05       -78.01607909    117.158040   -0.00000    0.00000   -0.00000    5    diag
    7      0.193D-04      0.159D-05       -78.01607909    117.158044   -0.00000   -0.00000   -0.00000    6    diag
    8      0.280D-05      0.213D-06       -78.01607909    117.158037   -0.00000   -0.00000    0.00000    0    orth

 Final occupancy:   8

 !RHF STATE  1.1 Energy               -78.016079086380
 Nuclear energy                        33.26972055
 One-electron energy                 -169.86481791
 Two-electron energy                   58.57901827
 Virial quotient                       -1.00080448
 !RHF STATE  1.1 Dipole moment         -0.00000000    -0.00000000     0.00000000
 Dipole moment /Debye                  -0.00000000    -0.00000000     0.00000000

 ELECTRON ORBITALS
 =================

  Orbital  Occupation    Energy     Coefficients
    1.1     2.00000   -11.22914     1 1s    0.70420     2 1s    0.70420
    2.1     2.00000   -11.22757     1 1s    0.70454     2 1s   -0.70454
    3.1     2.00000    -1.02741     1 1s    0.30122     2 1s    0.30122
    4.1     2.00000    -0.78800     1 1s    0.24471
    5.1     2.00000    -0.63537     1 2py   0.32023     2 2py   0.32023
    6.1     2.00000    -0.59389     1 2pz   0.37642     2 2pz  -0.37642
    7.1     2.00000    -0.48203     1 2py   0.28549     2 2py  -0.28549
    8.1     2.00000    -0.36998     1 2px   0.37340     1 2px   0.30805     2 2px   0.37340     2 2px   0.30805
    9.1     0.00000     0.17772     1 2px   0.34298     1 2px   0.73148     2 2px  -0.34298     2 2px  -0.73148
   10.1     0.00000     0.26409     1 1s   -1.45023     1 2pz  -0.62122     2 1s   -1.45023     2 2pz   0.62122     3 1s    0.94981
                                    4 1s    1.07925     5 1s    1.07925     6 1s    0.94981
   11.1     0.00000     0.27869     1 1s   -0.81900     1 2py  -0.62185     1 2pz  -0.25924     2 1s    0.81900     2 2py  -0.62185
                                    2 2pz  -0.25924     3 1s    1.42875     4 1s   -0.35445     5 1s    0.35445     6 1s   -1.42875
   12.1     0.00000     0.31615     1 1s   -1.71217     1 2py   0.56457     2 1s    1.71217     2 2py   0.56457     3 1s    0.26189
                                    4 1s    1.56608     5 1s   -1.56608     6 1s   -0.26189
   13.1     0.00000     0.37693     1 1s   -0.30069     1 2py  -1.71950     2 1s   -0.30069     2 2py   1.71950     3 1s    1.68310
                                    4 1s   -1.30750     5 1s   -1.30750     6 1s    1.68310
   14.1     0.00000     0.48801     1 1s   -3.06874     1 2pz   3.00763     2 1s    3.06874     2 2pz   3.00763     3 1s   -0.87669
                                    4 1s   -0.32661     5 1s    0.32661     6 1s    0.87669
   15.1     0.00000     0.67748     1 2pz  -0.52950     1 2pz   1.00243     2 2pz   0.52950     2 2pz  -1.00243     3 1s   -0.32088
                                    6 1s   -0.32088
   16.1     0.00000     0.76179     1 1s   -0.48498     1 2py  -0.36758     1 2py   0.72764     1 2pz   0.82720     2 1s    0.48498
                                    2 2py  -0.36758     2 2py   0.72764     2 2pz   0.82720     3 1s   -0.50076     6 1s    0.50076
   17.1     0.00000     0.77628     1 2px  -0.74087     1 2px   0.63974     2 2px  -0.74087     2 2px   0.63974
   18.1     0.00000     0.86056     1 1s   -0.87683     1 1s    1.36825     1 2py  -0.32273     1 2pz   0.25459     2 1s   -0.87683
                                    2 1s    1.36825     2 2py   0.32273     2 2pz  -0.25459     3 1s   -0.42042     4 1s   -0.37595
                                    4 1s   -0.35824     5 1s   -0.37595     5 1s   -0.35824     6 1s   -0.42042
   19.1     0.00000     0.88885     1 2px  -0.81808     1 2px   1.07333     2 2px   0.81808     2 2px  -1.07333
   20.1     0.00000     0.97137     1 1s   -0.85009     1 2py  -0.33226     1 2pz   0.54975     1 2py   0.71611     1 2pz  -0.28445
                                    2 1s    0.85009     2 2py  -0.33226     2 2pz   0.54975     2 2py   0.71611     2 2pz  -0.28445
                                    3 1s    0.29815     3 1s   -0.32676     4 1s    0.38081     4 1s    0.50580     5 1s   -0.38081
                                    5 1s   -0.50580     6 1s   -0.29815     6 1s    0.32676
   21.1     0.00000     1.12264     1 1s   -0.68474     1 2py   0.61294     1 2py  -0.89864     1 2pz   0.29982     2 1s    0.68474
                                    2 2py   0.61294     2 2py  -0.89864     2 2pz   0.29982     3 1s    0.75834     4 1s    0.59353
                                    4 1s   -1.12237     5 1s   -0.59353     5 1s    1.12237     6 1s   -0.75834
   22.1     0.00000     1.13806     1 1s   -0.69145     1 2py   0.88287     1 2py  -2.68142     1 2pz  -0.60099     2 1s   -0.69145
                                    2 2py  -0.88287     2 2py   2.68142     2 2pz   0.60099     3 1s    1.69148     4 1s   -1.08730
                                    5 1s   -1.08730     6 1s    1.69148
   23.1     0.00000     1.20402     1 1s    1.03361     1 1s   -1.70034     1 2pz   0.35176     1 2pz  -0.46537     2 1s    1.03361
                                    2 1s   -1.70034     2 2pz  -0.35176     2 2pz   0.46537     3 1s   -0.41647     3 1s    0.75658
                                    4 1s   -0.45605     4 1s    0.94896     5 1s   -0.45605     5 1s    0.94896     6 1s   -0.41647
                                    6 1s    0.75658
   24.1     0.00000     1.21341     1 1s   -0.53266     1 1s    0.56225     1 2pz  -0.64552     1 2pz   1.20888     2 1s    0.53266
                                    2 1s   -0.56225     2 2pz  -0.64552     2 2pz   1.20888     3 1s    0.52190     3 1s   -1.13272
                                    4 1s    0.37179     4 1s   -0.76593     5 1s   -0.37179     5 1s    0.76593     6 1s   -0.52190
                                    6 1s    1.13272
   25.1     0.00000     1.33685     1 1s   -1.58035     1 1s    5.43579     1 2pz   0.26893     1 2py  -0.48385     1 2pz  -2.02675
                                    2 1s    1.58035     2 1s   -5.43579     2 2pz   0.26893     2 2py  -0.48385     2 2pz  -2.02675
                                    4 1s   -0.57569     5 1s    0.57569
   26.1     0.00000     1.42933     1 1s    0.45218     1 2py   2.09854     1 2pz   0.61160     2 1s    0.45218     2 2py  -2.09854
                                    2 2pz  -0.61160     3 1s   -0.73347     3 1s   -0.71804     4 1s    0.60918     5 1s    0.60918
                                    6 1s   -0.73347     6 1s   -0.71804
   27.1     0.00000     1.73644     1 3d1+  0.61749     2 3d1+ -0.61749
   28.1     0.00000     1.82346     1 3d2-  0.68061     2 3d2-  0.68061
   29.1     0.00000     2.12863     1 3d2-  0.73388     2 3d2- -0.73388
   30.1     0.00000     2.23094     1 1s    0.27169     1 1s   -0.50202     1 2py   0.61237     1 3d2+  0.69804     2 1s    0.27169
                                    2 1s   -0.50202     2 2py  -0.61237     2 3d2+  0.69804     4 1s    0.50268     4 1s    0.25893
                                    5 1s    0.50268     5 1s    0.25893
   31.1     0.00000     2.26187     1 1s   -0.74558     1 2py   0.25031     1 2pz   0.59543     1 3d1-  0.64456     2 1s    0.74558
                                    2 2py   0.25031     2 2pz   0.59543     2 3d1- -0.64456     3 1s   -0.59565     4 1s    0.33681
                                    5 1s   -0.33681     6 1s    0.59565
   32.1     0.00000     2.42836     1 1s   -0.47400     1 2pz   0.26949     1 2pz  -0.41343     1 3d0   0.68535     2 1s   -0.47400
                                    2 2pz  -0.26949     2 2pz   0.41343     2 3d0   0.68535     4 1s    0.30103     5 1s    0.30103
   33.1     0.00000     2.62556     1 1s    0.29479     1 1s   -1.61404     1 2pz   0.49009     1 3d2+  0.77696     2 1s   -0.29479
                                    2 1s    1.61404     2 2pz   0.49009     2 3d2+ -0.77696     4 1s    0.59808     5 1s   -0.59808
   34.1     0.00000     2.70271     1 2px  -0.26431     1 3d1+  0.89967     2 2px   0.26431     2 3d1+  0.89967
   35.1     0.00000     3.02544     1 2py   0.32949     1 3d1-  0.95750     2 2py  -0.32949     2 3d1-  0.95750     3 1s   -0.54229
                                    4 1s    0.30773     5 1s    0.30773     6 1s   -0.54229
   36.1     0.00000     3.08553     1 1s    0.32194     1 1s    1.92653     1 2pz  -0.76975     1 2pz  -1.13568     1 3d0   1.10228
                                    2 1s   -0.32194     2 1s   -1.92653     2 2pz  -0.76975     2 2pz  -1.13568     2 3d0  -1.10228


 HOMO      8.1    -0.369976 =     -10.0676eV
 LUMO      9.1     0.177715 =       4.8359eV
 LUMO-HOMO         0.547691 =      14.9034eV


 **********************************************************************************************************************************
 DATASETS  * FILE   NREC   LENGTH (MB)   RECORD NAMES
              1      19       30.72       500      610      700      900      950      970     1000      129      960     1100   
                                          VAR    BASINP    GEOM    SYMINP    ZMAT    AOBASIS   BASIS     P2S    ABASIS      S 
                                         1400     1410     1200     1210     1080     1600     1650     1300     1700   
                                           T        V       H0       H01     AOSYM     SMH    MOLCAS    ERIS     OPER   

              2       4        2.86       700     1000      520     2100   
                                         GEOM     BASIS   MCVARS     RHF  

 PROGRAMS   *        TOTAL    HF-SCF       INT
 CPU TIMES  *         0.48      0.11      0.26
 REAL TIME  *         0.72 SEC
 DISK USED  *        35.71 MB
 **********************************************************************************************************************************


 PROGRAM * MULTI (Direct Multiconfiguration SCF)       Authors: P.J. Knowles, H.-J. Werner (1984)


 Number of closed-shell orbitals:   7 (   7 )
 Number of active  orbitals:        2 (   2 )
 Number of external orbitals:      27 (  27 )

 State symmetry 1

 Number of electrons:     2    Spin symmetry=Singlet   Space symmetry=1
 Number of states:        3
 Number of CSFs:          3   (4 determinants, 4 intermediate states)

 Molecular orbitals read from record     2100.2  Type=RHF/CANONICAL (state 1.1)

 EXTRA SYMMETRY OF MOS IN SYMMETRY 1:   1 1 1 1 1 1 1 2 2 1   1 1 1 1 1 1 2 1 2 1   1 1 1 1 1 1 2 2 2 1   1 1 1 2 1 1

 Wavefunction dump at record             2140.2

 Convergence thresholds  0.10E-01 (gradient)  0.10E-05 (energy)  0.10E-02 (step length)

 Weight factors for state symmetry  1:    0.33333   0.33333   0.33333

 Number of orbital rotations:      257   (    14 Core/Active    189 Core/Virtual   0 Active/Active     54 Active/Virtual)
 Total number of variables:        269

 Micro-Iterations solved by the two-step solver

 ITER. MIC  NCI  NEG     ENERGY(VAR)     ENERGY(PROJ)   ENERGY CHANGE     GRAD(0)  GRAD(ORB)   GRAD(CI)     STEP       TIME

   1    3    3    0     -77.71497817     -77.72120279   -0.00622461    0.13211534 0.00000154 0.00000000  0.63D-01      0.07
   2    2    3    0     -77.72110518     -77.72110892   -0.00000374    0.00302857 0.00000185 0.00000000  0.16D-02      0.10
   3    2    3    0     -77.72110893     -77.72110893   -0.00000000    0.00000216 0.00000000 0.00000000  0.13D-05      0.14

 ** WVFN ****  CONVERGENCE REACHED, FINAL GRADIENT:  0.13D-11



 Results for state 1.1
 =====================

 !MCSCF STATE  1.1 Energy             -78.033841652773
 Nuclear energy                        33.26972055
 Kinetic energy                        78.02195707
 One electron energy                 -169.99564466
 Two electron energy                   58.69208245
 Virial ratio                           2.00015232

 !MCSCF STATE  1.1 Dipole moment        0.00000000     0.00000000     0.00000000
 Dipole moment /Debye                   0.00000000     0.00000000     0.00000000

 Results for state 2.1
 =====================

 !MCSCF STATE  2.1 Energy             -77.657683158494
 Nuclear energy                        33.26972055
 Kinetic energy                        78.20395144
 One electron energy                 -169.42612092
 Two electron energy                   58.49871721
 Virial ratio                           1.99301483

 !MCSCF STATE  2.1 Dipole moment        0.00000000     0.00000000     0.00000000
 Dipole moment /Debye                   0.00000000     0.00000000     0.00000000

 Results for state 3.1
 =====================

 !MCSCF STATE  3.1 Energy             -77.471801967919
 Nuclear energy                        33.26972055
 Kinetic energy                        78.38594581
 One electron energy                 -168.85659718
 Two electron energy                   58.11507466
 Virial ratio                           1.98833791

 !MCSCF STATE  3.1 Dipole moment        0.00000000     0.00000000     0.00000000
 Dipole moment /Debye                   0.00000000     0.00000000     0.00000000

 State-averaged charge density matrix saved on record  2140.2 (density set 1)

 !MCSCF trans         <2.1|DMY|1.1>    -0.093977410993 au =    -0.238851108232 Debye
 !MCSCF trans         <3.1|DMY|2.1>    -0.141582170830 au =    -0.359842413739 Debye

 !MCSCF trans         <2.1|DMZ|1.1>    -1.507966086413 au =    -3.832616445905 Debye
 !MCSCF trans         <3.1|DMZ|2.1>    -2.271834367387 au =    -5.774048791463 Debye


 NATURAL ORBITALS (state averaged)
 =================================

  Orbital  Occupation    Energy     Coefficients
    1.1     2.00000   -11.24451     1 1s    0.70421     2 1s    0.70421
    2.1     2.00000   -11.24321     1 1s    0.70450     2 1s   -0.70450
    3.1     2.00000    -1.04232     1 1s    0.30911     2 1s    0.30911
    4.1     2.00000    -0.79560     1 1s    0.29062     2 1s   -0.29062
    5.1     2.00000    -0.64836     1 2py   0.32567     2 2py   0.32567
    6.1     2.00000    -0.60624     1 2pz   0.38297     2 2pz  -0.38297
    7.1     2.00000    -0.49094     1 2py   0.29517     2 2py  -0.29517
    8.1     1.00000     0.03291     1 2px   0.38084     1 2px   0.68461     2 2px  -0.38084     2 2px  -0.68461
    9.1     1.00000    -0.22606     1 2px   0.35792     1 2px   0.31954     2 2px   0.35792     2 2px   0.31954
   10.1    -0.00000     0.26116     1 1s   -1.43926     1 2pz  -0.62209     2 1s   -1.43926     2 2pz   0.62209     3 1s    0.91483
                                    4 1s    1.10458     5 1s    1.10458     6 1s    0.91483
   11.1    -0.00000     0.27203     1 1s   -0.73079     1 2py  -0.64741     2 1s    0.73079     2 2py  -0.64741     3 1s    1.39351
                                    4 1s   -0.45093     5 1s    0.45093     6 1s   -1.39351
   12.1    -0.00000     0.31091     1 1s   -1.78211     1 2py   0.51791     2 1s    1.78211     2 2py   0.51791     3 1s    0.35108
                                    4 1s    1.53258     5 1s   -1.53258     6 1s   -0.35108
   13.1    -0.00000     0.37246     1 1s   -0.33733     1 2py  -1.70009     2 1s   -0.33733     2 2py   1.70009     3 1s    1.69573
                                    4 1s   -1.27483     5 1s   -1.27483     6 1s    1.69573
   14.1    -0.00000     0.48455     1 1s   -3.03323     1 2pz   2.98302     2 1s    3.03323     2 2pz   2.98302     3 1s   -0.89447
                                    4 1s   -0.33068     5 1s    0.33068     6 1s    0.89447
   15.1    -0.00000     0.66675     1 2pz  -0.52228     1 2pz   0.98568     2 2pz   0.52228     2 2pz  -0.98568     3 1s   -0.31394
                                    6 1s   -0.31394
   16.1    -0.00000     0.75351     1 1s   -0.55710     1 2py  -0.37999     1 2py   0.74333     1 2pz   0.87182     2 1s    0.55710
                                    2 2py  -0.37999     2 2py   0.74333     2 2pz   0.87182     3 1s   -0.49377     6 1s    0.49377
   17.1    -0.00000     0.77037     1 2px  -0.74755     1 2px   0.63443     2 2px  -0.74755     2 2px   0.63443
   18.1    -0.00000     0.85733     1 1s   -0.87124     1 1s    1.38370     1 2py  -0.36842     1 2pz   0.29016     2 1s   -0.87124
                                    2 1s    1.38370     2 2py   0.36842     2 2pz  -0.29016     3 1s   -0.41674     4 1s   -0.38166
                                    4 1s   -0.37578     5 1s   -0.38166     5 1s   -0.37578     6 1s   -0.41674
   19.1    -0.00000     0.87138     1 2px  -0.80248     1 2px   1.10364     2 2px   0.80248     2 2px  -1.10364
   20.1    -0.00000     0.95237     1 1s   -0.72090     1 2py  -0.32023     1 2pz   0.55743     1 2py   0.69348     1 2pz  -0.36149
                                    2 1s    0.72090     2 2py  -0.32023     2 2pz   0.55743     2 2py   0.69348     2 2pz  -0.36149
                                    3 1s    0.29673     3 1s   -0.31408     4 1s    0.38588     4 1s    0.48738     5 1s   -0.38588
                                    5 1s   -0.48738     6 1s   -0.29673     6 1s    0.31408
   21.1    -0.00000     1.10666     1 1s   -0.63393     1 2py   0.60693     1 2py  -0.91269     1 2pz   0.27979     2 1s    0.63393
                                    2 2py   0.60693     2 2py  -0.91269     2 2pz   0.27979     3 1s    0.77496     4 1s    0.58671
                                    4 1s   -1.13764     5 1s   -0.58671     5 1s    1.13764     6 1s   -0.77496
   22.1    -0.00000     1.12631     1 1s   -0.64195     1 2py   0.88241     1 2py  -2.68757     1 2pz  -0.58669     2 1s   -0.64195
                                    2 2py  -0.88241     2 2py   2.68757     2 2pz   0.58669     3 1s    1.67133     4 1s   -1.12466
                                    5 1s   -1.12466     6 1s    1.67133
   23.1    -0.00000     1.20046     1 1s    1.03325     1 1s   -1.71839     1 2pz   0.36098     1 2pz  -0.49080     2 1s    1.03325
                                    2 1s   -1.71839     2 2pz  -0.36098     2 2pz   0.49080     3 1s   -0.42364     3 1s    0.81608
                                    4 1s   -0.44892     4 1s    0.90817     5 1s   -0.44892     5 1s    0.90817     6 1s   -0.42364
                                    6 1s    0.81608
   24.1    -0.00000     1.21113     1 1s   -0.47089     1 1s    0.34844     1 2pz  -0.65680     1 2pz   1.28985     2 1s    0.47089
                                    2 1s   -0.34844     2 2pz  -0.65680     2 2pz   1.28985     3 1s    0.52500     3 1s   -1.12730
                                    4 1s    0.37757     4 1s   -0.74752     5 1s   -0.37757     5 1s    0.74752     6 1s   -0.52500
                                    6 1s    1.12730
   25.1    -0.00000     1.31697     1 1s   -1.60139     1 1s    5.46705     1 2py  -0.48094     1 2pz  -1.97920     2 1s    1.60139
                                    2 1s   -5.46705     2 2py  -0.48094     2 2pz  -1.97920     4 1s   -0.60688     5 1s    0.60688
   26.1    -0.00000     1.42126     1 1s    0.45954     1 2py   2.10333     1 2pz   0.61392     2 1s    0.45954     2 2py  -2.10333
                                    2 2pz  -0.61392     3 1s   -0.73302     3 1s   -0.72172     4 1s    0.60807     5 1s    0.60807
                                    6 1s   -0.73302     6 1s   -0.72172
   27.1    -0.00000     1.71094     1 3d1+  0.61721     2 3d1+ -0.61721
   28.1    -0.00000     1.80989     1 3d2-  0.68062     2 3d2-  0.68062
   29.1    -0.00000     2.10583     1 3d2-  0.73387     2 3d2- -0.73387
   30.1    -0.00000     2.21519     1 1s    0.26850     1 1s   -0.49852     1 2py   0.60803     1 3d2+  0.69744     2 1s    0.26850
                                    2 1s   -0.49852     2 2py  -0.60803     2 3d2+  0.69744     4 1s    0.50299     4 1s    0.25599
                                    5 1s    0.50299     5 1s    0.25599
   31.1    -0.00000     2.24520     1 1s   -0.74711     1 2py   0.25703     1 2pz   0.59878     1 3d1-  0.64186     2 1s    0.74711
                                    2 2py   0.25703     2 2pz   0.59878     2 3d1- -0.64186     3 1s   -0.60104     4 1s    0.33642
                                    5 1s   -0.33642     6 1s    0.60104
   32.1    -0.00000     2.40874     1 1s   -0.47164     1 2pz   0.27480     1 2pz  -0.41578     1 3d0   0.68476     2 1s   -0.47164
                                    2 2pz  -0.27480     2 2pz   0.41578     2 3d0   0.68476     4 1s    0.30258     5 1s    0.30258
   33.1    -0.00000     2.60675     1 1s    0.29594     1 1s   -1.62829     1 2pz   0.49450     1 3d2+  0.77552     2 1s   -0.29594
                                    2 1s    1.62829     2 2pz   0.49450     2 3d2+ -0.77552     4 1s    0.60296     5 1s   -0.60296
   34.1    -0.00000     2.68033     1 2px  -0.26506     1 3d1+  0.90005     2 2px   0.26506     2 3d1+  0.90005
   35.1    -0.00000     3.01225     1 2py   0.32944     1 3d1-  0.95719     2 2py  -0.32944     2 3d1-  0.95719     3 1s   -0.54476
                                    4 1s    0.30999     5 1s    0.30999     6 1s   -0.54476
   36.1    -0.00000     3.06800     1 1s    0.31561     1 1s    1.94838     1 2pz  -0.76233     1 2pz  -1.14788     1 3d0   1.10373
                                    2 1s   -0.31561     2 1s   -1.94838     2 2pz  -0.76233     2 2pz  -1.14788     2 3d0  -1.10373


 Natural orbital dump (state averaged) at molpro section  2140.2    (Orbital set 2)



 **********************************************************************************************************************************
 DATASETS  * FILE   NREC   LENGTH (MB)   RECORD NAMES
              1      20       31.45       500      610      700      900      950      970     1000      129      960     1100   
                                          VAR    BASINP    GEOM    SYMINP    ZMAT    AOBASIS   BASIS     P2S    ABASIS      S 
                                         1400     1410     1200     1210     1080     1600     1650     1300     1700     1380   
                                           T        V       H0       H01     AOSYM     SMH    MOLCAS    ERIS     OPER     JKOP   

              2       5        5.42       700     1000      520     2100     2140   
                                         GEOM     BASIS   MCVARS     RHF     MCSCF   

 PROGRAMS   *        TOTAL     MULTI    HF-SCF       INT
 CPU TIMES  *         0.66      0.18      0.11      0.26
 REAL TIME  *         0.93 SEC
 DISK USED  *        38.63 MB
 **********************************************************************************************************************************
 Molecular orbitals read from record     2140.2  Type=MCSCF/NATURAL (state averaged)
 Occupation numbers read from record     2140.2  Type=MCSCF/NATURAL (state averaged)
 Orbital energies read from record       2140.2  Type=MCSCF/NATURAL (state averaged)
 Redundancy group numbers read from rec  2140.2  Type=MCSCF/NATURAL (state averaged)

 MULTI/6-31G* energy=    -77.471801967919

           MULTI          HF-SCF
    -77.47180197    -78.01607909
 **********************************************************************************************************************************
 Molpro calculation terminated
