
 Primary working directories    : /scratch.local/johan406.molpro_temp/molpro.HEyT3obpzZ
 Secondary working directories  : /scratch.local/johan406.molpro_temp/molpro.HEyT3obpzZ
 Wavefunction directory         : /home/goodpast/johan406/wfu/
 Main file repository           : /scratch.local/johan406.molpro_temp/molpro.HEyT3obpzZ/

 id        : roweumn

 Nodes     nprocs
 cn0117       1

 Using customized tuning parameters: mindgm=1; mindgv=20; mindgc=4; mindgr=1; noblas=0; minvec=7
 default implementation of scratch files=df  


 Variables initialized (934), CPU time= 0.00 sec
                                                                                 !leave this line blank
 
 gprint, orbitals=30
 memory, 125., m
 symmetry, nosym
 nelect=16
 basis=6-31g*
 
 geometry={
 C 0.0 0.0516 0.6691
 C 0.0 -0.0516 -0.6691
 H 0.0 0.8667 1.3965
 H -0.0 -0.9631 1.0731
 H 0.0 0.9631 -1.0731
 H 0.0 -0.8667 -1.3965
 }
 
 hf
 {multi,
 closed 7
 occ 9
 wf,spin=0;STATE,3
 }
 
 Commands  initialized (763), CPU time= 0.01 sec, 617 directives.
 Default parameters read. Elapsed time= 0.08 sec

 Checking input...
 Passed
1


                                         ***  PROGRAM SYSTEM MOLPRO  ***
                                       Copyright, TTI GmbH Stuttgart, 2015
                                    Version 2019.2 linked Oct 25 2019 22:50:27


 **********************************************************************************************************************************
 LABEL *                                                                                 
  64 bit serial version                                                                  DATE: 26-Jan-23          TIME: 20:10:09  
 **********************************************************************************************************************************

 SHA1:             8dbd9ae1082e4ce945b0f27595c9eb2d4aa09004
 **********************************************************************************************************************************


 Variable memory set to  125000000 words,  buffer space 

 SETTING NELECT         =        16.00000000                                  
 SETTING BASIS          =    6-31G*
 ZSYMEL=NOSYM


Geometry recognized as XYZ



 Recomputing integrals since basis changed


 Using spherical harmonics

 Library entry C      S 6-31G                selected for orbital group  1
 Library entry C      P 6-31G                selected for orbital group  1
 Library entry C      D 6-31G*               selected for orbital group  1
 Library entry H      S 6-31G                selected for orbital group  2


 PROGRAM * SEWARD (Integral evaluation for generally contracted gaussian basis sets)     Author: Roland Lindh, 1990

 Geometry written to block  1 of record 700


 Point group  C1  



 ATOMIC COORDINATES

 NR  ATOM    CHARGE       X              Y              Z

   1  C       6.00    0.000000000    0.097509868    1.264415750
   2  C       6.00    0.000000000   -0.097509868   -1.264415750
   3  H       1.00    0.000000000    1.637825632    2.639002533
   4  H       1.00    0.000000000   -1.819995231    2.027865104
   5  H       1.00    0.000000000    1.819995231   -2.027865104
   6  H       1.00    0.000000000   -1.637825632   -2.639002533

 Bond lengths in Bohr (Angstrom)

 1-2  2.536340169  1-3  2.064476078  1-4  2.063899397  2-5  2.063899397  2-6  2.064476078
     ( 1.342173417)     ( 1.092473693)     ( 1.092168526)     ( 1.092168526)     ( 1.092473693)

 Bond angles

  1-2-5  107.30000040   1-2-6  136.15574586   2-1-3  136.15574586   2-1-4  107.30000040

  3-1-4  116.54425375   5-2-6  116.54425375

 NUCLEAR CHARGE:                   16
 NUMBER OF PRIMITIVE AOS:          72
 NUMBER OF SYMMETRY AOS:           70
 NUMBER OF CONTRACTIONS:           36   (   36A   )
 NUMBER OF CORE ORBITALS:           2   (    2A   )
 NUMBER OF VALENCE ORBITALS:       12   (   12A   )


 NUCLEAR REPULSION ENERGY   33.20152655

 EXTRA SYMMETRY OF AOS IN SYMMETRY 1:   1 1 1 2 1 1 2 1 1 1   2 2 1 1 1 1 1 2 1 1   2 1 1 1 2 2 1 1 1 1   1 1 1 1 1 1

 Eigenvalues of metric

         1 0.734E-02 0.210E-01 0.415E-01 0.467E-01 0.724E-01 0.196E+00 0.218E+00 0.231E+00


 Contracted 2-electron integrals neglected if value below      1.0D-11
 AO integral compression algorithm  1   Integral accuracy      1.0D-11

     1.049 MB (compressed) written to integral file ( 36.8%)


 NUMBER OF SORTED TWO-ELECTRON INTEGRALS:     222111.     BUFFER LENGTH:  32768
 NUMBER OF SEGMENTS:   1  SEGMENT LENGTH:     222111      RECORD LENGTH: 524288

 Memory used in sort:       0.78 MW

 SORT1 READ      284735. AND WROTE      118724. INTEGRALS IN      1 RECORDS. CPU TIME:     0.00 SEC, REAL TIME:     0.01 SEC
 SORT2 READ      118724. AND WROTE      222111. INTEGRALS IN      4 RECORDS. CPU TIME:     0.02 SEC, REAL TIME:     0.02 SEC

 FILE SIZES:   FILE 1:    31.1 MBYTE,  FILE 4:     4.2 MBYTE,   TOTAL:     35.4 MBYTE

 OPERATOR DM      FOR CENTER  0  COORDINATES:    0.000000    0.000000    0.000000


 **********************************************************************************************************************************
 DATASETS  * FILE   NREC   LENGTH (MB)   RECORD NAMES
              1      19       30.72       500      610      700      900      950      970     1000      129      960     1100   
                                          VAR    BASINP    GEOM    SYMINP    ZMAT    AOBASIS   BASIS     P2S    ABASIS      S 
                                         1400     1410     1200     1210     1080     1600     1650     1300     1700   
                                           T        V       H0       H01     AOSYM     SMH    MOLCAS    ERIS     OPER   

 PROGRAMS   *        TOTAL       INT
 CPU TIMES  *         0.35      0.25
 REAL TIME  *         0.58 SEC
 DISK USED  *        35.71 MB
 **********************************************************************************************************************************


 PROGRAM * RHF-SCF (CLOSED SHELL)       Authors: W. Meyer, H.-J. Werner


 NUMBER OF ELECTRONS:       8+    8-    SPACE SYMMETRY=1    SPIN SYMMETRY: Singlet 
 CONVERGENCE THRESHOLDS:    1.00E-05 (Density)    1.00E-07 (Energy)
 MAX. NUMBER OF ITERATIONS:       60
 INTERPOLATION TYPE:            DIIS
 INTERPOLATION STEPS:              2 (START)      1 (STEP)
 LEVEL SHIFTS:                  0.00 (CLOSED)  0.00 (OPEN) 



 Orbital guess generated from atomic densities. Full valence occupancy:    8

 Molecular orbital dump at record        2100.2

 Initial occupancy:   8

 ITERATION    DDIFF          GRAD             ENERGY        2-EL.EN.            DIPOLE MOMENTS         DIIS   ORB.
    1      0.000D+00      0.000D+00       -77.98538661    118.292964   -0.00000   -0.00000   -0.00000    0    start
    2      0.000D+00      0.835D-02       -78.00616396    116.503068   -0.00000    0.00000    0.00000    1    diag
    3      0.818D-02      0.285D-02       -78.00822255    117.126076   -0.00000    0.00000   -0.00000    2    diag
    4      0.261D-02      0.707D-03       -78.00843536    117.025357   -0.00000    0.00000   -0.00000    3    diag
    5      0.109D-02      0.772D-04       -78.00843834    117.028366   -0.00000    0.00000    0.00000    4    diag
    6      0.175D-03      0.101D-04       -78.00843840    117.027816   -0.00000   -0.00000   -0.00000    5    diag
    7      0.214D-04      0.178D-05       -78.00843840    117.027817   -0.00000    0.00000    0.00000    6    diag
    8      0.333D-05      0.241D-06       -78.00843840    117.027809    0.00000    0.00000   -0.00000    0    orth

 Final occupancy:   8

 !RHF STATE  1.1 Energy               -78.008438398811
 Nuclear energy                        33.20152655
 One-electron energy                 -169.72386961
 Two-electron energy                   58.51390467
 Virial quotient                       -1.00114756
 !RHF STATE  1.1 Dipole moment          0.00000000     0.00000000    -0.00000000
 Dipole moment /Debye                   0.00000000     0.00000000    -0.00000000

 ELECTRON ORBITALS
 =================

  Orbital  Occupation    Energy     Coefficients
    1.1     2.00000   -11.23118     1 1s    0.70420     2 1s    0.70420
    2.1     2.00000   -11.22963     1 1s    0.70454     2 1s   -0.70454
    3.1     2.00000    -1.02766     1 1s    0.30074     2 1s    0.30074
    4.1     2.00000    -0.78589     1 1s    0.24599
    5.1     2.00000    -0.63375     1 2py   0.31947     2 2py   0.31947
    6.1     2.00000    -0.59758     1 2pz   0.36864     2 2pz  -0.36864
    7.1     2.00000    -0.47200     1 2py   0.28067     2 2py  -0.28067
    8.1     2.00000    -0.37034     1 2px   0.37346     1 2px   0.30811     2 2px   0.37346     2 2px   0.30811
    9.1     0.00000     0.17726     1 2px   0.34346     1 2px   0.73022     2 2px  -0.34346     2 2px  -0.73022
   10.1     0.00000     0.26281     1 1s   -1.42681     1 2pz  -0.60839     2 1s   -1.42681     2 2pz   0.60839     3 1s    0.92226
                                    4 1s    1.07968     5 1s    1.07968     6 1s    0.92226
   11.1     0.00000     0.27243     1 1s   -0.82186     1 2py  -0.59126     1 2pz  -0.29856     2 1s    0.82186     2 2py  -0.59126
                                    2 2pz  -0.29856     3 1s    1.41637     4 1s   -0.30224     5 1s    0.30224     6 1s   -1.41637
   12.1     0.00000     0.31766     1 1s   -1.68572     1 2py   0.61561     2 1s    1.68572     2 2py   0.61561     4 1s    1.58727
                                    5 1s   -1.58727
   13.1     0.00000     0.37043     1 1s   -0.36180     1 2py  -1.64712     2 1s   -0.36180     2 2py   1.64712     3 1s    1.66171
                                    4 1s   -1.21046     5 1s   -1.21046     6 1s    1.66171
   14.1     0.00000     0.48680     1 1s   -3.10884     1 2py   0.27442     1 2pz   3.03416     2 1s    3.10884     2 2py   0.27442
                                    2 2pz   3.03416     3 1s   -0.94548     4 1s   -0.26662     5 1s    0.26662     6 1s    0.94548
   15.1     0.00000     0.68122     1 2pz  -0.51882     1 2pz   0.98681     2 2pz   0.51882     2 2pz  -0.98681     3 1s   -0.35570
                                    4 1s    0.25566     5 1s    0.25566     6 1s   -0.35570
   16.1     0.00000     0.76273     1 1s   -0.60131     1 2py  -0.35507     1 2py   0.71381     1 2pz   1.00352     2 1s    0.60131
                                    2 2py  -0.35507     2 2py   0.71381     2 2pz   1.00352     3 1s   -0.51619     6 1s    0.51619
   17.1     0.00000     0.77580     1 2px  -0.74102     1 2px   0.63984     2 2px  -0.74102     2 2px   0.63984
   18.1     0.00000     0.85967     1 1s   -0.87084     1 1s    1.32314     1 2py  -0.38090     2 1s   -0.87084     2 1s    1.32314
                                    2 2py   0.38090     3 1s   -0.42804     4 1s   -0.37125     4 1s   -0.37166     5 1s   -0.37125
                                    5 1s   -0.37166     6 1s   -0.42804
   19.1     0.00000     0.88801     1 2px  -0.81782     1 2px   1.07309     2 2px   0.81782     2 2px  -1.07309
   20.1     0.00000     0.97743     1 1s   -0.81771     1 2py  -0.40545     1 2pz   0.52355     1 2py   0.86669     2 1s    0.81771
                                    2 2py  -0.40545     2 2pz   0.52355     2 2py   0.86669     3 1s    0.28058     3 1s   -0.42495
                                    4 1s    0.35263     4 1s    0.60888     5 1s   -0.35263     5 1s   -0.60888     6 1s   -0.28058
                                    6 1s    0.42495
   21.1     0.00000     1.12689     1 1s   -0.82170     1 2py   0.56908     1 2py  -0.78585     1 2pz   0.41575     2 1s    0.82170
                                    2 2py   0.56908     2 2py  -0.78585     2 2pz   0.41575     3 1s    0.62079     4 1s    0.65287
                                    4 1s   -1.11446     5 1s   -0.65287     5 1s    1.11446     6 1s   -0.62079
   22.1     0.00000     1.12806     1 1s   -0.79025     1 2py   0.86583     1 2py  -2.56303     1 2pz  -0.69993     2 1s   -0.79025
                                    2 2py  -0.86583     2 2py   2.56303     2 2pz   0.69993     3 1s    1.67743     4 1s   -0.99630
                                    5 1s   -0.99630     6 1s    1.67743
   23.1     0.00000     1.19768     1 1s    1.03577     1 1s   -1.69970     1 2pz   0.34745     1 2pz  -0.46034     2 1s    1.03577
                                    2 1s   -1.69970     2 2pz  -0.34745     2 2pz   0.46034     3 1s   -0.41541     3 1s    0.75848
                                    4 1s   -0.45272     4 1s    0.94401     5 1s   -0.45272     5 1s    0.94401     6 1s   -0.41541
                                    6 1s    0.75848
   24.1     0.00000     1.20905     1 1s   -0.53312     1 1s    0.60635     1 2pz  -0.65784     1 2pz   1.18525     2 1s    0.53312
                                    2 1s   -0.60635     2 2pz  -0.65784     2 2pz   1.18525     3 1s    0.53321     3 1s   -1.16618
                                    4 1s    0.32750     4 1s   -0.69862     5 1s   -0.32750     5 1s    0.69862     6 1s   -0.53321
                                    6 1s    1.16618
   25.1     0.00000     1.33606     1 1s   -1.57634     1 1s    5.46940     1 2pz   0.27027     1 2py  -0.58960     1 2pz  -2.08551
                                    2 1s    1.57634     2 1s   -5.46940     2 2pz   0.27027     2 2py  -0.58960     2 2pz  -2.08551
                                    4 1s   -0.61812     5 1s    0.61812
   26.1     0.00000     1.41169     1 1s    0.51975     1 2py   1.93545     1 2pz   0.70747     2 1s    0.51975     2 2py  -1.93545
                                    2 2pz  -0.70747     3 1s   -0.72958     3 1s   -0.68700     4 1s    0.59269     5 1s    0.59269
                                    6 1s   -0.72958     6 1s   -0.68700
   27.1     0.00000     1.73510     1 3d1+  0.61674     2 3d1+ -0.61674
   28.1     0.00000     1.82430     1 3d2-  0.68028     2 3d2-  0.68028
   29.1     0.00000     2.12898     1 3d2-  0.73274     2 3d2- -0.73274
   30.1     0.00000     2.23107     1 1s   -0.93359     1 2py   0.26348     1 2pz   0.73232     1 3d1-  0.62882     2 1s    0.93359
                                    2 2py   0.26348     2 2pz   0.73232     2 3d1- -0.62882     3 1s   -0.59194     4 1s    0.30308
                                    5 1s   -0.30308     6 1s    0.59194
   31.1     0.00000     2.23776     1 1s    0.29344     1 1s   -0.46444     1 2py   0.66566     1 3d2+  0.69107     2 1s    0.29344
                                    2 1s   -0.46444     2 2py  -0.66566     2 3d2+  0.69107     4 1s    0.51277     4 1s    0.25622
                                    5 1s    0.51277     5 1s    0.25622
   32.1     0.00000     2.43745     1 1s   -0.45911     1 2pz   0.26439     1 2pz  -0.39456     1 3d0   0.68404     2 1s   -0.45911
                                    2 2pz  -0.26439     2 2pz   0.39456     2 3d0   0.68404     4 1s    0.33034     5 1s    0.33034
   33.1     0.00000     2.62157     1 1s    0.29845     1 1s   -1.71665     1 2py   0.28914     1 2pz   0.57812     1 3d2+  0.77071
                                    2 1s   -0.29845     2 1s    1.71665     2 2py   0.28914     2 2pz   0.57812     2 3d2+ -0.77071
                                    4 1s    0.61135     5 1s   -0.61135
   34.1     0.00000     2.70001     1 2px  -0.26420     1 3d1+  0.89812     2 2px   0.26420     2 3d1+  0.89812
   35.1     0.00000     3.00844     1 3d1-  0.95060     2 3d1-  0.95060     3 1s   -0.54183     4 1s    0.25743     5 1s    0.25743
                                    6 1s   -0.54183
   36.1     0.00000     3.09534     1 1s    0.32284     1 1s    1.89294     1 2pz  -0.75828     1 2pz  -1.12088     1 3d0   1.09842
                                    2 1s   -0.32284     2 1s   -1.89294     2 2pz  -0.75828     2 2pz  -1.12088     2 3d0  -1.09842


 HOMO      8.1    -0.370336 =     -10.0773eV
 LUMO      9.1     0.177259 =       4.8235eV
 LUMO-HOMO         0.547595 =      14.9008eV


 **********************************************************************************************************************************
 DATASETS  * FILE   NREC   LENGTH (MB)   RECORD NAMES
              1      19       30.72       500      610      700      900      950      970     1000      129      960     1100   
                                          VAR    BASINP    GEOM    SYMINP    ZMAT    AOBASIS   BASIS     P2S    ABASIS      S 
                                         1400     1410     1200     1210     1080     1600     1650     1300     1700   
                                           T        V       H0       H01     AOSYM     SMH    MOLCAS    ERIS     OPER   

              2       4        2.86       700     1000      520     2100   
                                         GEOM     BASIS   MCVARS     RHF  

 PROGRAMS   *        TOTAL    HF-SCF       INT
 CPU TIMES  *         0.45      0.10      0.25
 REAL TIME  *         0.73 SEC
 DISK USED  *        35.71 MB
 **********************************************************************************************************************************


 PROGRAM * MULTI (Direct Multiconfiguration SCF)       Authors: P.J. Knowles, H.-J. Werner (1984)


 Number of closed-shell orbitals:   7 (   7 )
 Number of active  orbitals:        2 (   2 )
 Number of external orbitals:      27 (  27 )

 State symmetry 1

 Number of electrons:     2    Spin symmetry=Singlet   Space symmetry=1
 Number of states:        3
 Number of CSFs:          3   (4 determinants, 4 intermediate states)

 Molecular orbitals read from record     2100.2  Type=RHF/CANONICAL (state 1.1)

 EXTRA SYMMETRY OF MOS IN SYMMETRY 1:   1 1 1 1 1 1 1 2 2 1   1 1 1 1 1 1 2 1 2 1   1 1 1 1 1 1 2 2 2 1   1 1 1 2 1 1

 Wavefunction dump at record             2140.2

 Convergence thresholds  0.10E-01 (gradient)  0.10E-05 (energy)  0.10E-02 (step length)

 Weight factors for state symmetry  1:    0.33333   0.33333   0.33333

 Number of orbital rotations:      257   (    14 Core/Active    189 Core/Virtual   0 Active/Active     54 Active/Virtual)
 Total number of variables:        269

 Micro-Iterations solved by the two-step solver

 ITER. MIC  NCI  NEG     ENERGY(VAR)     ENERGY(PROJ)   ENERGY CHANGE     GRAD(0)  GRAD(ORB)   GRAD(CI)     STEP       TIME

   1    3    3    0     -77.70738828     -77.71360140   -0.00621312    0.13184216 0.00000154 0.00000000  0.63D-01      0.07
   2    2    3    0     -77.71350430     -77.71350803   -0.00000373    0.00301966 0.00000185 0.00000000  0.16D-02      0.10
   3    2    3    0     -77.71350803     -77.71350803   -0.00000000    0.00000216 0.00000000 0.00000000  0.13D-05      0.13

 ** WVFN ****  CONVERGENCE REACHED, FINAL GRADIENT:  0.13D-11



 Results for state 1.1
 =====================

 !MCSCF STATE  1.1 Energy             -78.026249661978
 Nuclear energy                        33.20152655
 Kinetic energy                        77.98771747
 One electron energy                 -169.85399602
 Two electron energy                   58.62621981
 Virial ratio                           2.00049408

 !MCSCF STATE  1.1 Dipole moment        0.00000000     0.00000000     0.00000000
 Dipole moment /Debye                   0.00000000     0.00000000     0.00000000

 Results for state 2.1
 =====================

 !MCSCF STATE  2.1 Energy             -77.649992115315
 Nuclear energy                        33.20152655
 Kinetic energy                        78.17063148
 One electron energy                 -169.28656388
 Two electron energy                   58.43504522
 Virial ratio                           1.99333971

 !MCSCF STATE  2.1 Dipole moment        0.00000000     0.00000000     0.00000000
 Dipole moment /Debye                   0.00000000     0.00000000     0.00000000

 Results for state 3.1
 =====================

 !MCSCF STATE  3.1 Energy             -77.464282317533
 Nuclear energy                        33.20152655
 Kinetic energy                        78.35354548
 One electron energy                 -168.71913174
 Two electron energy                   58.05332287
 Virial ratio                           1.98865063

 !MCSCF STATE  3.1 Dipole moment        0.00000000     0.00000000     0.00000000
 Dipole moment /Debye                   0.00000000     0.00000000     0.00000000

 State-averaged charge density matrix saved on record  2140.2 (density set 1)

 !MCSCF trans         <2.1|DMY|1.1>    -0.115419960751 au =    -0.293349063846 Debye
 !MCSCF trans         <3.1|DMY|2.1>    -0.173970492924 au =    -0.442159925406 Debye

 !MCSCF trans         <2.1|DMZ|1.1>    -1.506687462480 au =    -3.829366720890 Debye
 !MCSCF trans         <3.1|DMZ|2.1>    -2.271003722614 au =    -5.771937641320 Debye


 NATURAL ORBITALS (state averaged)
 =================================

  Orbital  Occupation    Energy     Coefficients
    1.1     2.00000   -11.24637     1 1s    0.70422     2 1s    0.70422
    2.1     2.00000   -11.24508     1 1s    0.70451     2 1s   -0.70451
    3.1     2.00000    -1.04264     1 1s    0.30857     2 1s    0.30857
    4.1     2.00000    -0.79338     1 1s    0.29218     2 1s   -0.29218
    5.1     2.00000    -0.64681     1 2py   0.32478     2 2py   0.32478
    6.1     2.00000    -0.60903     1 2pz   0.37548     2 2pz  -0.37548
    7.1     2.00000    -0.48154     1 2py   0.29046     2 2py  -0.29046
    8.1     1.00000     0.03250     1 2px   0.38126     1 2px   0.68341     2 2px  -0.38126     2 2px  -0.68341
    9.1     1.00000    -0.22639     1 2px   0.35793     1 2px   0.31964     2 2px   0.35793     2 2px   0.31964
   10.1    -0.00000     0.25979     1 1s   -1.41253     1 2py   0.27067     1 2pz  -0.60701     2 1s   -1.41253     2 2py  -0.27067
                                    2 2pz   0.60701     3 1s    0.87949     4 1s    1.10863     5 1s    1.10863     6 1s    0.87949
   11.1    -0.00000     0.26603     1 1s   -0.75693     1 2py  -0.61386     1 2pz  -0.27228     2 1s    0.75693     2 2py  -0.61386
                                    2 2pz  -0.27228     3 1s    1.38647     4 1s   -0.38468     5 1s    0.38468     6 1s   -1.38647
   12.1    -0.00000     0.31201     1 1s   -1.74903     1 2py   0.57676     2 1s    1.74903     2 2py   0.57676     3 1s    0.27202
                                    4 1s    1.56100     5 1s   -1.56100     6 1s   -0.27202
   13.1    -0.00000     0.36588     1 1s   -0.40563     1 2py  -1.62544     2 1s   -0.40563     2 2py   1.62544     3 1s    1.67787
                                    4 1s   -1.17179     5 1s   -1.17179     6 1s    1.67787
   14.1    -0.00000     0.48303     1 1s   -3.06792     1 2py   0.27359     1 2pz   3.00713     2 1s    3.06792     2 2py   0.27359
                                    2 2pz   3.00713     3 1s   -0.96458     4 1s   -0.27075     5 1s    0.27075     6 1s    0.96458
   15.1    -0.00000     0.67074     1 2pz  -0.51194     1 2pz   0.97279     2 2pz   0.51194     2 2pz  -0.97279     3 1s   -0.35213
                                    4 1s    0.28767     5 1s    0.28767     6 1s   -0.35213
   16.1    -0.00000     0.75540     1 1s   -0.68223     1 2py  -0.36769     1 2py   0.73235     1 2pz   1.05461     2 1s    0.68223
                                    2 2py  -0.36769     2 2py   0.73235     2 2pz   1.05461     3 1s   -0.50887     6 1s    0.50887
   17.1    -0.00000     0.76995     1 2px  -0.74773     1 2px   0.63451     2 2px  -0.74773     2 2px   0.63451
   18.1    -0.00000     0.85631     1 1s   -0.86572     1 1s    1.33489     1 2py  -0.43362     2 1s   -0.86572     2 1s    1.33489
                                    2 2py   0.43362     3 1s   -0.42317     4 1s   -0.37740     4 1s   -0.38891     5 1s   -0.37740
                                    5 1s   -0.38891     6 1s   -0.42317
   19.1    -0.00000     0.87062     1 2px  -0.80221     1 2px   1.10331     2 2px   0.80221     2 2px  -1.10331
   20.1    -0.00000     0.95862     1 1s   -0.70345     1 2py  -0.39121     1 2pz   0.53275     1 2py   0.84166     1 2pz  -0.28576
                                    2 1s    0.70345     2 2py  -0.39121     2 2pz   0.53275     2 2py   0.84166     2 2pz  -0.28576
                                    3 1s    0.27843     3 1s   -0.40896     4 1s    0.36003     4 1s    0.58887     5 1s   -0.36003
                                    5 1s   -0.58887     6 1s   -0.27843     6 1s    0.40896
   21.1    -0.00000     1.11065     1 1s   -0.76472     1 2py   0.56648     1 2py  -0.80684     1 2pz   0.38427     2 1s    0.76472
                                    2 2py   0.56648     2 2py  -0.80684     2 2pz   0.38427     3 1s    0.64756     4 1s    0.64301
                                    4 1s   -1.12931     5 1s   -0.64301     5 1s    1.12931     6 1s   -0.64756
   22.1    -0.00000     1.11662     1 1s   -0.73698     1 2py   0.86566     1 2py  -2.56799     1 2pz  -0.68409     2 1s   -0.73698
                                    2 2py  -0.86566     2 2py   2.56799     2 2pz   0.68409     3 1s    1.65369     4 1s   -1.03561
                                    5 1s   -1.03561     6 1s    1.65369
   23.1    -0.00000     1.19407     1 1s    1.03636     1 1s   -1.72314     1 2pz   0.35814     1 2pz  -0.49115     2 1s    1.03636
                                    2 1s   -1.72314     2 2pz  -0.35814     2 2pz   0.49115     3 1s   -0.42305     3 1s    0.82321
                                    4 1s   -0.44432     4 1s    0.90248     5 1s   -0.44432     5 1s    0.90248     6 1s   -0.42305
                                    6 1s    0.82321
   24.1    -0.00000     1.20675     1 1s   -0.47162     1 1s    0.38417     1 2pz  -0.66738     1 2pz   1.27164     2 1s    0.47162
                                    2 1s   -0.38417     2 2pz  -0.66738     2 2pz   1.27164     3 1s    0.53591     3 1s   -1.16097
                                    4 1s    0.33839     4 1s   -0.68463     5 1s   -0.33839     5 1s    0.68463     6 1s   -0.53591
                                    6 1s    1.16097
   25.1    -0.00000     1.31615     1 1s   -1.59684     1 1s    5.50163     1 2py  -0.58649     1 2pz  -2.04026     2 1s    1.59684
                                    2 1s   -5.50163     2 2py  -0.58649     2 2pz  -2.04026     4 1s   -0.64660     5 1s    0.64660
   26.1    -0.00000     1.40386     1 1s    0.52871     1 2py   1.94046     1 2pz   0.71028     2 1s    0.52871     2 2py  -1.94046
                                    2 2pz  -0.71028     3 1s   -0.72941     3 1s   -0.69109     4 1s    0.59162     5 1s    0.59162
                                    6 1s   -0.72941     6 1s   -0.69109
   27.1    -0.00000     1.70971     1 3d1+  0.61646     2 3d1+ -0.61646
   28.1    -0.00000     1.81089     1 3d2-  0.68029     2 3d2-  0.68029
   29.1    -0.00000     2.10635     1 3d2-  0.73273     2 3d2- -0.73273
   30.1    -0.00000     2.21435     1 1s   -0.93583     1 2py   0.25829     1 2pz   0.73614     1 3d1-  0.62596     2 1s    0.93583
                                    2 2py   0.25829     2 2pz   0.73614     2 3d1- -0.62596     3 1s   -0.59734     4 1s    0.30240
                                    5 1s   -0.30240     6 1s    0.59734
   31.1    -0.00000     2.22195     1 1s    0.29037     1 1s   -0.46122     1 2py   0.66072     1 3d2+  0.69042     2 1s    0.29037
                                    2 1s   -0.46122     2 2py  -0.66072     2 3d2+  0.69042     4 1s    0.51265     4 1s    0.25330
                                    5 1s    0.51265     5 1s    0.25330
   32.1    -0.00000     2.41810     1 1s   -0.45659     1 2pz   0.26947     1 2pz  -0.39661     1 3d0   0.68330     2 1s   -0.45659
                                    2 2pz  -0.26947     2 2pz   0.39661     2 3d0   0.68330     4 1s    0.33230     5 1s    0.33230
   33.1    -0.00000     2.60308     1 1s    0.29973     1 1s   -1.73355     1 2py   0.29068     1 2pz   0.58429     1 3d2+  0.76918
                                    2 1s   -0.29973     2 1s    1.73355     2 2py   0.29068     2 2pz   0.58429     2 3d2+ -0.76918
                                    4 1s    0.61604     5 1s   -0.61604
   34.1    -0.00000     2.67772     1 2px  -0.26496     1 3d1+  0.89851     2 2px   0.26496     2 3d1+  0.89851
   35.1    -0.00000     2.99510     1 3d1-  0.95034     2 3d1-  0.95034     3 1s   -0.54434     4 1s    0.25971     5 1s    0.25971
                                    6 1s   -0.54434
   36.1    -0.00000     3.07805     1 1s    0.31680     1 1s    1.91325     1 2pz  -0.75090     1 2pz  -1.13255     1 3d0   1.09978
                                    2 1s   -0.31680     2 1s   -1.91325     2 2pz  -0.75090     2 2pz  -1.13255     2 3d0  -1.09978


 Natural orbital dump (state averaged) at molpro section  2140.2    (Orbital set 2)



 **********************************************************************************************************************************
 DATASETS  * FILE   NREC   LENGTH (MB)   RECORD NAMES
              1      20       31.45       500      610      700      900      950      970     1000      129      960     1100   
                                          VAR    BASINP    GEOM    SYMINP    ZMAT    AOBASIS   BASIS     P2S    ABASIS      S 
                                         1400     1410     1200     1210     1080     1600     1650     1300     1700     1380   
                                           T        V       H0       H01     AOSYM     SMH    MOLCAS    ERIS     OPER     JKOP   

              2       5        5.42       700     1000      520     2100     2140   
                                         GEOM     BASIS   MCVARS     RHF     MCSCF   

 PROGRAMS   *        TOTAL     MULTI    HF-SCF       INT
 CPU TIMES  *         0.63      0.17      0.10      0.25
 REAL TIME  *         0.94 SEC
 DISK USED  *        38.63 MB
 **********************************************************************************************************************************
 Molecular orbitals read from record     2140.2  Type=MCSCF/NATURAL (state averaged)
 Occupation numbers read from record     2140.2  Type=MCSCF/NATURAL (state averaged)
 Orbital energies read from record       2140.2  Type=MCSCF/NATURAL (state averaged)
 Redundancy group numbers read from rec  2140.2  Type=MCSCF/NATURAL (state averaged)

 MULTI/6-31G* energy=    -77.464282317533

           MULTI          HF-SCF
    -77.46428232    -78.00843840
 **********************************************************************************************************************************
 Molpro calculation terminated
