
 Primary working directories    : /scratch.local/johan406.molpro_temp/molpro.tWK88Q4I18
 Secondary working directories  : /scratch.local/johan406.molpro_temp/molpro.tWK88Q4I18
 Wavefunction directory         : /home/goodpast/johan406/wfu/
 Main file repository           : /scratch.local/johan406.molpro_temp/molpro.tWK88Q4I18/

 id        : roweumn

 Nodes     nprocs
 cn0117       1

 Using customized tuning parameters: mindgm=1; mindgv=20; mindgc=4; mindgr=1; noblas=0; minvec=7
 default implementation of scratch files=df  


 Variables initialized (934), CPU time= 0.01 sec
                                                                                 !leave this line blank
 
 gprint, orbitals=30
 memory, 125., m
 symmetry, nosym
 nelect=16
 basis=6-31g*
 
 geometry={
 C 0.0 0.0 0.6943
 C 0.0 0.0 -0.6943
 H 0.0 0.8863 1.3121
 H -0.0 -0.8863 1.3121
 H 0.0 0.8863 -1.3121
 H 0.0 -0.8863 -1.3121
 }
 
 hf
 {multi,
 closed 7
 occ 9
 wf,spin=0;STATE,3
 }
 
 Commands  initialized (763), CPU time= 0.01 sec, 617 directives.
 Default parameters read. Elapsed time= 0.09 sec

 Checking input...
 Passed
1


                                         ***  PROGRAM SYSTEM MOLPRO  ***
                                       Copyright, TTI GmbH Stuttgart, 2015
                                    Version 2019.2 linked Oct 25 2019 22:50:27


 **********************************************************************************************************************************
 LABEL *                                                                                 
  64 bit serial version                                                                  DATE: 26-Jan-23          TIME: 20:15:34  
 **********************************************************************************************************************************

 SHA1:             8dbd9ae1082e4ce945b0f27595c9eb2d4aa09004
 **********************************************************************************************************************************


 Variable memory set to  125000000 words,  buffer space 

 SETTING NELECT         =        16.00000000                                  
 SETTING BASIS          =    6-31G*
 ZSYMEL=NOSYM


Geometry recognized as XYZ



 Recomputing integrals since basis changed


 Using spherical harmonics

 Library entry C      S 6-31G                selected for orbital group  1
 Library entry C      P 6-31G                selected for orbital group  1
 Library entry C      D 6-31G*               selected for orbital group  1
 Library entry H      S 6-31G                selected for orbital group  2


 PROGRAM * SEWARD (Integral evaluation for generally contracted gaussian basis sets)     Author: Roland Lindh, 1990

 Geometry written to block  1 of record 700


 Point group  C1  



 ATOMIC COORDINATES

 NR  ATOM    CHARGE       X              Y              Z

   1  C       6.00    0.000000000    0.000000000    1.312036848
   2  C       6.00    0.000000000    0.000000000   -1.312036848
   3  H       1.00    0.000000000    1.674864264    2.479509648
   4  H       1.00    0.000000000   -1.674864264    2.479509648
   5  H       1.00    0.000000000    1.674864264   -2.479509648
   6  H       1.00    0.000000000   -1.674864264   -2.479509648

 Bond lengths in Bohr (Angstrom)

 1-2  2.624073697  1-3  2.041607955  1-4  2.041607955  2-5  2.041607955  2-6  2.041607955
     ( 1.388600000)     ( 1.080372403)     ( 1.080372403)     ( 1.080372403)     ( 1.080372403)

 Bond angles

  1-2-5  124.87862444   1-2-6  124.87862444   2-1-3  124.87862444   2-1-4  124.87862444

  3-1-4  110.24275112   5-2-6  110.24275112

 NUCLEAR CHARGE:                   16
 NUMBER OF PRIMITIVE AOS:          72
 NUMBER OF SYMMETRY AOS:           70
 NUMBER OF CONTRACTIONS:           36   (   36A   )
 NUMBER OF CORE ORBITALS:           2   (    2A   )
 NUMBER OF VALENCE ORBITALS:       12   (   12A   )


 NUCLEAR REPULSION ENERGY   32.59925397

 EXTRA SYMMETRY OF AOS IN SYMMETRY 1:   1 1 1 2 1 1 2 1 1 1   3 2 1 1 1 1 1 2 1 1   2 1 1 1 3 2 1 1 1 1   1 1 1 1 1 1

 Eigenvalues of metric

         1 0.102E-01 0.211E-01 0.345E-01 0.423E-01 0.772E-01 0.214E+00 0.227E+00 0.231E+00


 Contracted 2-electron integrals neglected if value below      1.0D-11
 AO integral compression algorithm  1   Integral accuracy      1.0D-11

     0.786 MB (compressed) written to integral file ( 37.3%)


 NUMBER OF SORTED TWO-ELECTRON INTEGRALS:     222111.     BUFFER LENGTH:  32768
 NUMBER OF SEGMENTS:   1  SEGMENT LENGTH:     222111      RECORD LENGTH: 524288

 Memory used in sort:       0.78 MW

 SORT1 READ      284735. AND WROTE       98215. INTEGRALS IN      1 RECORDS. CPU TIME:     0.00 SEC, REAL TIME:     0.00 SEC
 SORT2 READ       98215. AND WROTE      222111. INTEGRALS IN      3 RECORDS. CPU TIME:     0.02 SEC, REAL TIME:     0.02 SEC

 FILE SIZES:   FILE 1:    30.9 MBYTE,  FILE 4:     4.2 MBYTE,   TOTAL:     35.1 MBYTE

 OPERATOR DM      FOR CENTER  0  COORDINATES:    0.000000    0.000000    0.000000


 **********************************************************************************************************************************
 DATASETS  * FILE   NREC   LENGTH (MB)   RECORD NAMES
              1      19       30.63       500      610      700      900      950      970     1000      129      960     1100   
                                          VAR    BASINP    GEOM    SYMINP    ZMAT    AOBASIS   BASIS     P2S    ABASIS      S 
                                         1400     1410     1200     1210     1080     1600     1650     1300     1700   
                                           T        V       H0       H01     AOSYM     SMH    MOLCAS    ERIS     OPER   

 PROGRAMS   *        TOTAL       INT
 CPU TIMES  *         0.35      0.25
 REAL TIME  *         0.57 SEC
 DISK USED  *        35.45 MB
 **********************************************************************************************************************************


 PROGRAM * RHF-SCF (CLOSED SHELL)       Authors: W. Meyer, H.-J. Werner


 NUMBER OF ELECTRONS:       8+    8-    SPACE SYMMETRY=1    SPIN SYMMETRY: Singlet 
 CONVERGENCE THRESHOLDS:    1.00E-05 (Density)    1.00E-07 (Energy)
 MAX. NUMBER OF ITERATIONS:       60
 INTERPOLATION TYPE:            DIIS
 INTERPOLATION STEPS:              2 (START)      1 (STEP)
 LEVEL SHIFTS:                  0.00 (CLOSED)  0.00 (OPEN) 



 Orbital guess generated from atomic densities. Full valence occupancy:    8

 Molecular orbital dump at record        2100.2

 Initial occupancy:   8

 ITERATION    DDIFF          GRAD             ENERGY        2-EL.EN.            DIPOLE MOMENTS         DIIS   ORB.
    1      0.000D+00      0.000D+00       -77.99975371    116.896422    0.00000   -0.00000   -0.00000    0    start
    2      0.000D+00      0.796D-02       -78.02003734    115.345948   -0.00000    0.00000   -0.00000    1    diag
    3      0.777D-02      0.267D-02       -78.02189342    115.902398    0.00000    0.00000   -0.00000    2    diag
    4      0.246D-02      0.694D-03       -78.02209464    115.797973    0.00000   -0.00000    0.00000    3    diag
    5      0.103D-02      0.677D-04       -78.02209670    115.801227    0.00000    0.00000   -0.00000    4    diag
    6      0.136D-03      0.872D-05       -78.02209673    115.800794   -0.00000   -0.00000   -0.00000    5    diag
    7      0.158D-04      0.136D-05       -78.02209673    115.800799    0.00000   -0.00000   -0.00000    6    diag
    8      0.231D-05      0.162D-06       -78.02209673    115.800793   -0.00000   -0.00000    0.00000    0    orth

 Final occupancy:   8

 !RHF STATE  1.1 Energy               -78.022096734325
 Nuclear energy                        32.59925397
 One-electron energy                 -168.52174714
 Two-electron energy                   57.90039644
 Virial quotient                       -1.00241559
 !RHF STATE  1.1 Dipole moment         -0.00000000    -0.00000000     0.00000000
 Dipole moment /Debye                  -0.00000000    -0.00000000     0.00000000

 ELECTRON ORBITALS
 =================

  Orbital  Occupation    Energy     Coefficients
    1.1     2.00000   -11.23723     1 1s    0.70427     2 1s    0.70427
    2.1     2.00000   -11.23600     1 1s    0.70451     2 1s   -0.70451
    3.1     2.00000    -1.01011     1 1s    0.30156     2 1s    0.30156
    4.1     2.00000    -0.80499     2 1s   -0.23980
    5.1     2.00000    -0.61982     1 2py   0.32197     2 2py   0.32197
    6.1     2.00000    -0.58992     1 2pz   0.40320     2 2pz  -0.40320
    7.1     2.00000    -0.50347     1 2py   0.30622     2 2py  -0.30622
    8.1     2.00000    -0.35894     1 2px   0.37022     1 2px   0.31625     2 2px   0.37022     2 2px   0.31625
    9.1     0.00000     0.16496     1 2px   0.34715     1 2px   0.70228     2 2px  -0.34715     2 2px  -0.70228
   10.1     0.00000     0.27149     1 1s   -1.53759     1 2pz  -0.69126     2 1s   -1.53759     2 2pz   0.69126     3 1s    1.08001
                                    4 1s    1.08001     5 1s    1.08001     6 1s    1.08001
   11.1     0.00000     0.29278     1 2py  -0.77302     2 2py  -0.77302     3 1s    1.06197     4 1s   -1.06197     5 1s    1.06197
                                    6 1s   -1.06197
   12.1     0.00000     0.29741     1 1s    1.83104     2 1s   -1.83104     3 1s   -1.05128     4 1s   -1.05128     5 1s    1.05128
                                    6 1s    1.05128
   13.1     0.00000     0.38974     1 2py   0.26144     1 2py   1.70280     2 2py  -0.26144     2 2py  -1.70280     3 1s   -1.54589
                                    4 1s    1.54589     5 1s    1.54589     6 1s   -1.54589
   14.1     0.00000     0.48855     1 1s   -2.57142     1 2pz   2.90458     2 1s    2.57142     2 2pz   2.90458     3 1s   -0.69185
                                    4 1s   -0.69185     5 1s    0.69185     6 1s    0.69185
   15.1     0.00000     0.69441     1 1s    0.28645     1 2pz  -0.58063     1 2pz   1.04517     2 1s    0.28645     2 2pz   0.58063
                                    2 2pz  -1.04517
   16.1     0.00000     0.72978     1 2py  -0.41034     1 2py   0.68317     2 2py  -0.41034     2 2py   0.68317     3 1s   -0.37496
                                    4 1s    0.37496     5 1s   -0.37496     6 1s    0.37496
   17.1     0.00000     0.78530     1 2px  -0.75055     1 2px   0.64047     2 2px  -0.75055     2 2px   0.64047
   18.1     0.00000     0.87900     1 1s   -0.89376     1 1s    1.64709     1 2pz   0.56343     2 1s   -0.89376     2 1s    1.64709
                                    2 2pz  -0.56343     3 1s   -0.39983     3 1s   -0.32693     4 1s   -0.39983     4 1s   -0.32693
                                    5 1s   -0.39983     5 1s   -0.32693     6 1s   -0.39983     6 1s   -0.32693
   19.1     0.00000     0.88108     1 2px  -0.81335     1 2px   1.05636     2 2px   0.81335     2 2px  -1.05636
   20.1     0.00000     0.91049     1 2pz  -0.61284     1 2pz   1.04068     2 2pz  -0.61284     2 2pz   1.04068     3 1s   -0.37113
                                    4 1s   -0.37113     5 1s    0.37113     6 1s    0.37113
   21.1     0.00000     1.12175     1 2py  -0.68034     1 2py   1.04167     2 2py  -0.68034     2 2py   1.04167     3 1s    0.39088
                                    3 1s   -1.04063     4 1s   -0.39088     4 1s    1.04063     5 1s    0.39088     5 1s   -1.04063
                                    6 1s   -0.39088     6 1s    1.04063
   22.1     0.00000     1.14716     1 2py   0.90953     1 2py  -2.71981     2 2py  -0.90953     2 2py   2.71981     3 1s    1.43274
                                    4 1s   -1.43274     5 1s   -1.43274     6 1s    1.43274
   23.1     0.00000     1.22447     1 1s    1.01645     1 1s   -1.69072     1 2pz   0.36084     1 2pz  -0.50259     2 1s    1.01645
                                    2 1s   -1.69072     2 2pz  -0.36084     2 2pz   0.50259     3 1s   -0.45750     3 1s    0.86521
                                    4 1s   -0.45750     4 1s    0.86521     5 1s   -0.45750     5 1s    0.86521     6 1s   -0.45750
                                    6 1s    0.86521
   24.1     0.00000     1.22860     1 1s   -0.51462     1 1s    0.56611     1 2pz  -0.63405     1 2pz   1.16716     2 1s    0.51462
                                    2 1s   -0.56611     2 2pz  -0.63405     2 2pz   1.16716     3 1s    0.48367     3 1s   -0.93658
                                    4 1s    0.48367     4 1s   -0.93658     5 1s   -0.48367     5 1s    0.93658     6 1s   -0.48367
                                    6 1s    0.93658
   25.1     0.00000     1.30662     1 1s   -1.57797     1 1s    4.87410     1 2pz  -1.62412     2 1s    1.57797     2 1s   -4.87410
                                    2 2pz  -1.62412     3 1s   -0.34401     4 1s   -0.34401     5 1s    0.34401     6 1s    0.34401
   26.1     0.00000     1.36105     1 2py   2.15108     2 2py  -2.15108     3 1s   -0.65834     3 1s   -0.49446     4 1s    0.65834
                                    4 1s    0.49446     5 1s    0.65834     5 1s    0.49446     6 1s   -0.65834     6 1s   -0.49446
   27.1     0.00000     1.71864     1 3d1+  0.62595     2 3d1+ -0.62595
   28.1     0.00000     1.83972     1 3d2-  0.68562     2 3d2-  0.68562
   29.1     0.00000     2.10976     1 3d2-  0.73075     2 3d2- -0.73075
   30.1     0.00000     2.20925     1 1s   -0.65417     1 2pz  -0.27981     1 3d2+  0.71514     2 1s   -0.65417     2 2pz   0.27981
                                    2 3d2+  0.71514     3 1s    0.37726     4 1s    0.37726     5 1s    0.37726     6 1s    0.37726
   31.1     0.00000     2.32724     1 2py   0.26665     1 3d1-  0.70235     2 2py   0.26665     2 3d1- -0.70235     3 1s   -0.51799
                                    4 1s    0.51799     5 1s   -0.51799     6 1s    0.51799
   32.1     0.00000     2.32752     1 1s   -0.46636     1 2pz   0.30105     1 2pz  -0.45452     1 3d0   0.67375     2 1s   -0.46636
                                    2 2pz  -0.30105     2 2pz   0.45452     2 3d0   0.67375
   33.1     0.00000     2.54553     1 1s    0.26244     1 1s   -0.88925     1 3d2+  0.78163     2 1s   -0.26244     2 1s    0.88925
                                    2 3d2+ -0.78163     3 1s    0.41677     4 1s    0.41677     5 1s   -0.41677     6 1s   -0.41677
   34.1     0.00000     2.64864     1 2px  -0.25660     1 3d1+  0.87345     2 2px   0.25660     2 3d1+  0.87345
   35.1     0.00000     3.00885     1 1s    2.02212     1 2pz  -0.64954     1 2pz  -1.22360     1 3d0   1.08040     2 1s   -2.02212
                                    2 2pz  -0.64954     2 2pz  -1.22360     2 3d0  -1.08040
   36.1     0.00000     3.08055     1 2py   0.46256     1 3d1-  0.95485     2 2py  -0.46256     2 3d1-  0.95485     3 1s   -0.48595
                                    4 1s    0.48595     5 1s    0.48595     6 1s   -0.48595


 HOMO      8.1    -0.358937 =      -9.7672eV
 LUMO      9.1     0.164964 =       4.4889eV
 LUMO-HOMO         0.523900 =      14.2561eV


 **********************************************************************************************************************************
 DATASETS  * FILE   NREC   LENGTH (MB)   RECORD NAMES
              1      19       30.63       500      610      700      900      950      970     1000      129      960     1100   
                                          VAR    BASINP    GEOM    SYMINP    ZMAT    AOBASIS   BASIS     P2S    ABASIS      S 
                                         1400     1410     1200     1210     1080     1600     1650     1300     1700   
                                           T        V       H0       H01     AOSYM     SMH    MOLCAS    ERIS     OPER   

              2       4        2.86       700     1000      520     2100   
                                         GEOM     BASIS   MCVARS     RHF  

 PROGRAMS   *        TOTAL    HF-SCF       INT
 CPU TIMES  *         0.44      0.09      0.25
 REAL TIME  *         0.69 SEC
 DISK USED  *        35.45 MB
 **********************************************************************************************************************************


 PROGRAM * MULTI (Direct Multiconfiguration SCF)       Authors: P.J. Knowles, H.-J. Werner (1984)


 Number of closed-shell orbitals:   7 (   7 )
 Number of active  orbitals:        2 (   2 )
 Number of external orbitals:      27 (  27 )

 State symmetry 1

 Number of electrons:     2    Spin symmetry=Singlet   Space symmetry=1
 Number of states:        3
 Number of CSFs:          3   (4 determinants, 4 intermediate states)

 Molecular orbitals read from record     2100.2  Type=RHF/CANONICAL (state 1.1)

 EXTRA SYMMETRY OF MOS IN SYMMETRY 1:   1 1 1 1 1 1 1 2 2 1   1 1 1 1 1 1 2 1 2 1   1 1 1 1 1 1 2 3 3 1   1 1 1 2 1 1

 Wavefunction dump at record             2140.2

 Convergence thresholds  0.10E-01 (gradient)  0.10E-05 (energy)  0.10E-02 (step length)

 Weight factors for state symmetry  1:    0.33333   0.33333   0.33333

 Number of orbital rotations:      257   (    14 Core/Active    189 Core/Virtual   0 Active/Active     54 Active/Virtual)
 Total number of variables:        269

 Micro-Iterations solved by the two-step solver

 ITER. MIC  NCI  NEG     ENERGY(VAR)     ENERGY(PROJ)   ENERGY CHANGE     GRAD(0)  GRAD(ORB)   GRAD(CI)     STEP       TIME

   1    3    3    0     -77.74012214     -77.74561491   -0.00549277    0.12317466 0.00000112 0.00000000  0.59D-01      0.06
   2    2    3    0     -77.74553730     -77.74554005   -0.00000274    0.00259972 0.00000135 0.00000000  0.14D-02      0.09
   3    2    3    0     -77.74554005     -77.74554005   -0.00000000    0.00000157 0.00000000 0.00000000  0.94D-06      0.12

 ** WVFN ****  CONVERGENCE REACHED, FINAL GRADIENT:  0.66D-12



 Results for state 1.1
 =====================

 !MCSCF STATE  1.1 Energy             -78.042839371748
 Nuclear energy                        32.59925397
 Kinetic energy                        77.88116647
 One electron energy                 -168.61306205
 Two electron energy                   57.97096870
 Virial ratio                           2.00207589

 !MCSCF STATE  1.1 Dipole moment        0.00000000     0.00000000     0.00000000
 Dipole moment /Debye                   0.00000000     0.00000000     0.00000000

 Results for state 2.1
 =====================

 !MCSCF STATE  2.1 Energy             -77.679513646657
 Nuclear energy                        32.59925397
 Kinetic energy                        78.07412995
 One electron energy                 -168.14123894
 Two electron energy                   57.86247132
 Virial ratio                           1.99494562

 !MCSCF STATE  2.1 Dipole moment        0.00000000     0.00000000     0.00000000
 Dipole moment /Debye                   0.00000000     0.00000000     0.00000000

 Results for state 3.1
 =====================

 !MCSCF STATE  3.1 Energy             -77.514267123757
 Nuclear energy                        32.59925397
 Kinetic energy                        78.26709343
 One electron energy                 -167.66941583
 Two electron energy                   57.55589473
 Virial ratio                           1.99038132

 !MCSCF STATE  3.1 Dipole moment        0.00000000     0.00000000     0.00000000
 Dipole moment /Debye                   0.00000000     0.00000000     0.00000000

 State-averaged charge density matrix saved on record  2140.2 (density set 1)

 !MCSCF trans         <2.1|DMZ|1.1>    -1.510574593152 au =    -3.839246174462 Debye
 !MCSCF trans         <3.1|DMZ|2.1>    -2.370759859836 au =    -6.025475844563 Debye


 NATURAL ORBITALS (state averaged)
 =================================

  Orbital  Occupation    Energy     Coefficients
    1.1     2.00000   -11.24896     1 1s    0.70428     2 1s    0.70428
    2.1     2.00000   -11.24797     1 1s    0.70447     2 1s   -0.70447
    3.1     2.00000    -1.02121     1 1s    0.30917     2 1s    0.30917
    4.1     2.00000    -0.81088     1 1s    0.27770     2 1s   -0.27770
    5.1     2.00000    -0.63002     1 2py   0.32707     2 2py   0.32707
    6.1     2.00000    -0.60317     1 2pz   0.40523     2 2pz  -0.40523
    7.1     2.00000    -0.50823     1 2py   0.31190     2 2py  -0.31190
    8.1     1.00000    -0.21679     1 2px   0.35368     1 2px   0.32863     2 2px   0.35368     2 2px   0.32863
    9.1     1.00000     0.02275     1 2px   0.38116     1 2px   0.66068     2 2px  -0.38116     2 2px  -0.66068
   10.1    -0.00000     0.26989     1 1s   -1.53597     1 2pz  -0.69736     2 1s   -1.53597     2 2pz   0.69736     3 1s    1.08048
                                    4 1s    1.08048     5 1s    1.08048     6 1s    1.08048
   11.1    -0.00000     0.28520     1 2py  -0.76576     2 2py  -0.76576     3 1s    1.05515     4 1s   -1.05515     5 1s    1.05515
                                    6 1s   -1.05515
   12.1    -0.00000     0.29467     1 1s    1.85967     2 1s   -1.85967     3 1s   -1.04291     4 1s   -1.04291     5 1s    1.04291
                                    6 1s    1.04291
   13.1    -0.00000     0.38629     1 2py   0.26430     1 2py   1.69133     2 2py  -0.26430     2 2py  -1.69133     3 1s   -1.54015
                                    4 1s    1.54015     5 1s    1.54015     6 1s   -1.54015
   14.1    -0.00000     0.48384     1 1s   -2.53195     1 2pz   2.87465     2 1s    2.53195     2 2pz   2.87465     3 1s   -0.70350
                                    4 1s   -0.70350     5 1s    0.70350     6 1s    0.70350
   15.1    -0.00000     0.68175     1 1s    0.32334     1 2pz  -0.57064     1 2pz   1.01512     2 1s    0.32334     2 2pz   0.57064
                                    2 2pz  -1.01512
   16.1    -0.00000     0.72126     1 2py  -0.42137     1 2py   0.68964     2 2py  -0.42137     2 2py   0.68964     3 1s   -0.37035
                                    4 1s    0.37035     5 1s   -0.37035     6 1s    0.37035
   17.1    -0.00000     0.78033     1 2px  -0.75788     1 2px   0.63447     2 2px  -0.75788     2 2px   0.63447
   18.1    -0.00000     0.86568     1 2px  -0.79891     1 2px   1.08276     2 2px   0.79891     2 2px  -1.08276
   19.1    -0.00000     0.87895     1 1s   -0.88515     1 1s    1.66556     1 2pz   0.60318     2 1s   -0.88515     2 1s    1.66556
                                    2 2pz  -0.60318     3 1s   -0.39983     3 1s   -0.33774     4 1s   -0.39983     4 1s   -0.33774
                                    5 1s   -0.39983     5 1s   -0.33774     6 1s   -0.39983     6 1s   -0.33774
   20.1    -0.00000     0.89606     1 2pz  -0.61502     1 2pz   1.12692     2 2pz  -0.61502     2 2pz   1.12692     3 1s   -0.37027
                                    4 1s   -0.37027     5 1s    0.37027     6 1s    0.37027
   21.1    -0.00000     1.10887     1 2py  -0.66952     1 2py   1.04228     2 2py  -0.66952     2 2py   1.04228     3 1s    0.39152
                                    3 1s   -1.04834     4 1s   -0.39152     4 1s    1.04834     5 1s    0.39152     5 1s   -1.04834
                                    6 1s   -0.39152     6 1s    1.04834
   22.1    -0.00000     1.13672     1 2py   0.90668     1 2py  -2.72644     2 2py  -0.90668     2 2py   2.72644     3 1s    1.44035
                                    4 1s   -1.44035     5 1s   -1.44035     6 1s    1.44035
   23.1    -0.00000     1.22266     1 1s    1.01210     1 1s   -1.68721     1 2pz   0.36410     1 2pz  -0.50763     2 1s    1.01210
                                    2 1s   -1.68721     2 2pz  -0.36410     2 2pz   0.50763     3 1s   -0.45797     3 1s    0.86494
                                    4 1s   -0.45797     4 1s    0.86494     5 1s   -0.45797     5 1s    0.86494     6 1s   -0.45797
                                    6 1s    0.86494
   24.1    -0.00000     1.22728     1 1s   -0.40666     1 2pz  -0.65082     1 2pz   1.27414     2 1s    0.40666     2 2pz  -0.65082
                                    2 2pz   1.27414     3 1s    0.49071     3 1s   -0.91045     4 1s    0.49071     4 1s   -0.91045
                                    5 1s   -0.49071     5 1s    0.91045     6 1s   -0.49071     6 1s    0.91045
   25.1    -0.00000     1.28904     1 1s   -1.60983     1 1s    4.90284     1 2pz  -1.53265     2 1s    1.60983     2 1s   -4.90284
                                    2 2pz  -1.53265     3 1s   -0.40943     4 1s   -0.40943     5 1s    0.40943     6 1s    0.40943
   26.1    -0.00000     1.35395     1 2py   2.15066     2 2py  -2.15066     3 1s   -0.65764     3 1s   -0.49361     4 1s    0.65764
                                    4 1s    0.49361     5 1s    0.65764     5 1s    0.49361     6 1s   -0.65764     6 1s   -0.49361
   27.1    -0.00000     1.69644     1 3d1+  0.62577     2 3d1+ -0.62577
   28.1    -0.00000     1.82853     1 3d2-  0.68562     2 3d2-  0.68562
   29.1    -0.00000     2.08949     1 3d2-  0.73075     2 3d2- -0.73075
   30.1    -0.00000     2.19681     1 1s   -0.65076     1 2pz  -0.28188     1 3d2+  0.71439     2 1s   -0.65076     2 2pz   0.28188
                                    2 3d2+  0.71439     3 1s    0.37883     4 1s    0.37883     5 1s    0.37883     6 1s    0.37883
   31.1    -0.00000     2.30971     1 1s   -0.46356     1 2pz   0.30671     1 2pz  -0.45769     1 3d0   0.67330     2 1s   -0.46356
                                    2 2pz  -0.30671     2 2pz   0.45769     2 3d0   0.67330
   32.1    -0.00000     2.31278     1 2py   0.27330     1 3d1-  0.70067     2 2py   0.27330     2 3d1- -0.70067     3 1s   -0.52121
                                    4 1s    0.52121     5 1s   -0.52121     6 1s    0.52121
   33.1    -0.00000     2.52822     1 1s    0.26274     1 1s   -0.89352     1 3d2+  0.78093     2 1s   -0.26274     2 1s    0.89352
                                    2 3d2+ -0.78093     3 1s    0.41961     4 1s    0.41961     5 1s   -0.41961     6 1s   -0.41961
   34.1    -0.00000     2.62819     1 2px  -0.25703     1 3d1+  0.87379     2 2px   0.25703     2 3d1+  0.87379
   35.1    -0.00000     2.99385     1 1s    2.04184     1 2pz  -0.64258     1 2pz  -1.23425     1 3d0   1.08160     2 1s   -2.04184
                                    2 2pz  -0.64258     2 2pz  -1.23425     2 3d0  -1.08160
   36.1    -0.00000     3.06893     1 2py   0.46132     1 3d1-  0.95453     2 2py  -0.46132     2 3d1-  0.95453     3 1s   -0.48784
                                    4 1s    0.48784     5 1s    0.48784     6 1s   -0.48784


 EXTRA SYMMETRY OF MOS IN SYMMETRY 1:   1 1 1 1 1 1 1 2 2 1   1 1 1 1 1 1 2 2 1 1   1 1 1 1 1 1 2 3 3 1   1 1 1 2 1 1

 Natural orbital dump (state averaged) at molpro section  2140.2    (Orbital set 2)



 **********************************************************************************************************************************
 DATASETS  * FILE   NREC   LENGTH (MB)   RECORD NAMES
              1      20       31.36       500      610      700      900      950      970     1000      129      960     1100   
                                          VAR    BASINP    GEOM    SYMINP    ZMAT    AOBASIS   BASIS     P2S    ABASIS      S 
                                         1400     1410     1200     1210     1080     1600     1650     1300     1700     1380   
                                           T        V       H0       H01     AOSYM     SMH    MOLCAS    ERIS     OPER     JKOP   

              2       5        5.42       700     1000      520     2100     2140   
                                         GEOM     BASIS   MCVARS     RHF     MCSCF   

 PROGRAMS   *        TOTAL     MULTI    HF-SCF       INT
 CPU TIMES  *         0.61      0.16      0.09      0.25
 REAL TIME  *         0.88 SEC
 DISK USED  *        38.54 MB
 **********************************************************************************************************************************
 Molecular orbitals read from record     2140.2  Type=MCSCF/NATURAL (state averaged)
 Occupation numbers read from record     2140.2  Type=MCSCF/NATURAL (state averaged)
 Orbital energies read from record       2140.2  Type=MCSCF/NATURAL (state averaged)
 Redundancy group numbers read from rec  2140.2  Type=MCSCF/NATURAL (state averaged)

 MULTI/6-31G* energy=    -77.514267123757

           MULTI          HF-SCF
    -77.51426712    -78.02209673
 **********************************************************************************************************************************
 Molpro calculation terminated
