
 Primary working directories    : /scratch.local/johan406.molpro_temp/molpro.IuATlrRtOE
 Secondary working directories  : /scratch.local/johan406.molpro_temp/molpro.IuATlrRtOE
 Wavefunction directory         : /home/goodpast/johan406/wfu/
 Main file repository           : /scratch.local/johan406.molpro_temp/molpro.IuATlrRtOE/

 id        : roweumn

 Nodes     nprocs
 cn0117       1

 Using customized tuning parameters: mindgm=1; mindgv=20; mindgc=4; mindgr=1; noblas=0; minvec=7
 default implementation of scratch files=df  


 Variables initialized (934), CPU time= 0.01 sec
                                                                                 !leave this line blank
 
 gprint, orbitals=30
 memory, 125., m
 symmetry, nosym
 nelect=16
 basis=6-31g*
 
 geometry={
 C -0.0 0.0 0.6532
 C 0.0 0.0 -0.6851
 H 0.0 0.8511 1.3283
 H 0.0 -0.8511 1.3283
 H 0.0 0.9787 -1.1413
 H -0.0 -0.9787 -1.1413
 }
 
 hf
 {multi,
 closed 7
 occ 9
 wf,spin=0;STATE,3
 }
 
 Commands  initialized (763), CPU time= 0.01 sec, 617 directives.
 Default parameters read. Elapsed time= 0.08 sec

 Checking input...
 Passed
1


                                         ***  PROGRAM SYSTEM MOLPRO  ***
                                       Copyright, TTI GmbH Stuttgart, 2015
                                    Version 2019.2 linked Oct 25 2019 22:50:27


 **********************************************************************************************************************************
 LABEL *                                                                                 
  64 bit serial version                                                                  DATE: 26-Jan-23          TIME: 20:26:39  
 **********************************************************************************************************************************

 SHA1:             8dbd9ae1082e4ce945b0f27595c9eb2d4aa09004
 **********************************************************************************************************************************


 Variable memory set to  125000000 words,  buffer space 

 SETTING NELECT         =        16.00000000                                  
 SETTING BASIS          =    6-31G*
 ZSYMEL=NOSYM


Geometry recognized as XYZ



 Recomputing integrals since basis changed


 Using spherical harmonics

 Library entry C      S 6-31G                selected for orbital group  1
 Library entry C      P 6-31G                selected for orbital group  1
 Library entry C      D 6-31G*               selected for orbital group  1
 Library entry H      S 6-31G                selected for orbital group  2


 PROGRAM * SEWARD (Integral evaluation for generally contracted gaussian basis sets)     Author: Roland Lindh, 1990

 Geometry written to block  1 of record 700


 Point group  C1  



 ATOMIC COORDINATES

 NR  ATOM    CHARGE       X              Y              Z

   1  C       6.00    0.000000000    0.000000000    1.234369105
   2  C       6.00    0.000000000    0.000000000   -1.294651368
   3  H       1.00    0.000000000    1.608345905    2.510123211
   4  H       1.00    0.000000000   -1.608345905    2.510123211
   5  H       1.00    0.000000000    1.849474958   -2.156744426
   6  H       1.00    0.000000000   -1.849474958   -2.156744426

 Bond lengths in Bohr (Angstrom)

 1-2  2.529020473  1-3  2.052882142  1-4  2.052882142  2-5  2.040529848  2-6  2.040529848
     ( 1.338300000)     ( 1.086338446)     ( 1.086338446)     ( 1.079801894)     ( 1.079801894)

 Bond angles

  1-2-5  114.99156959   1-2-6  114.99156959   2-1-3  128.42176019   2-1-4  128.42176019

  3-1-4  103.15647961   5-2-6  130.01686082

 NUCLEAR CHARGE:                   16
 NUMBER OF PRIMITIVE AOS:          72
 NUMBER OF SYMMETRY AOS:           70
 NUMBER OF CONTRACTIONS:           36   (   36A   )
 NUMBER OF CORE ORBITALS:           2   (    2A   )
 NUMBER OF VALENCE ORBITALS:       12   (   12A   )


 NUCLEAR REPULSION ENERGY   33.32627198

 EXTRA SYMMETRY OF AOS IN SYMMETRY 1:   1 1 1 2 1 1 2 1 1 1   3 2 1 1 1 1 1 2 1 1   2 1 1 1 3 2 1 1 1 1   1 1 1 1 1 1

 Eigenvalues of metric

         1 0.819E-02 0.177E-01 0.338E-01 0.511E-01 0.715E-01 0.192E+00 0.217E+00 0.228E+00


 Contracted 2-electron integrals neglected if value below      1.0D-11
 AO integral compression algorithm  1   Integral accuracy      1.0D-11

     0.786 MB (compressed) written to integral file ( 37.9%)


 NUMBER OF SORTED TWO-ELECTRON INTEGRALS:     222111.     BUFFER LENGTH:  32768
 NUMBER OF SEGMENTS:   1  SEGMENT LENGTH:     222111      RECORD LENGTH: 524288

 Memory used in sort:       0.78 MW

 SORT1 READ      284735. AND WROTE       98535. INTEGRALS IN      1 RECORDS. CPU TIME:     0.00 SEC, REAL TIME:     0.01 SEC
 SORT2 READ       98535. AND WROTE      222111. INTEGRALS IN      3 RECORDS. CPU TIME:     0.02 SEC, REAL TIME:     0.02 SEC

 FILE SIZES:   FILE 1:    30.9 MBYTE,  FILE 4:     4.2 MBYTE,   TOTAL:     35.1 MBYTE

 OPERATOR DM      FOR CENTER  0  COORDINATES:    0.000000    0.000000    0.000000


 **********************************************************************************************************************************
 DATASETS  * FILE   NREC   LENGTH (MB)   RECORD NAMES
              1      19       30.63       500      610      700      900      950      970     1000      129      960     1100   
                                          VAR    BASINP    GEOM    SYMINP    ZMAT    AOBASIS   BASIS     P2S    ABASIS      S 
                                         1400     1410     1200     1210     1080     1600     1650     1300     1700   
                                           T        V       H0       H01     AOSYM     SMH    MOLCAS    ERIS     OPER   

 PROGRAMS   *        TOTAL       INT
 CPU TIMES  *         0.37      0.27
 REAL TIME  *         0.56 SEC
 DISK USED  *        35.45 MB
 **********************************************************************************************************************************


 PROGRAM * RHF-SCF (CLOSED SHELL)       Authors: W. Meyer, H.-J. Werner


 NUMBER OF ELECTRONS:       8+    8-    SPACE SYMMETRY=1    SPIN SYMMETRY: Singlet 
 CONVERGENCE THRESHOLDS:    1.00E-05 (Density)    1.00E-07 (Energy)
 MAX. NUMBER OF ITERATIONS:       60
 INTERPOLATION TYPE:            DIIS
 INTERPOLATION STEPS:              2 (START)      1 (STEP)
 LEVEL SHIFTS:                  0.00 (CLOSED)  0.00 (OPEN) 



 Orbital guess generated from atomic densities. Full valence occupancy:    8

 Molecular orbital dump at record        2100.2

 Initial occupancy:   8

 ITERATION    DDIFF          GRAD             ENERGY        2-EL.EN.            DIPOLE MOMENTS         DIIS   ORB.
    1      0.000D+00      0.000D+00       -77.99639237    118.571518   -0.00000    0.00000    0.08269    0    start
    2      0.000D+00      0.857D-02       -78.01829716    116.724346   -0.00000    0.00000    0.03417    1    diag
    3      0.825D-02      0.294D-02       -78.02047016    117.361527   -0.00000    0.00000    0.03685    2    diag
    4      0.269D-02      0.722D-03       -78.02069055    117.262095   -0.00000   -0.00000    0.03620    3    diag
    5      0.111D-02      0.859D-04       -78.02069350    117.264551   -0.00000   -0.00000    0.03429    4    diag
    6      0.159D-03      0.259D-04       -78.02069375    117.264696   -0.00000   -0.00000    0.03582    5    diag
    7      0.329D-04      0.101D-04       -78.02069378    117.264475   -0.00000   -0.00000    0.03580    6    diag
    8      0.106D-04      0.285D-05       -78.02069379    117.264492   -0.00000    0.00000    0.03596    7    diag
    9      0.644D-05      0.676D-06       -78.02069379    117.264487   -0.00000   -0.00000    0.03597    0    orth

 Final occupancy:   8

 !RHF STATE  1.1 Energy               -78.020693788560
 Nuclear energy                        33.32627198
 One-electron energy                 -169.97920926
 Two-electron energy                   58.63224349
 Virial quotient                       -1.00051400
 !RHF STATE  1.1 Dipole moment         -0.00000000    -0.00000000     0.03597432
 Dipole moment /Debye                  -0.00000000    -0.00000000     0.09143161

 ELECTRON ORBITALS
 =================

  Orbital  Occupation    Energy     Coefficients
    1.1     2.00000   -11.22793     1 1s    0.31092     2 1s    0.94620
    2.1     2.00000   -11.22525     1 1s    0.94635     2 1s   -0.31140
    3.1     2.00000    -1.02739     1 1s    0.29984     2 1s    0.30372
    4.1     2.00000    -0.79207     1 1s    0.24899
    5.1     2.00000    -0.64004     1 2py   0.26177     2 2py   0.37131
    6.1     2.00000    -0.57925     1 2pz  -0.38888     2 2pz   0.41834
    7.1     2.00000    -0.49548     1 2py   0.35367
    8.1     2.00000    -0.36995     1 2px   0.37055     1 2px   0.30577     2 2px   0.37643     2 2px   0.30965
    9.1     0.00000     0.17839     1 2px  -0.34367     1 2px  -0.73541     2 2px   0.34121     2 2px   0.73151
   10.1     0.00000     0.26168     1 1s   -1.19353     1 2pz  -0.76222     2 1s   -1.73268     2 2pz   0.50105     3 1s    0.95318
                                    4 1s    0.95318     5 1s    1.07793     6 1s    1.07793
   11.1     0.00000     0.29264     1 2py   0.26472     1 2py   0.66915     2 2py   0.97074     3 1s   -0.99011     4 1s    0.99011
                                    5 1s   -1.22526     6 1s    1.22526
   12.1     0.00000     0.30348     1 1s   -2.03484     1 2pz  -0.38337     2 1s    1.59570     3 1s    1.20936     4 1s    1.20936
                                    5 1s   -0.91678     6 1s   -0.91678
   13.1     0.00000     0.38805     1 2py  -1.72961     2 2py   0.25007     2 2py   1.94787     3 1s    1.54286     4 1s   -1.54286
                                    5 1s   -1.65573     6 1s    1.65573
   14.1     0.00000     0.48307     1 1s   -2.84019     1 2pz   2.93857     2 1s    3.19180     2 2pz   2.86586     3 1s   -0.72584
                                    4 1s   -0.72584     5 1s    0.34268     6 1s    0.34268
   15.1     0.00000     0.67901     1 1s   -0.31726     1 1s    0.40342     1 2pz   0.47972     1 2pz  -1.69888     2 1s   -0.82454
                                    2 2pz  -0.63757     2 2pz   0.39600     3 1s    0.36522     4 1s    0.36522
   16.1     0.00000     0.77015     1 2py  -0.48534     1 2py   0.85679     2 2py  -0.30046     2 2py   0.65166     3 1s   -0.45716
                                    4 1s    0.45716     5 1s   -0.30737     6 1s    0.30737
   17.1     0.00000     0.77643     1 2px  -0.73633     1 2px   0.63304     2 2px  -0.74450     2 2px   0.64623
   18.1     0.00000     0.87483     1 1s   -0.86927     1 1s    0.66761     1 2pz   1.28702     2 1s   -0.90907     2 1s    2.37285
                                    2 2pz   0.42104     3 1s   -0.36178     3 1s   -0.47614     4 1s   -0.36178     4 1s   -0.47614
                                    5 1s   -0.42896     6 1s   -0.42896
   19.1     0.00000     0.88976     1 2px   0.82297     1 2px  -1.07702     2 2px  -0.81388     2 2px   1.07105
   20.1     0.00000     0.96395     1 1s    0.88708     1 2pz  -0.67346     1 2pz   0.98352     2 1s   -0.39882     2 2pz  -0.53918
                                    2 2pz   0.38241     3 1s   -0.42528     3 1s   -0.25083     4 1s   -0.42528     4 1s   -0.25083
                                    5 1s    0.33358     6 1s    0.33358
   21.1     0.00000     1.10767     1 2py   0.88357     1 2py  -1.61628     2 2py   0.42040     2 2py  -0.41834     3 1s   -0.44515
                                    3 1s    1.35072     4 1s    0.44515     4 1s   -1.35072     5 1s   -0.30680     5 1s    0.68146
                                    6 1s    0.30680     6 1s   -0.68146
   22.1     0.00000     1.15525     1 2py  -0.63269     1 2py   2.26922     2 2py   1.13882     2 2py  -3.38125     3 1s   -1.08439
                                    4 1s    1.08439     5 1s    1.82219     6 1s   -1.82219
   23.1     0.00000     1.17775     1 1s   -0.53671     1 1s    1.41279     1 2pz  -0.69138     2 1s   -1.00476     2 1s    1.11328
                                    2 2pz   0.65937     2 2pz  -1.32288     5 1s    0.62578     5 1s   -1.26667     6 1s    0.62578
                                    6 1s   -1.26667
   24.1     0.00000     1.24228     1 1s   -1.29500     1 1s    2.44022     1 2pz  -0.69396     1 2pz   0.84777     3 1s    0.64048
                                    3 1s   -1.28060     4 1s    0.64048     4 1s   -1.28060
   25.1     0.00000     1.33904     1 1s    1.34082     1 1s   -4.94735     1 2pz  -0.33705     1 2pz   1.85267     2 1s   -1.70444
                                    2 1s    5.38614     2 2pz  -0.28239     2 2pz   1.96310     3 1s    0.25610     4 1s    0.25610
                                    5 1s   -0.39337     6 1s   -0.39337
   26.1     0.00000     1.47339     1 2py  -2.14103     2 2py   2.76172     3 1s    0.60080     3 1s    0.51523     4 1s   -0.60080
                                    4 1s   -0.51523     5 1s   -0.78918     5 1s   -0.75603     6 1s    0.78918     6 1s    0.75603
   27.1     0.00000     1.73857     1 3d1+  0.62480     2 3d1+ -0.61326
   28.1     0.00000     1.82187     1 3d2-  0.66050     2 3d2-  0.70142
   29.1     0.00000     2.12873     1 3d2-  0.75483     2 3d2- -0.71696
   30.1     0.00000     2.20985     1 2pz  -0.65569     1 3d2+  0.80556     2 1s   -1.03997     2 3d2+  0.61223     3 1s    0.41964
                                    4 1s    0.41964     5 1s    0.33738     6 1s    0.33738
   31.1     0.00000     2.28825     1 2py  -0.27092     1 3d1- -0.58771     2 2py  -0.72187     2 3d1-  0.76562     3 1s    0.41013
                                    4 1s   -0.41013     5 1s    0.59691     6 1s   -0.59691
   32.1     0.00000     2.39503     1 1s   -0.39995     1 2pz   0.26843     1 2pz  -0.61409     1 3d0   0.68660     1 3d2+  0.31686
                                    2 1s   -0.58853     2 1s    0.34608     2 2pz  -0.31231     2 2pz   0.30446     2 3d0   0.64280
   33.1     0.00000     2.65272     1 1s   -0.39523     1 1s    1.43576     1 2pz  -0.40204     1 3d2+ -0.61034     2 1s   -1.30624
                                    2 2pz  -0.30783     2 3d2+  0.90898     3 1s   -0.32559     4 1s   -0.32559     5 1s    0.55721
                                    6 1s    0.55721
   34.1     0.00000     2.70725     1 2px  -0.26466     1 3d1+  0.89868     2 2px   0.26443     2 3d1+  0.90657
   35.1     0.00000     3.02680     1 2py   0.28201     1 3d1-  1.06210     2 2py  -0.40338     2 3d1-  0.85907     3 1s   -0.52906
                                    4 1s    0.52906     5 1s    0.33303     6 1s   -0.33303
   36.1     0.00000     3.06820     1 1s   -0.35029     1 1s   -1.94363     1 2pz   0.78361     1 2pz   1.18126     1 3d0  -1.09970
                                    2 1s    0.28819     2 1s    2.05584     2 2pz   0.80153     2 2pz   1.15257     2 3d0   1.12833


 HOMO      8.1    -0.369953 =     -10.0669eV
 LUMO      9.1     0.178387 =       4.8541eV
 LUMO-HOMO         0.548339 =      14.9211eV


 **********************************************************************************************************************************
 DATASETS  * FILE   NREC   LENGTH (MB)   RECORD NAMES
              1      19       30.63       500      610      700      900      950      970     1000      129      960     1100   
                                          VAR    BASINP    GEOM    SYMINP    ZMAT    AOBASIS   BASIS     P2S    ABASIS      S 
                                         1400     1410     1200     1210     1080     1600     1650     1300     1700   
                                           T        V       H0       H01     AOSYM     SMH    MOLCAS    ERIS     OPER   

              2       4        2.86       700     1000      520     2100   
                                         GEOM     BASIS   MCVARS     RHF  

 PROGRAMS   *        TOTAL    HF-SCF       INT
 CPU TIMES  *         0.47      0.10      0.27
 REAL TIME  *         0.70 SEC
 DISK USED  *        35.45 MB
 **********************************************************************************************************************************


 PROGRAM * MULTI (Direct Multiconfiguration SCF)       Authors: P.J. Knowles, H.-J. Werner (1984)


 Number of closed-shell orbitals:   7 (   7 )
 Number of active  orbitals:        2 (   2 )
 Number of external orbitals:      27 (  27 )

 State symmetry 1

 Number of electrons:     2    Spin symmetry=Singlet   Space symmetry=1
 Number of states:        3
 Number of CSFs:          3   (4 determinants, 4 intermediate states)

 Molecular orbitals read from record     2100.2  Type=RHF/CANONICAL (state 1.1)

 EXTRA SYMMETRY OF MOS IN SYMMETRY 1:   1 1 1 1 1 1 1 2 2 1   1 1 1 1 1 1 2 1 2 1   1 1 1 1 1 1 2 3 3 1   1 1 1 2 1 1

 Wavefunction dump at record             2140.2

 Convergence thresholds  0.10E-01 (gradient)  0.10E-05 (energy)  0.10E-02 (step length)

 Weight factors for state symmetry  1:    0.33333   0.33333   0.33333

 Number of orbital rotations:      257   (    14 Core/Active    189 Core/Virtual   0 Active/Active     54 Active/Virtual)
 Total number of variables:        269

 Micro-Iterations solved by the two-step solver

 ITER. MIC  NCI  NEG     ENERGY(VAR)     ENERGY(PROJ)   ENERGY CHANGE     GRAD(0)  GRAD(ORB)   GRAD(CI)     STEP       TIME

   1    3    3    0     -77.71910219     -77.72537160   -0.00626941    0.13274659 0.00000156 0.00000000  0.63D-01      0.06
   2    2    3    0     -77.72527238     -77.72527620   -0.00000382    0.00306135 0.00000188 0.00000000  0.16D-02      0.09
   3    2    3    0     -77.72527620     -77.72527620   -0.00000000    0.00000220 0.00000000 0.00000000  0.14D-05      0.13

 ** WVFN ****  CONVERGENCE REACHED, FINAL GRADIENT:  0.13D-11



 Results for state 1.1
 =====================

 !MCSCF STATE  1.1 Energy             -78.038332405743
 Nuclear energy                        33.32627198
 Kinetic energy                        78.04888835
 One electron energy                 -170.11252880
 Two electron energy                   58.74792441
 Virial ratio                           1.99986475

 !MCSCF STATE  1.1 Dipole moment        0.00000000    -0.00000000     0.04607832
 Dipole moment /Debye                   0.00000000    -0.00000000     0.11711173

 Results for state 2.1
 =====================

 !MCSCF STATE  2.1 Energy             -77.662047835190
 Nuclear energy                        33.32627198
 Kinetic energy                        78.22971294
 One electron energy                 -169.53836491
 Two electron energy                   58.55004509
 Virial ratio                           1.99274361

 !MCSCF STATE  2.1 Dipole moment        0.00000000    -0.00000000     0.09547954
 Dipole moment /Debye                   0.00000000    -0.00000000     0.24266889

 Results for state 3.1
 =====================

 !MCSCF STATE  3.1 Energy             -77.475448352731
 Nuclear energy                        33.32627198
 Kinetic energy                        78.40994597
 One electron energy                 -168.96591957
 Two electron energy                   58.16419923
 Virial ratio                           1.98808190

 !MCSCF STATE  3.1 Dipole moment        0.00000000    -0.00000000    -0.05015612
 Dipole moment /Debye                   0.00000000    -0.00000000    -0.12747579

 State-averaged charge density matrix saved on record  2140.2 (density set 1)

 !MCSCF expec         <1.1|DMZ|1.1>     0.046078316207 au =     0.117111726907 Debye
 !MCSCF trans         <2.1|DMZ|1.1>     1.510358145939 au =     3.838696056556 Debye
 !MCSCF expec         <2.1|DMZ|2.1>     0.095479538986 au =     0.242668886696 Debye
 !MCSCF trans         <3.1|DMZ|1.1>    -0.015053048825 au =    -0.038258527832 Debye
 !MCSCF trans         <3.1|DMZ|2.1>     2.271362546242 au =     5.772849620278 Debye
 !MCSCF expec         <3.1|DMZ|3.1>    -0.050156120732 au =    -0.127475793330 Debye


 NATURAL ORBITALS (state averaged)
 =================================

  Orbital  Occupation    Energy     Coefficients
    1.1     2.00000   -11.24617     2 1s    0.99242
    2.1     2.00000   -11.23843     1 1s    0.99244
    3.1     2.00000    -1.04223     1 1s    0.30514     2 1s    0.31429
    4.1     2.00000    -0.79943     1 1s    0.29739     2 1s   -0.27236
    5.1     2.00000    -0.65349     1 2py   0.26398     2 2py   0.37945
    6.1     2.00000    -0.59450     1 2pz  -0.39234     2 2pz   0.41877
    7.1     2.00000    -0.50148     1 2py   0.36322
    8.1     1.00000     0.03353     1 2px  -0.38140     1 2px  -0.68860     2 2px   0.37944     2 2px   0.68426
    9.1     1.00000    -0.22595     1 2px   0.35489     1 2px   0.31752     2 2px   0.36124     2 2px   0.32079
   10.1    -0.00000     0.25876     1 1s   -1.10917     1 2pz  -0.76096     2 1s   -1.79196     2 2pz   0.50140     3 1s    0.91118
                                    4 1s    0.91118     5 1s    1.10787     6 1s    1.10787
   11.1    -0.00000     0.28416     1 2py   0.26158     1 2py   0.65176     2 2py   0.96957     3 1s   -0.97632     4 1s    0.97632
                                    5 1s   -1.22291     6 1s    1.22291
   12.1    -0.00000     0.30065     1 1s   -2.10646     1 2pz  -0.38514     2 1s    1.55898     3 1s    1.23610     4 1s    1.23610
                                    5 1s   -0.87170     6 1s   -0.87170
   13.1    -0.00000     0.38351     1 2py  -1.71991     2 2py   0.25465     2 2py   1.92653     3 1s    1.53930     4 1s   -1.53930
                                    5 1s   -1.64373     6 1s    1.64373
   14.1    -0.00000     0.48020     1 1s   -2.81332     1 2pz   2.92626     2 1s    3.16951     2 2pz   2.84802     3 1s   -0.73749
                                    4 1s   -0.73749     5 1s    0.35428     6 1s    0.35428
   15.1    -0.00000     0.66615     1 1s   -0.35159     1 1s    0.42736     1 2pz   0.46485     1 2pz  -1.62105     2 1s   -0.68541
                                    2 2pz  -0.63177     2 2pz   0.42290     3 1s    0.33447     4 1s    0.33447
   16.1    -0.00000     0.76063     1 2py  -0.49966     1 2py   0.85476     2 2py  -0.30993     2 2py   0.67367     3 1s   -0.44974
                                    4 1s    0.44974     5 1s   -0.30540     6 1s    0.30540
   17.1    -0.00000     0.77046     1 2px  -0.73397     1 2px   0.61492     2 2px  -0.75996     2 2px   0.65363
   18.1    -0.00000     0.87217     1 1s   -0.85147     1 1s    0.61898     1 2pz   1.28042     2 1s   -0.91096     2 1s    2.42356
                                    2 2pz   0.37457     3 1s   -0.33534     3 1s   -0.47710     4 1s   -0.33534     4 1s   -0.47710
                                    5 1s   -0.44994     6 1s   -0.44994
   19.1    -0.00000     0.87223     1 2px   0.81570     1 2px  -1.11444     2 2px  -0.78975     2 2px   1.09426
   20.1    -0.00000     0.94629     1 1s    0.77233     1 2pz  -0.68176     1 2pz   1.14515     2 2pz  -0.53639     2 2pz   0.48094
                                    3 1s   -0.44179     3 1s   -0.27851     4 1s   -0.44179     4 1s   -0.27851     5 1s    0.31097
                                    6 1s    0.31097
   21.1    -0.00000     1.09340     1 2py   0.84072     1 2py  -1.51950     2 2py   0.46096     2 2py  -0.56251     3 1s   -0.44145
                                    3 1s    1.31314     4 1s    0.44145     4 1s   -1.31314     5 1s   -0.31735     5 1s    0.76638
                                    6 1s    0.31735     6 1s   -0.76638
   22.1    -0.00000     1.14179     1 2py  -0.67039     1 2py   2.34206     2 2py   1.11444     2 2py  -3.36416     3 1s   -1.14855
                                    4 1s    1.14855     5 1s    1.79970     6 1s   -1.79970
   23.1    -0.00000     1.17299     1 1s   -0.57245     1 1s    1.52835     1 2pz  -0.71667     2 1s   -0.96838     2 1s    1.00727
                                    2 2pz   0.67074     2 2pz  -1.36842     5 1s    0.62436     5 1s   -1.25703     6 1s    0.62436
                                    6 1s   -1.25703
   24.1    -0.00000     1.24177     1 1s   -1.27931     1 1s    2.39870     1 2pz  -0.70055     1 2pz   0.86883     3 1s    0.64148
                                    3 1s   -1.28026     4 1s    0.64148     4 1s   -1.28026
   25.1    -0.00000     1.31904     1 1s    1.34227     1 1s   -4.94816     1 2pz  -0.32729     1 2pz   1.82369     2 1s   -1.72317
                                    2 1s    5.41108     2 2pz  -0.26553     2 2pz   1.93288     3 1s    0.25709     4 1s    0.25709
                                    5 1s   -0.42083     6 1s   -0.42083
   26.1    -0.00000     1.46443     1 2py  -2.14449     2 2py   2.76505     3 1s    0.60361     3 1s    0.51395     4 1s   -0.60361
                                    4 1s   -0.51395     5 1s   -0.78463     5 1s   -0.75869     6 1s    0.78463     6 1s    0.75869
   27.1    -0.00000     1.71295     1 3d1+  0.62341     2 3d1+ -0.61412
   28.1    -0.00000     1.80803     1 3d2-  0.65610     2 3d2-  0.70558
   29.1    -0.00000     2.10584     1 3d2-  0.75866     2 3d2- -0.71287
   30.1    -0.00000     2.19494     1 2pz  -0.66209     1 3d2+  0.80309     2 1s   -1.04012     2 3d2+  0.61427     3 1s    0.42163
                                    4 1s    0.42163     5 1s    0.33950     6 1s    0.33950
   31.1    -0.00000     2.27229     1 2py  -0.27761     1 3d1- -0.58661     2 2py  -0.72367     2 3d1-  0.76308     3 1s    0.41255
                                    4 1s   -0.41255     5 1s    0.60170     6 1s   -0.60170
   32.1    -0.00000     2.37509     1 1s   -0.39807     1 2pz   0.27667     1 2pz  -0.61756     1 3d0   0.68504     1 3d2+  0.31797
                                    2 1s   -0.58538     2 1s    0.34698     2 2pz  -0.31548     2 2pz   0.30719     2 3d0   0.64375
   33.1    -0.00000     2.63279     1 1s   -0.39726     1 1s    1.44220     1 2pz  -0.39948     1 3d2+ -0.61139     2 1s   -1.30775
                                    2 2pz  -0.30610     2 3d2+  0.90684     3 1s   -0.32920     4 1s   -0.32920     5 1s    0.55961
                                    6 1s    0.55961
   34.1    -0.00000     2.68477     1 2px  -0.26549     1 3d1+  0.89989     2 2px   0.26514     2 3d1+  0.90615
   35.1    -0.00000     3.01384     1 2py   0.28138     1 3d1-  1.06144     2 2py  -0.40407     2 3d1-  0.85911     3 1s   -0.53139
                                    4 1s    0.53139     5 1s    0.33529     6 1s   -0.33529
   36.1    -0.00000     3.05027     1 1s   -0.34270     1 1s   -1.96910     1 2pz   0.77577     1 2pz   1.19498     1 3d0  -1.10280
                                    2 1s    0.28178     2 1s    2.08125     2 2pz   0.79437     2 2pz   1.16564     2 3d0   1.12856


 Natural orbital dump (state averaged) at molpro section  2140.2    (Orbital set 2)



 **********************************************************************************************************************************
 DATASETS  * FILE   NREC   LENGTH (MB)   RECORD NAMES
              1      20       31.36       500      610      700      900      950      970     1000      129      960     1100   
                                          VAR    BASINP    GEOM    SYMINP    ZMAT    AOBASIS   BASIS     P2S    ABASIS      S 
                                         1400     1410     1200     1210     1080     1600     1650     1300     1700     1380   
                                           T        V       H0       H01     AOSYM     SMH    MOLCAS    ERIS     OPER     JKOP   

              2       5        5.42       700     1000      520     2100     2140   
                                         GEOM     BASIS   MCVARS     RHF     MCSCF   

 PROGRAMS   *        TOTAL     MULTI    HF-SCF       INT
 CPU TIMES  *         0.64      0.16      0.10      0.27
 REAL TIME  *         0.89 SEC
 DISK USED  *        38.55 MB
 **********************************************************************************************************************************
 Molecular orbitals read from record     2140.2  Type=MCSCF/NATURAL (state averaged)
 Occupation numbers read from record     2140.2  Type=MCSCF/NATURAL (state averaged)
 Orbital energies read from record       2140.2  Type=MCSCF/NATURAL (state averaged)
 Redundancy group numbers read from rec  2140.2  Type=MCSCF/NATURAL (state averaged)

 MULTI/6-31G* energy=    -77.475448352731

           MULTI          HF-SCF
    -77.47544835    -78.02069379
 **********************************************************************************************************************************
 Molpro calculation terminated
