
 Primary working directories    : /scratch.local/johan406.molpro_temp/molpro.T9Dpbl1Oux
 Secondary working directories  : /scratch.local/johan406.molpro_temp/molpro.T9Dpbl1Oux
 Wavefunction directory         : /home/goodpast/johan406/wfu/
 Main file repository           : /scratch.local/johan406.molpro_temp/molpro.T9Dpbl1Oux/

 id        : roweumn

 Nodes     nprocs
 cn0117       1

 Using customized tuning parameters: mindgm=1; mindgv=20; mindgc=4; mindgr=1; noblas=0; minvec=7
 default implementation of scratch files=df  


 Variables initialized (934), CPU time= 0.00 sec
                                                                                 !leave this line blank
 
 gprint, orbitals=30
 memory, 125., m
 symmetry, nosym
 nelect=16
 basis=6-31g*
 
 geometry={
 C 0.0 0.0 0.7069
 C 0.0 0.0 -0.7069
 H 0.0 0.9739 1.1839
 H -0.0 -0.9739 1.1839
 H 0.0 0.9739 -1.1839
 H 0.0 -0.9739 -1.1839
 }
 
 hf
 {multi,
 closed 7
 occ 9
 wf,spin=0;STATE,3
 }
 
 Commands  initialized (763), CPU time= 0.01 sec, 617 directives.
 Default parameters read. Elapsed time= 0.09 sec

 Checking input...
 Passed
1


                                         ***  PROGRAM SYSTEM MOLPRO  ***
                                       Copyright, TTI GmbH Stuttgart, 2015
                                    Version 2019.2 linked Oct 25 2019 22:50:27


 **********************************************************************************************************************************
 LABEL *                                                                                 
  64 bit serial version                                                                  DATE: 26-Jan-23          TIME: 20:34:46  
 **********************************************************************************************************************************

 SHA1:             8dbd9ae1082e4ce945b0f27595c9eb2d4aa09004
 **********************************************************************************************************************************


 Variable memory set to  125000000 words,  buffer space 

 SETTING NELECT         =        16.00000000                                  
 SETTING BASIS          =    6-31G*
 ZSYMEL=NOSYM


Geometry recognized as XYZ



 Recomputing integrals since basis changed


 Using spherical harmonics

 Library entry C      S 6-31G                selected for orbital group  1
 Library entry C      P 6-31G                selected for orbital group  1
 Library entry C      D 6-31G*               selected for orbital group  1
 Library entry H      S 6-31G                selected for orbital group  2


 PROGRAM * SEWARD (Integral evaluation for generally contracted gaussian basis sets)     Author: Roland Lindh, 1990

 Geometry written to block  1 of record 700


 Point group  C1  



 ATOMIC COORDINATES

 NR  ATOM    CHARGE       X              Y              Z

   1  C       6.00    0.000000000    0.000000000    1.335847397
   2  C       6.00    0.000000000    0.000000000   -1.335847397
   3  H       1.00    0.000000000    1.840404273    2.237246759
   4  H       1.00    0.000000000   -1.840404273    2.237246759
   5  H       1.00    0.000000000    1.840404273   -2.237246759
   6  H       1.00    0.000000000   -1.840404273   -2.237246759

 Bond lengths in Bohr (Angstrom)

 1-2  2.671694795  1-3  2.049294683  1-4  2.049294683  2-5  2.049294683  2-6  2.049294683
     ( 1.413800000)     ( 1.084440044)     ( 1.084440044)     ( 1.084440044)     ( 1.084440044)

 Bond angles

  1-2-5  116.09484315   1-2-6  116.09484315   2-1-3  116.09484315   2-1-4  116.09484315

  3-1-4  127.81031369   5-2-6  127.81031369

 NUCLEAR CHARGE:                   16
 NUMBER OF PRIMITIVE AOS:          72
 NUMBER OF SYMMETRY AOS:           70
 NUMBER OF CONTRACTIONS:           36   (   36A   )
 NUMBER OF CORE ORBITALS:           2   (    2A   )
 NUMBER OF VALENCE ORBITALS:       12   (   12A   )


 NUCLEAR REPULSION ENERGY   32.49278127

 EXTRA SYMMETRY OF AOS IN SYMMETRY 1:   1 1 1 2 1 1 2 1 1 1   3 2 1 1 1 1 1 2 1 1   2 1 1 1 3 2 1 1 1 1   1 1 1 1 1 1

 Eigenvalues of metric

         1 0.984E-02 0.164E-01 0.444E-01 0.562E-01 0.637E-01 0.224E+00 0.237E+00 0.251E+00


 Contracted 2-electron integrals neglected if value below      1.0D-11
 AO integral compression algorithm  1   Integral accuracy      1.0D-11

     0.786 MB (compressed) written to integral file ( 37.5%)


 NUMBER OF SORTED TWO-ELECTRON INTEGRALS:     222111.     BUFFER LENGTH:  32768
 NUMBER OF SEGMENTS:   1  SEGMENT LENGTH:     222111      RECORD LENGTH: 524288

 Memory used in sort:       0.78 MW

 SORT1 READ      284735. AND WROTE       98246. INTEGRALS IN      1 RECORDS. CPU TIME:     0.01 SEC, REAL TIME:     0.00 SEC
 SORT2 READ       98246. AND WROTE      222111. INTEGRALS IN      3 RECORDS. CPU TIME:     0.02 SEC, REAL TIME:     0.03 SEC

 FILE SIZES:   FILE 1:    30.9 MBYTE,  FILE 4:     4.2 MBYTE,   TOTAL:     35.1 MBYTE

 OPERATOR DM      FOR CENTER  0  COORDINATES:    0.000000    0.000000    0.000000


 **********************************************************************************************************************************
 DATASETS  * FILE   NREC   LENGTH (MB)   RECORD NAMES
              1      19       30.63       500      610      700      900      950      970     1000      129      960     1100   
                                          VAR    BASINP    GEOM    SYMINP    ZMAT    AOBASIS   BASIS     P2S    ABASIS      S 
                                         1400     1410     1200     1210     1080     1600     1650     1300     1700   
                                           T        V       H0       H01     AOSYM     SMH    MOLCAS    ERIS     OPER   

 PROGRAMS   *        TOTAL       INT
 CPU TIMES  *         0.34      0.24
 REAL TIME  *         0.57 SEC
 DISK USED  *        35.45 MB
 **********************************************************************************************************************************


 PROGRAM * RHF-SCF (CLOSED SHELL)       Authors: W. Meyer, H.-J. Werner


 NUMBER OF ELECTRONS:       8+    8-    SPACE SYMMETRY=1    SPIN SYMMETRY: Singlet 
 CONVERGENCE THRESHOLDS:    1.00E-05 (Density)    1.00E-07 (Energy)
 MAX. NUMBER OF ITERATIONS:       60
 INTERPOLATION TYPE:            DIIS
 INTERPOLATION STEPS:              2 (START)      1 (STEP)
 LEVEL SHIFTS:                  0.00 (CLOSED)  0.00 (OPEN) 



 Orbital guess generated from atomic densities. Full valence occupancy:    8

 Molecular orbital dump at record        2100.2

 Initial occupancy:   8

 ITERATION    DDIFF          GRAD             ENERGY        2-EL.EN.            DIPOLE MOMENTS         DIIS   ORB.
    1      0.000D+00      0.000D+00       -77.99425012    116.746580    0.00000   -0.00000   -0.00000    0    start
    2      0.000D+00      0.785D-02       -78.01345756    115.282609   -0.00000    0.00000   -0.00000    1    diag
    3      0.757D-02      0.248D-02       -78.01512045    115.806211    0.00000    0.00000   -0.00000    2    diag
    4      0.233D-02      0.665D-03       -78.01529689    115.704635   -0.00000    0.00000   -0.00000    3    diag
    5      0.951D-03      0.633D-04       -78.01529879    115.707261    0.00000    0.00000    0.00000    4    diag
    6      0.138D-03      0.559D-05       -78.01529881    115.706910   -0.00000    0.00000   -0.00000    5    diag
    7      0.112D-04      0.862D-06       -78.01529881    115.706916   -0.00000    0.00000   -0.00000    6    diag
    8      0.127D-05      0.978D-07       -78.01529881    115.706912    0.00000    0.00000    0.00000    0    orth

 Final occupancy:   8

 !RHF STATE  1.1 Energy               -78.015298809445
 Nuclear energy                        32.49278127
 One-electron energy                 -168.36153615
 Two-electron energy                   57.85345607
 Virial quotient                       -1.00309524
 !RHF STATE  1.1 Dipole moment          0.00000000     0.00000000     0.00000000
 Dipole moment /Debye                   0.00000000     0.00000000     0.00000000

 ELECTRON ORBITALS
 =================

  Orbital  Occupation    Energy     Coefficients
    1.1     2.00000   -11.23541     1 1s    0.70430     2 1s    0.70430
    2.1     2.00000   -11.23428     1 1s    0.70452     2 1s   -0.70452
    3.1     2.00000    -1.00830     1 1s    0.29653     2 1s    0.29653
    4.1     2.00000    -0.78283     1 1s    0.25241     2 1s   -0.25241
    5.1     2.00000    -0.64810     1 2py   0.31676     2 2py   0.31676
    6.1     2.00000    -0.54137     1 2pz   0.40652     2 2pz  -0.40652
    7.1     2.00000    -0.52571     1 2py   0.31021     2 2py  -0.31021
    8.1     2.00000    -0.35131     1 2px   0.36547     1 2px   0.32287     2 2px   0.36547     2 2px   0.32287
    9.1     0.00000     0.16318     1 2px   0.34895     1 2px   0.68951     2 2px  -0.34895     2 2px  -0.68951
   10.1     0.00000     0.24904     1 1s   -1.37394     1 2pz  -0.53186     2 1s   -1.37394     2 2pz   0.53186     3 1s    0.95020
                                    4 1s    0.95020     5 1s    0.95020     6 1s    0.95020
   11.1     0.00000     0.29880     1 2py  -0.90134     2 2py  -0.90134     3 1s    1.15497     4 1s   -1.15497     5 1s    1.15497
                                    6 1s   -1.15497
   12.1     0.00000     0.31013     1 1s    1.89838     2 1s   -1.89838     3 1s   -1.05393     4 1s   -1.05393     5 1s    1.05393
                                    6 1s    1.05393
   13.1     0.00000     0.38277     1 2py  -1.87117     2 2py   1.87117     3 1s    1.64609     4 1s   -1.64609     5 1s   -1.64609
                                    6 1s    1.64609
   14.1     0.00000     0.45218     1 1s   -2.26939     1 2pz   2.37422     2 1s    2.26939     2 2pz   2.37422     3 1s   -0.40009
                                    4 1s   -0.40009     5 1s    0.40009     6 1s    0.40009
   15.1     0.00000     0.67984     1 1s    0.32977     1 2pz  -0.55570     1 2pz   0.94199     2 1s    0.32977     2 2pz   0.55570
                                    2 2pz  -0.94199
   16.1     0.00000     0.79128     1 2px  -0.75661     1 2px   0.63959     2 2px  -0.75661     2 2px   0.63959
   17.1     0.00000     0.79892     1 2py  -0.40338     1 2py   0.90979     2 2py  -0.40338     2 2py   0.90979     3 1s   -0.38720
                                    4 1s    0.38720     5 1s   -0.38720     6 1s    0.38720
   18.1     0.00000     0.85771     1 1s   -0.86982     1 1s    1.17596     2 1s   -0.86982     2 1s    1.17596     3 1s   -0.37854
                                    4 1s   -0.37854     5 1s   -0.37854     6 1s   -0.37854
   19.1     0.00000     0.88193     1 2px  -0.81127     1 2px   1.04736     2 2px   0.81127     2 2px  -1.04736
   20.1     0.00000     0.91780     1 1s   -0.52257     1 2pz   0.67926     1 2pz  -0.52456     2 1s    0.52257     2 2pz   0.67926
                                    2 2pz  -0.52456     3 1s    0.33360     4 1s    0.33360     5 1s   -0.33360     6 1s   -0.33360
   21.1     0.00000     1.14051     1 2py   0.72313     1 2py  -1.14620     2 2py   0.72313     2 2py  -1.14620     3 1s   -0.39385
                                    3 1s    1.05505     4 1s    0.39385     4 1s   -1.05505     5 1s   -0.39385     5 1s    1.05505
                                    6 1s    0.39385     6 1s   -1.05505
   22.1     0.00000     1.15409     1 2py   0.92436     1 2py  -2.88080     2 2py  -0.92436     2 2py   2.88080     3 1s    1.53229
                                    4 1s   -1.53229     5 1s   -1.53229     6 1s    1.53229
   23.1     0.00000     1.17487     1 1s   -0.52607     1 2pz  -0.57562     1 2pz   1.52499     2 1s    0.52607     2 2pz  -0.57562
                                    2 2pz   1.52499     3 1s    0.50539     3 1s   -0.89259     4 1s    0.50539     4 1s   -0.89259
                                    5 1s   -0.50539     5 1s    0.89259     6 1s   -0.50539     6 1s    0.89259
   24.1     0.00000     1.17701     1 1s    1.06653     1 1s   -1.74574     1 2pz   0.33036     1 2pz  -0.43632     2 1s    1.06653
                                    2 1s   -1.74574     2 2pz  -0.33036     2 2pz   0.43632     3 1s   -0.41102     3 1s    0.84832
                                    4 1s   -0.41102     4 1s    0.84832     5 1s   -0.41102     5 1s    0.84832     6 1s   -0.41102
                                    6 1s    0.84832
   25.1     0.00000     1.31184     1 1s   -1.67236     1 1s    5.09871     1 2pz  -1.58830     2 1s    1.67236     2 1s   -5.09871
                                    2 2pz  -1.58830     3 1s   -0.53512     4 1s   -0.53512     5 1s    0.53512     6 1s    0.53512
   26.1     0.00000     1.55949     1 2py   2.77787     2 2py  -2.77787     3 1s   -0.72846     3 1s   -0.82055     4 1s    0.72846
                                    4 1s    0.82055     5 1s    0.72846     5 1s    0.82055     6 1s   -0.72846     6 1s   -0.82055
   27.1     0.00000     1.72560     1 3d1+  0.62966     2 3d1+ -0.62966
   28.1     0.00000     1.84190     1 3d2-  0.68760     2 3d2-  0.68760
   29.1     0.00000     2.09378     1 3d2-  0.72837     2 3d2- -0.72837
   30.1     0.00000     2.22154     1 1s    0.40025     1 1s   -0.57222     1 3d0  -0.37777     1 3d2+  0.60154     2 1s    0.40025
                                    2 1s   -0.57222     2 3d0  -0.37777     2 3d2+  0.60154     3 1s    0.25584     4 1s    0.25584
                                    5 1s    0.25584     6 1s    0.25584
   31.1     0.00000     2.26342     1 2py   0.35574     1 3d1-  0.69291     2 2py   0.35574     2 3d1- -0.69291     3 1s   -0.49946
                                    4 1s    0.49946     5 1s   -0.49946     6 1s    0.49946
   32.1     0.00000     2.39198     1 1s   -0.36936     1 2pz  -0.38724     1 3d0   0.56874     1 3d2+  0.44531     2 1s   -0.36936
                                    2 2pz   0.38724     2 3d0   0.56874     2 3d2+  0.44531     3 1s    0.33636     4 1s    0.33636
                                    5 1s    0.33636     6 1s    0.33636
   33.1     0.00000     2.63455     1 2px  -0.25006     1 3d1+  0.86038     2 2px   0.25006     2 3d1+  0.86038
   34.1     0.00000     2.66021     1 1s    0.31181     1 1s   -1.65905     1 2pz   0.56896     1 3d2+  0.79873     2 1s   -0.31181
                                    2 1s    1.65905     2 2pz   0.56896     2 3d2+ -0.79873     3 1s    0.46647     4 1s    0.46647
                                    5 1s   -0.46647     6 1s   -0.46647
   35.1     0.00000     2.83165     1 2py   0.50773     1 3d1-  0.89584     2 2py  -0.50773     2 3d1-  0.89584     3 1s   -0.41943
                                    4 1s    0.41943     5 1s    0.41943     6 1s   -0.41943
   36.1     0.00000     3.00003     1 1s    1.74221     1 2pz  -0.62117     1 2pz  -1.03140     1 3d0   1.05963     2 1s   -1.74221
                                    2 2pz  -0.62117     2 2pz  -1.03140     2 3d0  -1.05963


 HOMO      8.1    -0.351308 =      -9.5596eV
 LUMO      9.1     0.163182 =       4.4404eV
 LUMO-HOMO         0.514490 =      14.0000eV


 **********************************************************************************************************************************
 DATASETS  * FILE   NREC   LENGTH (MB)   RECORD NAMES
              1      19       30.63       500      610      700      900      950      970     1000      129      960     1100   
                                          VAR    BASINP    GEOM    SYMINP    ZMAT    AOBASIS   BASIS     P2S    ABASIS      S 
                                         1400     1410     1200     1210     1080     1600     1650     1300     1700   
                                           T        V       H0       H01     AOSYM     SMH    MOLCAS    ERIS     OPER   

              2       4        2.86       700     1000      520     2100   
                                         GEOM     BASIS   MCVARS     RHF  

 PROGRAMS   *        TOTAL    HF-SCF       INT
 CPU TIMES  *         0.44      0.10      0.24
 REAL TIME  *         0.69 SEC
 DISK USED  *        35.45 MB
 **********************************************************************************************************************************


 PROGRAM * MULTI (Direct Multiconfiguration SCF)       Authors: P.J. Knowles, H.-J. Werner (1984)


 Number of closed-shell orbitals:   7 (   7 )
 Number of active  orbitals:        2 (   2 )
 Number of external orbitals:      27 (  27 )

 State symmetry 1

 Number of electrons:     2    Spin symmetry=Singlet   Space symmetry=1
 Number of states:        3
 Number of CSFs:          3   (4 determinants, 4 intermediate states)

 Molecular orbitals read from record     2100.2  Type=RHF/CANONICAL (state 1.1)

 EXTRA SYMMETRY OF MOS IN SYMMETRY 1:   1 1 1 1 1 1 1 2 2 1   1 1 1 1 1 2 1 1 2 1   1 1 1 1 1 1 2 3 3 1   1 1 2 1 1 1

 Wavefunction dump at record             2140.2

 Convergence thresholds  0.10E-01 (gradient)  0.10E-05 (energy)  0.10E-02 (step length)

 Weight factors for state symmetry  1:    0.33333   0.33333   0.33333

 Number of orbital rotations:      257   (    14 Core/Active    189 Core/Virtual   0 Active/Active     54 Active/Virtual)
 Total number of variables:        269

 Micro-Iterations solved by the two-step solver

 ITER. MIC  NCI  NEG     ENERGY(VAR)     ENERGY(PROJ)   ENERGY CHANGE     GRAD(0)  GRAD(ORB)   GRAD(CI)     STEP       TIME

   1    3    3    0     -77.74050258     -77.74550691   -0.00500433    0.11723063 0.00000087 0.00000000  0.57D-01      0.07
   2    2    3    0     -77.74544263     -77.74544477   -0.00000214    0.00230562 0.00000106 0.00000000  0.12D-02      0.10
   3    2    3    0     -77.74544477     -77.74544477   -0.00000000    0.00000121 0.00000000 0.00000000  0.73D-06      0.14

 ** WVFN ****  CONVERGENCE REACHED, FINAL GRADIENT:  0.39D-12



 Results for state 1.1
 =====================

 !MCSCF STATE  1.1 Energy             -78.037407682140
 Nuclear energy                        32.49278127
 Kinetic energy                        77.81645409
 One electron energy                 -168.42129932
 Two electron energy                   57.89111037
 Virial ratio                           2.00283942

 !MCSCF STATE  1.1 Dipole moment        0.00000000    -0.00000000     0.00000000
 Dipole moment /Debye                   0.00000000    -0.00000000     0.00000000

 Results for state 2.1
 =====================

 !MCSCF STATE  2.1 Energy             -77.678329024631
 Nuclear energy                        32.49278127
 Kinetic energy                        78.02237143
 One electron energy                 -167.98564760
 Two electron energy                   57.81453730
 Virial ratio                           1.99559046

 !MCSCF STATE  2.1 Dipole moment        0.00000000    -0.00000000     0.00000000
 Dipole moment /Debye                   0.00000000    -0.00000000     0.00000000

 Results for state 3.1
 =====================

 !MCSCF STATE  3.1 Energy             -77.520597603496
 Nuclear energy                        32.49278127
 Kinetic energy                        78.22828877
 One electron energy                 -167.54999588
 Two electron energy                   57.53661701
 Virial ratio                           1.99095351

 !MCSCF STATE  3.1 Dipole moment        0.00000000    -0.00000000    -0.00000000
 Dipole moment /Debye                   0.00000000    -0.00000000    -0.00000000

 State-averaged charge density matrix saved on record  2140.2 (density set 1)

 !MCSCF trans         <2.1|DMZ|1.1>    -1.513906725662 au =    -3.847715055808 Debye
 !MCSCF trans         <3.1|DMZ|2.1>    -2.414291177347 au =    -6.136114170520 Debye


 NATURAL ORBITALS (state averaged)
 =================================

  Orbital  Occupation    Energy     Coefficients
    1.1     2.00000   -11.24623     1 1s    0.70431     2 1s    0.70431
    2.1     2.00000   -11.24534     1 1s    0.70448     2 1s   -0.70448
    3.1     2.00000    -1.01934     1 1s    0.30366     2 1s    0.30366
    4.1     2.00000    -0.78986     1 1s    0.29217     2 1s   -0.29217
    5.1     2.00000    -0.65861     1 2py   0.32055     2 2py   0.32055
    6.1     2.00000    -0.55448     1 2pz   0.40845     2 2pz  -0.40845
    7.1     2.00000    -0.53160     1 2py   0.31498     2 2py  -0.31498
    8.1     1.00000     0.02162     1 2px   0.38213     1 2px   0.64910     2 2px  -0.38213     2 2px  -0.64910
    9.1     1.00000    -0.21099     1 2px   0.34859     1 2px   0.33548     2 2px   0.34859     2 2px   0.33548
   10.1    -0.00000     0.24648     1 1s   -1.37007     1 2pz  -0.53736     2 1s   -1.37007     2 2pz   0.53736     3 1s    0.94966
                                    4 1s    0.94966     5 1s    0.94966     6 1s    0.94966
   11.1    -0.00000     0.29176     1 2py  -0.89523     2 2py  -0.89523     3 1s    1.14889     4 1s   -1.14889     5 1s    1.14889
                                    6 1s   -1.14889
   12.1    -0.00000     0.30715     1 1s    1.93255     2 1s   -1.93255     3 1s   -1.04754     4 1s   -1.04754     5 1s    1.04754
                                    6 1s    1.04754
   13.1    -0.00000     0.37935     1 2py  -1.86112     2 2py   1.86112     3 1s    1.64108     4 1s   -1.64108     5 1s   -1.64108
                                    6 1s    1.64108
   14.1    -0.00000     0.44994     1 1s   -2.23197     1 2pz   2.35795     2 1s    2.23197     2 2pz   2.35795     3 1s   -0.41771
                                    4 1s   -0.41771     5 1s    0.41771     6 1s    0.41771
   15.1    -0.00000     0.67372     1 2pz  -0.55633     1 2pz   0.93526     2 2pz   0.55633     2 2pz  -0.93526
   16.1    -0.00000     0.78596     1 2px  -0.76409     1 2px   0.63325     2 2px  -0.76409     2 2px   0.63325
   17.1    -0.00000     0.78832     1 2py  -0.41249     1 2py   0.91190     2 2py  -0.41249     2 2py   0.91190     3 1s   -0.38426
                                    4 1s    0.38426     5 1s   -0.38426     6 1s    0.38426
   18.1    -0.00000     0.85242     1 1s   -0.87320     1 1s    1.21295     2 1s   -0.87320     2 1s    1.21295     3 1s   -0.38441
                                    4 1s   -0.38441     5 1s   -0.38441     6 1s   -0.38441
   19.1    -0.00000     0.86677     1 2px  -0.79694     1 2px   1.07283     2 2px   0.79694     2 2px  -1.07283
   20.1    -0.00000     0.90100     1 1s   -0.40229     1 2pz   0.67708     1 2pz  -0.57867     2 1s    0.40229     2 2pz   0.67708
                                    2 2pz  -0.57867     3 1s    0.33807     4 1s    0.33807     5 1s   -0.33807     6 1s   -0.33807
   21.1    -0.00000     1.12750     1 2py   0.71474     1 2py  -1.14969     2 2py   0.71474     2 2py  -1.14969     3 1s   -0.39346
                                    3 1s    1.06246     4 1s    0.39346     4 1s   -1.06246     5 1s   -0.39346     5 1s    1.06246
                                    6 1s    0.39346     6 1s   -1.06246
   22.1    -0.00000     1.14407     1 2py   0.92183     1 2py  -2.88607     2 2py  -0.92183     2 2py   2.88607     3 1s    1.53874
                                    4 1s   -1.53874     5 1s   -1.53874     6 1s    1.53874
   23.1    -0.00000     1.17124     1 1s   -0.78204     1 2pz  -0.58702     1 2pz   1.60841     2 1s    0.78204     2 2pz  -0.58702
                                    2 2pz   1.60841     3 1s    0.50317     3 1s   -0.86312     4 1s    0.50317     4 1s   -0.86312
                                    5 1s   -0.50317     5 1s    0.86312     6 1s   -0.50317     6 1s    0.86312
   24.1    -0.00000     1.17464     1 1s    1.06054     1 1s   -1.74032     1 2pz   0.33712     1 2pz  -0.44424     2 1s    1.06054
                                    2 1s   -1.74032     2 2pz  -0.33712     2 2pz   0.44424     3 1s   -0.41167     3 1s    0.84710
                                    4 1s   -0.41167     4 1s    0.84710     5 1s   -0.41167     5 1s    0.84710     6 1s   -0.41167
                                    6 1s    0.84710
   25.1    -0.00000     1.29658     1 1s   -1.68051     1 1s    5.06872     1 2pz  -1.50332     2 1s    1.68051     2 1s   -5.06872
                                    2 2pz  -1.50332     3 1s   -0.58166     4 1s   -0.58166     5 1s    0.58166     6 1s    0.58166
   26.1    -0.00000     1.55177     1 2py   2.77774     2 2py  -2.77774     3 1s   -0.72725     3 1s   -0.82018     4 1s    0.72725
                                    4 1s    0.82018     5 1s    0.72725     5 1s    0.82018     6 1s   -0.72725     6 1s   -0.82018
   27.1    -0.00000     1.70473     1 3d1+  0.62950     2 3d1+ -0.62950
   28.1    -0.00000     1.83125     1 3d2-  0.68760     2 3d2-  0.68760
   29.1    -0.00000     2.07414     1 3d2-  0.72837     2 3d2- -0.72837
   30.1    -0.00000     2.20759     1 1s    0.40011     1 1s   -0.56662     1 3d0  -0.38487     1 3d2+  0.59595     2 1s    0.40011
                                    2 1s   -0.56662     2 3d0  -0.38487     2 3d2+  0.59595     3 1s    0.25289     4 1s    0.25289
                                    5 1s    0.25289     6 1s    0.25289
   31.1    -0.00000     2.25057     1 2py   0.35101     1 3d1-  0.69130     2 2py   0.35101     2 3d1- -0.69130     3 1s   -0.50263
                                    4 1s    0.50263     5 1s   -0.50263     6 1s    0.50263
   32.1    -0.00000     2.37552     1 1s   -0.36441     1 2pz  -0.38936     1 3d0   0.56385     1 3d2+  0.45242     2 1s   -0.36441
                                    2 2pz   0.38936     2 3d0   0.56385     2 3d2+  0.45242     3 1s    0.33993     4 1s    0.33993
                                    5 1s    0.33993     6 1s    0.33993
   33.1    -0.00000     2.61459     1 2px  -0.25024     1 3d1+  0.86068     2 2px   0.25024     2 3d1+  0.86068
   34.1    -0.00000     2.64404     1 1s    0.31325     1 1s   -1.66601     1 2pz   0.56986     1 3d2+  0.79817     2 1s   -0.31325
                                    2 1s    1.66601     2 2pz   0.56986     2 3d2+ -0.79817     3 1s    0.46915     4 1s    0.46915
                                    5 1s   -0.46915     6 1s   -0.46915
   35.1    -0.00000     2.82127     1 2py   0.51056     1 3d1-  0.89534     2 2py  -0.51056     2 3d1-  0.89534     3 1s   -0.42217
                                    4 1s    0.42217     5 1s    0.42217     6 1s   -0.42217
   36.1    -0.00000     2.98547     1 1s    1.76338     1 2pz  -0.61466     1 2pz  -1.04235     1 3d0   1.06091     2 1s   -1.76338
                                    2 2pz  -0.61466     2 2pz  -1.04235     2 3d0  -1.06091


 Natural orbital dump (state averaged) at molpro section  2140.2    (Orbital set 2)



 **********************************************************************************************************************************
 DATASETS  * FILE   NREC   LENGTH (MB)   RECORD NAMES
              1      20       31.36       500      610      700      900      950      970     1000      129      960     1100   
                                          VAR    BASINP    GEOM    SYMINP    ZMAT    AOBASIS   BASIS     P2S    ABASIS      S 
                                         1400     1410     1200     1210     1080     1600     1650     1300     1700     1380   
                                           T        V       H0       H01     AOSYM     SMH    MOLCAS    ERIS     OPER     JKOP   

              2       5        5.42       700     1000      520     2100     2140   
                                         GEOM     BASIS   MCVARS     RHF     MCSCF   

 PROGRAMS   *        TOTAL     MULTI    HF-SCF       INT
 CPU TIMES  *         0.61      0.17      0.10      0.24
 REAL TIME  *         0.89 SEC
 DISK USED  *        38.54 MB
 **********************************************************************************************************************************
 Molecular orbitals read from record     2140.2  Type=MCSCF/NATURAL (state averaged)
 Occupation numbers read from record     2140.2  Type=MCSCF/NATURAL (state averaged)
 Orbital energies read from record       2140.2  Type=MCSCF/NATURAL (state averaged)
 Redundancy group numbers read from rec  2140.2  Type=MCSCF/NATURAL (state averaged)

 MULTI/6-31G* energy=    -77.520597603496

           MULTI          HF-SCF
    -77.52059760    -78.01529881
 **********************************************************************************************************************************
 Molpro calculation terminated
