
 Primary working directories    : /scratch.local/johan406.molpro_temp/molpro.ONjU5WT0Tn
 Secondary working directories  : /scratch.local/johan406.molpro_temp/molpro.ONjU5WT0Tn
 Wavefunction directory         : /home/goodpast/johan406/wfu/
 Main file repository           : /scratch.local/johan406.molpro_temp/molpro.ONjU5WT0Tn/

 id        : roweumn

 Nodes     nprocs
 cn0117       1

 Using customized tuning parameters: mindgm=1; mindgv=20; mindgc=4; mindgr=1; noblas=0; minvec=7
 default implementation of scratch files=df  


 Variables initialized (934), CPU time= 0.00 sec
                                                                                 !leave this line blank
 
 gprint, orbitals=30
 memory, 125., m
 symmetry, nosym
 nelect=16
 basis=6-31g*
 
 geometry={
 C 0.0 0.0 0.7308
 C 0.0 0.0 -0.7308
 H 0.0 1.0114 1.1517
 H -0.0 -1.0114 1.1517
 H 0.0 1.0114 -1.1517
 H 0.0 -1.0114 -1.1517
 }
 
 hf
 {multi,
 closed 7
 occ 9
 wf,spin=0;STATE,3
 }
 
 Commands  initialized (763), CPU time= 0.01 sec, 617 directives.
 Default parameters read. Elapsed time= 0.08 sec

 Checking input...
 Passed
1


                                         ***  PROGRAM SYSTEM MOLPRO  ***
                                       Copyright, TTI GmbH Stuttgart, 2015
                                    Version 2019.2 linked Oct 25 2019 22:50:27


 **********************************************************************************************************************************
 LABEL *                                                                                 
  64 bit serial version                                                                  DATE: 26-Jan-23          TIME: 20:37:16  
 **********************************************************************************************************************************

 SHA1:             8dbd9ae1082e4ce945b0f27595c9eb2d4aa09004
 **********************************************************************************************************************************


 Variable memory set to  125000000 words,  buffer space 

 SETTING NELECT         =        16.00000000                                  
 SETTING BASIS          =    6-31G*
 ZSYMEL=NOSYM


Geometry recognized as XYZ



 Recomputing integrals since basis changed


 Using spherical harmonics

 Library entry C      S 6-31G                selected for orbital group  1
 Library entry C      P 6-31G                selected for orbital group  1
 Library entry C      D 6-31G*               selected for orbital group  1
 Library entry H      S 6-31G                selected for orbital group  2


 PROGRAM * SEWARD (Integral evaluation for generally contracted gaussian basis sets)     Author: Roland Lindh, 1990

 Geometry written to block  1 of record 700


 Point group  C1  



 ATOMIC COORDINATES

 NR  ATOM    CHARGE       X              Y              Z

   1  C       6.00    0.000000000    0.000000000    1.381011852
   2  C       6.00    0.000000000    0.000000000   -1.381011852
   3  H       1.00    0.000000000    1.911269002    2.176397578
   4  H       1.00    0.000000000   -1.911269002    2.176397578
   5  H       1.00    0.000000000    1.911269002   -2.176397578
   6  H       1.00    0.000000000   -1.911269002   -2.176397578

 Bond lengths in Bohr (Angstrom)

 1-2  2.762023704  1-3  2.070166093  1-4  2.070166093  2-5  2.070166093  2-6  2.070166093
     ( 1.461600000)     ( 1.095484719)     ( 1.095484719)     ( 1.095484719)     ( 1.095484719)

 Bond angles

  1-2-5  112.59492103   1-2-6  112.59492103   2-1-3  112.59492103   2-1-4  112.59492103

  3-1-4  134.81015794   5-2-6  134.81015794

 NUCLEAR CHARGE:                   16
 NUMBER OF PRIMITIVE AOS:          72
 NUMBER OF SYMMETRY AOS:           70
 NUMBER OF CONTRACTIONS:           36   (   36A   )
 NUMBER OF CORE ORBITALS:           2   (    2A   )
 NUMBER OF VALENCE ORBITALS:       12   (   12A   )


 NUCLEAR REPULSION ENERGY   31.89817739

 EXTRA SYMMETRY OF AOS IN SYMMETRY 1:   1 1 1 2 1 1 2 1 1 1   3 2 1 1 1 1 1 2 1 1   2 1 1 1 3 2 1 1 1 1   1 1 1 1 1 1

 Eigenvalues of metric

         1 0.108E-01 0.164E-01 0.490E-01 0.595E-01 0.633E-01 0.234E+00 0.258E+00 0.263E+00


 Contracted 2-electron integrals neglected if value below      1.0D-11
 AO integral compression algorithm  1   Integral accuracy      1.0D-11

     0.786 MB (compressed) written to integral file ( 37.2%)


 NUMBER OF SORTED TWO-ELECTRON INTEGRALS:     222111.     BUFFER LENGTH:  32768
 NUMBER OF SEGMENTS:   1  SEGMENT LENGTH:     222111      RECORD LENGTH: 524288

 Memory used in sort:       0.78 MW

 SORT1 READ      284735. AND WROTE       98254. INTEGRALS IN      1 RECORDS. CPU TIME:     0.00 SEC, REAL TIME:     0.01 SEC
 SORT2 READ       98254. AND WROTE      222111. INTEGRALS IN      3 RECORDS. CPU TIME:     0.02 SEC, REAL TIME:     0.02 SEC

 FILE SIZES:   FILE 1:    30.9 MBYTE,  FILE 4:     4.2 MBYTE,   TOTAL:     35.1 MBYTE

 OPERATOR DM      FOR CENTER  0  COORDINATES:    0.000000    0.000000    0.000000


 **********************************************************************************************************************************
 DATASETS  * FILE   NREC   LENGTH (MB)   RECORD NAMES
              1      19       30.63       500      610      700      900      950      970     1000      129      960     1100   
                                          VAR    BASINP    GEOM    SYMINP    ZMAT    AOBASIS   BASIS     P2S    ABASIS      S 
                                         1400     1410     1200     1210     1080     1600     1650     1300     1700   
                                           T        V       H0       H01     AOSYM     SMH    MOLCAS    ERIS     OPER   

 PROGRAMS   *        TOTAL       INT
 CPU TIMES  *         0.34      0.24
 REAL TIME  *         0.56 SEC
 DISK USED  *        35.45 MB
 **********************************************************************************************************************************


 PROGRAM * RHF-SCF (CLOSED SHELL)       Authors: W. Meyer, H.-J. Werner


 NUMBER OF ELECTRONS:       8+    8-    SPACE SYMMETRY=1    SPIN SYMMETRY: Singlet 
 CONVERGENCE THRESHOLDS:    1.00E-05 (Density)    1.00E-07 (Energy)
 MAX. NUMBER OF ITERATIONS:       60
 INTERPOLATION TYPE:            DIIS
 INTERPOLATION STEPS:              2 (START)      1 (STEP)
 LEVEL SHIFTS:                  0.00 (CLOSED)  0.00 (OPEN) 



 Orbital guess generated from atomic densities. Full valence occupancy:    8

 Molecular orbital dump at record        2100.2

 Initial occupancy:   8

 ITERATION    DDIFF          GRAD             ENERGY        2-EL.EN.            DIPOLE MOMENTS         DIIS   ORB.
    1      0.000D+00      0.000D+00       -77.97498425    115.492590    0.00000    0.00000   -0.00000    0    start
    2      0.000D+00      0.747D-02       -77.99285420    114.218234   -0.00000    0.00000   -0.00000    1    diag
    3      0.727D-02      0.228D-02       -77.99434239    114.690374   -0.00000    0.00000   -0.00000    2    diag
    4      0.222D-02      0.640D-03       -77.99450527    114.587882   -0.00000    0.00000   -0.00000    3    diag
    5      0.910D-03      0.661D-04       -77.99450753    114.590519    0.00000   -0.00000   -0.00000    4    diag
    6      0.151D-03      0.573D-05       -77.99450755    114.590170   -0.00000    0.00000    0.00000    5    diag
    7      0.130D-04      0.123D-05       -77.99450755    114.590177   -0.00000   -0.00000   -0.00000    6    diag
    8      0.258D-05      0.205D-06       -77.99450755    114.590172   -0.00000   -0.00000   -0.00000    0    orth

 Final occupancy:   8

 !RHF STATE  1.1 Energy               -77.994507552342
 Nuclear energy                        31.89817739
 One-electron energy                 -167.18777084
 Two-electron energy                   57.29508590
 Virial quotient                       -1.00495403
 !RHF STATE  1.1 Dipole moment         -0.00000000    -0.00000000    -0.00000000
 Dipole moment /Debye                  -0.00000000    -0.00000000    -0.00000000

 ELECTRON ORBITALS
 =================

  Orbital  Occupation    Energy     Coefficients
    1.1     2.00000   -11.24305     1 1s    0.70435     2 1s    0.70435
    2.1     2.00000   -11.24213     1 1s    0.70453     2 1s   -0.70453
    3.1     2.00000    -0.99682     1 1s    0.29267     2 1s    0.29267
    4.1     2.00000    -0.77576     1 1s    0.25259     1 1s    0.26001     2 1s   -0.25259     2 1s   -0.26001
    5.1     2.00000    -0.65128     1 2py   0.31342     2 2py   0.31342
    6.1     2.00000    -0.53341     1 2py   0.31193     2 2py  -0.31193
    7.1     2.00000    -0.51516     1 2pz   0.40512     2 2pz  -0.40512
    8.1     2.00000    -0.34119     1 2px   0.36125     1 2px   0.33145     2 2px   0.36125     2 2px   0.33145
    9.1     0.00000     0.15385     1 2px   0.35270     1 2px   0.66485     2 2px  -0.35270     2 2px  -0.66485
   10.1     0.00000     0.23433     1 1s   -1.29005     1 2pz  -0.46456     2 1s   -1.29005     2 2pz   0.46456     3 1s    0.88768
                                    4 1s    0.88768     5 1s    0.88768     6 1s    0.88768
   11.1     0.00000     0.29825     1 2py  -0.95214     2 2py  -0.95214     3 1s    1.17761     4 1s   -1.17761     5 1s    1.17761
                                    6 1s   -1.17761
   12.1     0.00000     0.30676     1 1s    1.79842     2 1s   -1.79842     3 1s   -1.03617     4 1s   -1.03617     5 1s    1.03617
                                    6 1s    1.03617
   13.1     0.00000     0.37958     1 2py  -1.84306     2 2py   1.84306     3 1s    1.64242     4 1s   -1.64242     5 1s   -1.64242
                                    6 1s    1.64242
   14.1     0.00000     0.42737     1 1s   -1.99762     1 2pz   2.08888     2 1s    1.99762     2 2pz   2.08888     3 1s   -0.27062
                                    4 1s   -0.27062     5 1s    0.27062     6 1s    0.27062
   15.1     0.00000     0.68451     1 1s    0.35533     1 2pz  -0.54389     1 2pz   0.86728     2 1s    0.35533     2 2pz   0.54389
                                    2 2pz  -0.86728
   16.1     0.00000     0.79784     1 2px  -0.76482     1 2px   0.63950     2 2px  -0.76482     2 2px   0.63950
   17.1     0.00000     0.83232     1 2py  -0.41485     1 2py   1.01123     2 2py  -0.41485     2 2py   1.01123     3 1s   -0.38775
                                    3 1s   -0.28387     4 1s    0.38775     4 1s    0.28387     5 1s   -0.38775     5 1s   -0.28387
                                    6 1s    0.38775     6 1s    0.28387
   18.1     0.00000     0.86522     1 1s   -0.83502     1 1s    1.01065     1 2pz   0.29004     2 1s   -0.83502     2 1s    1.01065
                                    2 2pz  -0.29004     3 1s   -0.36670     4 1s   -0.36670     5 1s   -0.36670     6 1s   -0.36670
   19.1     0.00000     0.87726     1 2px  -0.80729     1 2px   1.03176     2 2px   0.80729     2 2px  -1.03176
   20.1     0.00000     0.89518     1 1s   -0.27911     1 2pz   0.71718     1 2pz  -0.61192     2 1s    0.27911     2 2pz   0.71718
                                    2 2pz  -0.61192     3 1s    0.30169     4 1s    0.30169     5 1s   -0.30169     6 1s   -0.30169
   21.1     0.00000     1.14626     1 1s   -0.65527     1 2pz  -0.51571     1 2pz   1.52147     2 1s    0.65527     2 2pz  -0.51571
                                    2 2pz   1.52147     3 1s    0.51926     3 1s   -0.87451     4 1s    0.51926     4 1s   -0.87451
                                    5 1s   -0.51926     5 1s    0.87451     6 1s   -0.51926     6 1s    0.87451
   22.1     0.00000     1.14743     1 2py   0.92051     1 2py  -2.82421     2 2py  -0.92051     2 2py   2.82421     3 1s    1.53461
                                    4 1s   -1.53461     5 1s   -1.53461     6 1s    1.53461
   23.1     0.00000     1.14755     1 2py   0.73667     1 2py  -1.15626     2 2py   0.73667     2 2py  -1.15626     3 1s   -0.40599
                                    3 1s    1.04141     4 1s    0.40599     4 1s   -1.04141     5 1s   -0.40599     5 1s    1.04141
                                    6 1s    0.40599     6 1s   -1.04141
   24.1     0.00000     1.15008     1 1s   -1.08642     1 1s    1.74138     1 2pz  -0.29959     1 2pz   0.38590     2 1s   -1.08642
                                    2 1s    1.74138     2 2pz   0.29959     2 2pz  -0.38590     3 1s    0.39153     3 1s   -0.82698
                                    4 1s    0.39153     4 1s   -0.82698     5 1s    0.39153     5 1s   -0.82698     6 1s    0.39153
                                    6 1s   -0.82698
   25.1     0.00000     1.30102     1 1s   -1.67687     1 1s    4.88474     1 2pz  -1.50448     2 1s    1.67687     2 1s   -4.88474
                                    2 2pz  -1.50448     3 1s   -0.56958     4 1s   -0.56958     5 1s    0.56958     6 1s    0.56958
   26.1     0.00000     1.58737     1 2py   2.83336     2 2py  -2.83336     3 1s   -0.74954     3 1s   -0.86333     4 1s    0.74954
                                    4 1s    0.86333     5 1s    0.74954     5 1s    0.86333     6 1s   -0.74954     6 1s   -0.86333
   27.1     0.00000     1.72383     1 3d1+  0.63693     2 3d1+ -0.63693
   28.1     0.00000     1.85453     1 3d2-  0.69096     2 3d2-  0.69096
   29.1     0.00000     2.07549     1 3d2-  0.72444     2 3d2- -0.72444
   30.1     0.00000     2.19892     1 1s   -0.46968     1 1s    0.53715     1 2pz   0.25908     1 3d0   0.48282     1 3d2+ -0.49036
                                    2 1s   -0.46968     2 1s    0.53715     2 2pz  -0.25908     2 3d0   0.48282     2 3d2+ -0.49036
   31.1     0.00000     2.20818     1 2py   0.46247     1 3d1-  0.69024     2 2py   0.46247     2 3d1- -0.69024     3 1s   -0.47746
                                    4 1s    0.47746     5 1s   -0.47746     6 1s    0.47746
   32.1     0.00000     2.40801     1 1s   -0.25322     1 2pz  -0.30932     1 3d0   0.46946     1 3d2+  0.57577     2 1s   -0.25322
                                    2 2pz   0.30932     2 3d0   0.46946     2 3d2+  0.57577     3 1s    0.40151     4 1s    0.40151
                                    5 1s    0.40151     6 1s    0.40151
   33.1     0.00000     2.58826     1 3d1+  0.83795     2 3d1+  0.83795
   34.1     0.00000     2.67416     1 1s    0.34371     1 1s   -1.80995     1 2pz   0.72153     1 3d2+  0.79105     2 1s   -0.34371
                                    2 1s    1.80995     2 2pz   0.72153     2 3d2+ -0.79105     3 1s    0.46917     4 1s    0.46917
                                    5 1s   -0.46917     6 1s   -0.46917
   35.1     0.00000     2.68474     1 2py   0.31560     1 3d1-  0.85881     2 2py  -0.31560     2 3d1-  0.85881     3 1s   -0.34752
                                    4 1s    0.34752     5 1s    0.34752     6 1s   -0.34752
   36.1     0.00000     2.97729     1 1s    1.53780     1 2pz  -0.52364     1 2pz  -0.92080     1 3d0   1.02354     2 1s   -1.53780
                                    2 2pz  -0.52364     2 2pz  -0.92080     2 3d0  -1.02354


 HOMO      8.1    -0.341188 =      -9.2842eV
 LUMO      9.1     0.153852 =       4.1865eV
 LUMO-HOMO         0.495040 =      13.4707eV


 **********************************************************************************************************************************
 DATASETS  * FILE   NREC   LENGTH (MB)   RECORD NAMES
              1      19       30.63       500      610      700      900      950      970     1000      129      960     1100   
                                          VAR    BASINP    GEOM    SYMINP    ZMAT    AOBASIS   BASIS     P2S    ABASIS      S 
                                         1400     1410     1200     1210     1080     1600     1650     1300     1700   
                                           T        V       H0       H01     AOSYM     SMH    MOLCAS    ERIS     OPER   

              2       4        2.86       700     1000      520     2100   
                                         GEOM     BASIS   MCVARS     RHF  

 PROGRAMS   *        TOTAL    HF-SCF       INT
 CPU TIMES  *         0.44      0.10      0.24
 REAL TIME  *         0.69 SEC
 DISK USED  *        35.45 MB
 **********************************************************************************************************************************


 PROGRAM * MULTI (Direct Multiconfiguration SCF)       Authors: P.J. Knowles, H.-J. Werner (1984)


 Number of closed-shell orbitals:   7 (   7 )
 Number of active  orbitals:        2 (   2 )
 Number of external orbitals:      27 (  27 )

 State symmetry 1

 Number of electrons:     2    Spin symmetry=Singlet   Space symmetry=1
 Number of states:        3
 Number of CSFs:          3   (4 determinants, 4 intermediate states)

 Molecular orbitals read from record     2100.2  Type=RHF/CANONICAL (state 1.1)

 EXTRA SYMMETRY OF MOS IN SYMMETRY 1:   1 1 1 1 1 1 1 2 2 1   1 1 1 1 1 2 1 1 2 1   1 1 1 1 1 1 2 3 3 1   1 1 2 1 1 1

 Wavefunction dump at record             2140.2

 Convergence thresholds  0.10E-01 (gradient)  0.10E-05 (energy)  0.10E-02 (step length)

 Weight factors for state symmetry  1:    0.33333   0.33333   0.33333

 Number of orbital rotations:      257   (    14 Core/Active    189 Core/Virtual   0 Active/Active     54 Active/Virtual)
 Total number of variables:        269

 Micro-Iterations solved by the two-step solver

 ITER. MIC  NCI  NEG     ENERGY(VAR)     ENERGY(PROJ)   ENERGY CHANGE     GRAD(0)  GRAD(ORB)   GRAD(CI)     STEP       TIME

   1    3    3    0     -77.73465139     -77.73906358   -0.00441219    0.10903365 0.00000061 0.00000000  0.54D-01      0.06
   2    2    3    0     -77.73901430     -77.73901582   -0.00000153    0.00195631 0.00000076 0.00000000  0.10D-02      0.10
   3    2    3    0     -77.73901582     -77.73901582   -0.00000000    0.00000086 0.00000000 0.00000000  0.51D-06      0.13

 ** WVFN ****  CONVERGENCE REACHED, FINAL GRADIENT:  0.20D-12



 Results for state 1.1
 =====================

 !MCSCF STATE  1.1 Energy             -78.019485966674
 Nuclear energy                        31.89817739
 Kinetic energy                        77.63885665
 One electron energy                 -167.20954845
 Two electron energy                   57.29188510
 Virial ratio                           2.00490256

 !MCSCF STATE  1.1 Dipole moment        0.00000000     0.00000000     0.00000000
 Dipole moment /Debye                   0.00000000     0.00000000     0.00000000

 Results for state 2.1
 =====================

 !MCSCF STATE  2.1 Energy             -77.669726284472
 Nuclear energy                        31.89817739
 Kinetic energy                        77.85589725
 One electron energy                 -166.84797610
 Two electron energy                   57.28007242
 Virial ratio                           1.99760878

 !MCSCF STATE  2.1 Dipole moment        0.00000000     0.00000000     0.00000000
 Dipole moment /Debye                   0.00000000     0.00000000     0.00000000

 Results for state 3.1
 =====================

 !MCSCF STATE  3.1 Energy             -77.527835219576
 Nuclear energy                        31.89817739
 Kinetic energy                        78.07293785
 One electron energy                 -166.48640374
 Two electron energy                   57.06039113
 Virial ratio                           1.99301803

 !MCSCF STATE  3.1 Dipole moment        0.00000000     0.00000000    -0.00000000
 Dipole moment /Debye                   0.00000000     0.00000000    -0.00000000

 State-averaged charge density matrix saved on record  2140.2 (density set 1)

 !MCSCF trans         <2.1|DMZ|1.1>    -1.510561860994 au =    -3.839213814665 Debye
 !MCSCF trans         <3.1|DMZ|2.1>    -2.504758496489 au =    -6.366044099506 Debye


 NATURAL ORBITALS (state averaged)
 =================================

  Orbital  Occupation    Energy     Coefficients
    1.1     2.00000   -11.25127     1 1s    0.70436     2 1s    0.70436
    2.1     2.00000   -11.25056     1 1s    0.70449     2 1s   -0.70449
    3.1     2.00000    -1.00595     1 1s    0.29918     2 1s    0.29918
    4.1     2.00000    -0.78240     1 1s    0.25149     1 1s    0.29666     2 1s   -0.25149     2 1s   -0.29666
    5.1     2.00000    -0.66061     1 2py   0.31621     2 2py   0.31621
    6.1     2.00000    -0.53887     1 2py   0.31580     2 2py  -0.31580
    7.1     2.00000    -0.52698     1 2pz   0.40700     2 2pz  -0.40700
    8.1     1.00000     0.01440     1 2px   0.38317     1 2px   0.62811     2 2px  -0.38317     2 2px  -0.62811
    9.1     1.00000    -0.20302     1 2px   0.34345     1 2px   0.34481     2 2px   0.34345     2 2px   0.34481
   10.1    -0.00000     0.23200     1 1s   -1.28653     1 2pz  -0.46990     2 1s   -1.28653     2 2pz   0.46990     3 1s    0.88719
                                    4 1s    0.88719     5 1s    0.88719     6 1s    0.88719
   11.1    -0.00000     0.29191     1 2py  -0.94788     2 2py  -0.94788     3 1s    1.17302     4 1s   -1.17302     5 1s    1.17302
                                    6 1s   -1.17302
   12.1    -0.00000     0.30396     1 1s    1.84233     2 1s   -1.84233     3 1s   -1.02980     4 1s   -1.02980     5 1s    1.02980
                                    6 1s    1.02980
   13.1    -0.00000     0.37648     1 2py  -1.83525     2 2py   1.83525     3 1s    1.63837     4 1s   -1.63837     5 1s   -1.63837
                                    6 1s    1.63837
   14.1    -0.00000     0.42507     1 1s   -1.94713     1 2pz   2.07324     2 1s    1.94713     2 2pz   2.07324     3 1s   -0.29557
                                    4 1s   -0.29557     5 1s    0.29557     6 1s    0.29557
   15.1    -0.00000     0.68100     1 1s    0.28647     1 2pz  -0.54801     1 2pz   0.86900     2 1s    0.28647     2 2pz   0.54801
                                    2 2pz  -0.86900
   16.1    -0.00000     0.79281     1 2px  -0.77275     1 2px   0.63244     2 2px  -0.77275     2 2px   0.63244
   17.1    -0.00000     0.82174     1 2py  -0.42254     1 2py   1.01110     2 2py  -0.42254     2 2py   1.01110     3 1s   -0.38567
                                    3 1s   -0.28308     4 1s    0.38567     4 1s    0.28308     5 1s   -0.38567     5 1s   -0.28308
                                    6 1s    0.38567     6 1s    0.28308
   18.1    -0.00000     0.85884     1 1s   -0.84609     1 1s    1.05263     1 2pz   0.26046     2 1s   -0.84609     2 1s    1.05263
                                    2 2pz  -0.26046     3 1s   -0.37298     4 1s   -0.37298     5 1s   -0.37298     6 1s   -0.37298
   19.1    -0.00000     0.86347     1 2px  -0.79376     1 2px   1.05456     2 2px   0.79376     2 2px  -1.05456
   20.1    -0.00000     0.88035     1 2pz   0.71168     1 2pz  -0.64977     2 2pz   0.71168     2 2pz  -0.64977     3 1s    0.30883
                                    4 1s    0.30883     5 1s   -0.30883     6 1s   -0.30883
   21.1    -0.00000     1.13622     1 2py   0.73004     1 2py  -1.16068     2 2py   0.73004     2 2py  -1.16068     3 1s   -0.40513
                                    3 1s    1.04803     4 1s    0.40513     4 1s   -1.04803     5 1s   -0.40513     5 1s    1.04803
                                    6 1s    0.40513     6 1s   -1.04803
   22.1    -0.00000     1.13891     1 2py   0.91825     1 2py  -2.82852     2 2py  -0.91825     2 2py   2.82852     3 1s    1.53996
                                    4 1s   -1.53996     5 1s   -1.53996     6 1s    1.53996
   23.1    -0.00000     1.14245     1 1s   -0.87070     1 2pz  -0.52787     1 2pz   1.59443     2 1s    0.87070     2 2pz  -0.52787
                                    2 2pz   1.59443     3 1s    0.51538     3 1s   -0.84692     4 1s    0.51538     4 1s   -0.84692
                                    5 1s   -0.51538     5 1s    0.84692     6 1s   -0.51538     6 1s    0.84692
   24.1    -0.00000     1.14801     1 1s   -1.07944     1 1s    1.73502     1 2pz  -0.30874     1 2pz   0.39580     2 1s   -1.07944
                                    2 1s    1.73502     2 2pz   0.30874     2 2pz  -0.39580     3 1s    0.39241     3 1s   -0.82540
                                    4 1s    0.39241     4 1s   -0.82540     5 1s    0.39241     5 1s   -0.82540     6 1s    0.39241
                                    6 1s   -0.82540
   25.1    -0.00000     1.28726     1 1s   -1.68071     1 1s    4.84911     1 2pz  -1.42787     2 1s    1.68071     2 1s   -4.84911
                                    2 2pz  -1.42787     3 1s   -0.60946     4 1s   -0.60946     5 1s    0.60946     6 1s    0.60946
   26.1    -0.00000     1.58069     1 2py   2.83286     2 2py  -2.83286     3 1s   -0.74836     3 1s   -0.86280     4 1s    0.74836
                                    4 1s    0.86280     5 1s    0.74836     5 1s    0.86280     6 1s   -0.74836     6 1s   -0.86280
   27.1    -0.00000     1.70579     1 3d1+  0.63682     2 3d1+ -0.63682
   28.1    -0.00000     1.84568     1 3d2-  0.69096     2 3d2-  0.69096
   29.1    -0.00000     2.05787     1 3d2-  0.72444     2 3d2- -0.72444
   30.1    -0.00000     2.18526     1 1s   -0.46790     1 1s    0.53051     1 2pz   0.26421     1 3d0   0.48839     1 3d2+ -0.48371
                                    2 1s   -0.46790     2 1s    0.53051     2 2pz  -0.26421     2 3d0   0.48839     2 3d2+ -0.48371
   31.1    -0.00000     2.19714     1 2py   0.45779     1 3d1-  0.68879     2 2py   0.45779     2 3d1- -0.68879     3 1s   -0.48050
                                    4 1s    0.48050     5 1s   -0.48050     6 1s    0.48050
   32.1    -0.00000     2.39435     1 2pz  -0.31020     1 3d0   0.46355     1 3d2+  0.58123     2 2pz   0.31020     2 3d0   0.46355
                                    2 3d2+  0.58123     3 1s    0.40389     4 1s    0.40389     5 1s    0.40389     6 1s    0.40389
   33.1    -0.00000     2.56979     1 3d1+  0.83820     2 3d1+  0.83820
   34.1    -0.00000     2.66009     1 1s    0.34544     1 1s   -1.81724     1 2pz   0.72329     1 3d2+  0.79065     2 1s   -0.34544
                                    2 1s    1.81724     2 2pz   0.72329     2 3d2+ -0.79065     3 1s    0.47161     4 1s    0.47161
                                    5 1s   -0.47161     6 1s   -0.47161
   35.1    -0.00000     2.67535     1 2py   0.32036     1 3d1-  0.85831     2 2py  -0.32036     2 3d1-  0.85831     3 1s   -0.35064
                                    4 1s    0.35064     5 1s    0.35064     6 1s   -0.35064
   36.1    -0.00000     2.96452     1 1s    1.55612     1 2pz  -0.51780     1 2pz  -0.93030     1 3d0   1.02469     2 1s   -1.55612
                                    2 2pz  -0.51780     2 2pz  -0.93030     2 3d0  -1.02469


 Natural orbital dump (state averaged) at molpro section  2140.2    (Orbital set 2)



 **********************************************************************************************************************************
 DATASETS  * FILE   NREC   LENGTH (MB)   RECORD NAMES
              1      20       31.35       500      610      700      900      950      970     1000      129      960     1100   
                                          VAR    BASINP    GEOM    SYMINP    ZMAT    AOBASIS   BASIS     P2S    ABASIS      S 
                                         1400     1410     1200     1210     1080     1600     1650     1300     1700     1380   
                                           T        V       H0       H01     AOSYM     SMH    MOLCAS    ERIS     OPER     JKOP   

              2       5        5.42       700     1000      520     2100     2140   
                                         GEOM     BASIS   MCVARS     RHF     MCSCF   

 PROGRAMS   *        TOTAL     MULTI    HF-SCF       INT
 CPU TIMES  *         0.60      0.16      0.10      0.24
 REAL TIME  *         0.88 SEC
 DISK USED  *        38.54 MB
 **********************************************************************************************************************************
 Molecular orbitals read from record     2140.2  Type=MCSCF/NATURAL (state averaged)
 Occupation numbers read from record     2140.2  Type=MCSCF/NATURAL (state averaged)
 Orbital energies read from record       2140.2  Type=MCSCF/NATURAL (state averaged)
 Redundancy group numbers read from rec  2140.2  Type=MCSCF/NATURAL (state averaged)

 MULTI/6-31G* energy=    -77.527835219576

           MULTI          HF-SCF
    -77.52783522    -77.99450755
 **********************************************************************************************************************************
 Molpro calculation terminated
