
 Primary working directories    : /scratch.local/johan406.molpro_temp/molpro.2RTR75Orbg
 Secondary working directories  : /scratch.local/johan406.molpro_temp/molpro.2RTR75Orbg
 Wavefunction directory         : /home/goodpast/johan406/wfu/
 Main file repository           : /scratch.local/johan406.molpro_temp/molpro.2RTR75Orbg/

 id        : roweumn

 Nodes     nprocs
 cn0117       1

 Using customized tuning parameters: mindgm=1; mindgv=20; mindgc=4; mindgr=1; noblas=0; minvec=7
 default implementation of scratch files=df  


 Variables initialized (934), CPU time= 0.00 sec
                                                                                 !leave this line blank
 
 gprint, orbitals=30
 memory, 125., m
 symmetry, nosym
 nelect=16
 basis=6-31g*
 
 geometry={
 C 0.0 0.0 0.7381
 C 0.0 0.0 -0.7381
 H 0.0 1.0229 1.1418
 H -0.0 -1.0229 1.1418
 H 0.0 1.0229 -1.1418
 H 0.0 -1.0229 -1.1418
 }
 
 hf
 {multi,
 closed 7
 occ 9
 wf,spin=0;STATE,3
 }
 
 Commands  initialized (763), CPU time= 0.01 sec, 617 directives.
 Default parameters read. Elapsed time= 0.08 sec

 Checking input...
 Passed
1


                                         ***  PROGRAM SYSTEM MOLPRO  ***
                                       Copyright, TTI GmbH Stuttgart, 2015
                                    Version 2019.2 linked Oct 25 2019 22:50:27


 **********************************************************************************************************************************
 LABEL *                                                                                 
  64 bit serial version                                                                  DATE: 26-Jan-23          TIME: 20:38:03  
 **********************************************************************************************************************************

 SHA1:             8dbd9ae1082e4ce945b0f27595c9eb2d4aa09004
 **********************************************************************************************************************************


 Variable memory set to  125000000 words,  buffer space 

 SETTING NELECT         =        16.00000000                                  
 SETTING BASIS          =    6-31G*
 ZSYMEL=NOSYM


Geometry recognized as XYZ



 Recomputing integrals since basis changed


 Using spherical harmonics

 Library entry C      S 6-31G                selected for orbital group  1
 Library entry C      P 6-31G                selected for orbital group  1
 Library entry C      D 6-31G*               selected for orbital group  1
 Library entry H      S 6-31G                selected for orbital group  2


 PROGRAM * SEWARD (Integral evaluation for generally contracted gaussian basis sets)     Author: Roland Lindh, 1990

 Geometry written to block  1 of record 700


 Point group  C1  



 ATOMIC COORDINATES

 NR  ATOM    CHARGE       X              Y              Z

   1  C       6.00    0.000000000    0.000000000    1.394806853
   2  C       6.00    0.000000000    0.000000000   -1.394806853
   3  H       1.00    0.000000000    1.933000853    2.157689289
   4  H       1.00    0.000000000   -1.933000853    2.157689289
   5  H       1.00    0.000000000    1.933000853   -2.157689289
   6  H       1.00    0.000000000   -1.933000853   -2.157689289

 Bond lengths in Bohr (Angstrom)

 1-2  2.789613705  1-3  2.078095741  1-4  2.078095741  2-5  2.078095741  2-6  2.078095741
     ( 1.476200000)     ( 1.099680908)     ( 1.099680908)     ( 1.099680908)     ( 1.099680908)

 Bond angles

  1-2-5  111.53727742   1-2-6  111.53727742   2-1-3  111.53727742   2-1-4  111.53727742

  3-1-4  136.92544517   5-2-6  136.92544517

 NUCLEAR CHARGE:                   16
 NUMBER OF PRIMITIVE AOS:          72
 NUMBER OF SYMMETRY AOS:           70
 NUMBER OF CONTRACTIONS:           36   (   36A   )
 NUMBER OF CORE ORBITALS:           2   (    2A   )
 NUMBER OF VALENCE ORBITALS:       12   (   12A   )


 NUCLEAR REPULSION ENERGY   31.71424412

 EXTRA SYMMETRY OF AOS IN SYMMETRY 1:   1 1 1 2 1 1 2 1 1 1   3 2 1 1 1 1 1 2 1 1   2 1 1 1 3 2 1 1 1 1   1 1 1 1 1 1

 Eigenvalues of metric

         1 0.111E-01 0.165E-01 0.505E-01 0.584E-01 0.656E-01 0.237E+00 0.264E+00 0.265E+00


 Contracted 2-electron integrals neglected if value below      1.0D-11
 AO integral compression algorithm  1   Integral accuracy      1.0D-11

     0.786 MB (compressed) written to integral file ( 37.1%)


 NUMBER OF SORTED TWO-ELECTRON INTEGRALS:     222111.     BUFFER LENGTH:  32768
 NUMBER OF SEGMENTS:   1  SEGMENT LENGTH:     222111      RECORD LENGTH: 524288

 Memory used in sort:       0.78 MW

 SORT1 READ      284735. AND WROTE       98252. INTEGRALS IN      1 RECORDS. CPU TIME:     0.00 SEC, REAL TIME:     0.01 SEC
 SORT2 READ       98252. AND WROTE      222111. INTEGRALS IN      3 RECORDS. CPU TIME:     0.02 SEC, REAL TIME:     0.02 SEC

 FILE SIZES:   FILE 1:    30.9 MBYTE,  FILE 4:     4.2 MBYTE,   TOTAL:     35.1 MBYTE

 OPERATOR DM      FOR CENTER  0  COORDINATES:    0.000000    0.000000    0.000000


 **********************************************************************************************************************************
 DATASETS  * FILE   NREC   LENGTH (MB)   RECORD NAMES
              1      19       30.62       500      610      700      900      950      970     1000      129      960     1100   
                                          VAR    BASINP    GEOM    SYMINP    ZMAT    AOBASIS   BASIS     P2S    ABASIS      S 
                                         1400     1410     1200     1210     1080     1600     1650     1300     1700   
                                           T        V       H0       H01     AOSYM     SMH    MOLCAS    ERIS     OPER   

 PROGRAMS   *        TOTAL       INT
 CPU TIMES  *         0.35      0.24
 REAL TIME  *         0.56 SEC
 DISK USED  *        35.45 MB
 **********************************************************************************************************************************


 PROGRAM * RHF-SCF (CLOSED SHELL)       Authors: W. Meyer, H.-J. Werner


 NUMBER OF ELECTRONS:       8+    8-    SPACE SYMMETRY=1    SPIN SYMMETRY: Singlet 
 CONVERGENCE THRESHOLDS:    1.00E-05 (Density)    1.00E-07 (Energy)
 MAX. NUMBER OF ITERATIONS:       60
 INTERPOLATION TYPE:            DIIS
 INTERPOLATION STEPS:              2 (START)      1 (STEP)
 LEVEL SHIFTS:                  0.00 (CLOSED)  0.00 (OPEN) 



 Orbital guess generated from atomic densities. Full valence occupancy:    8

 Molecular orbital dump at record        2100.2

 Initial occupancy:   8

 ITERATION    DDIFF          GRAD             ENERGY        2-EL.EN.            DIPOLE MOMENTS         DIIS   ORB.
    1      0.000D+00      0.000D+00       -77.96751532    115.108974    0.00000   -0.00000   -0.00000    0    start
    2      0.000D+00      0.736D-02       -77.98502126    113.886592    0.00000    0.00000   -0.00000    1    diag
    3      0.719D-02      0.223D-02       -77.98646871    114.344890    0.00000   -0.00000   -0.00000    2    diag
    4      0.219D-02      0.633D-03       -77.98662836    114.242233    0.00000   -0.00000    0.00000    3    diag
    5      0.900D-03      0.677D-04       -77.98663082    114.244891   -0.00000   -0.00000   -0.00000    4    diag
    6      0.157D-03      0.606D-05       -77.98663084    114.244537   -0.00000    0.00000    0.00000    5    diag
    7      0.142D-04      0.138D-05       -77.98663085    114.244543   -0.00000    0.00000    0.00000    6    diag
    8      0.308D-05      0.227D-06       -77.98663085    114.244538   -0.00000   -0.00000   -0.00000    0    orth

 Final occupancy:   8

 !RHF STATE  1.1 Energy               -77.986630845830
 Nuclear energy                        31.71424412
 One-electron energy                 -166.82314389
 Two-electron energy                   57.12226892
 Virial quotient                       -1.00551886
 !RHF STATE  1.1 Dipole moment         -0.00000000    -0.00000000    -0.00000000
 Dipole moment /Debye                  -0.00000000    -0.00000000    -0.00000000

 ELECTRON ORBITALS
 =================

  Orbital  Occupation    Energy     Coefficients
    1.1     2.00000   -11.24553     1 1s    0.70437     2 1s    0.70437
    2.1     2.00000   -11.24465     1 1s    0.70453     2 1s   -0.70453
    3.1     2.00000    -0.99334     1 1s    0.29145     2 1s    0.29145
    4.1     2.00000    -0.77344     1 1s    0.25404     1 1s    0.26252     2 1s   -0.25404     2 1s   -0.26252
    5.1     2.00000    -0.65181     1 2py   0.31233     2 2py   0.31233
    6.1     2.00000    -0.53503     1 2py   0.31227     2 2py  -0.31227
    7.1     2.00000    -0.50724     1 2pz   0.40458     2 2pz  -0.40458
    8.1     2.00000    -0.33826     1 2px   0.36007     1 2px   0.33395     2 2px   0.36007     2 2px   0.33395
    9.1     0.00000     0.15107     1 2px   0.35376     1 2px   0.65779     2 2px  -0.35376     2 2px  -0.65779
   10.1     0.00000     0.22929     1 1s   -1.26409     1 2pz  -0.44504     2 1s   -1.26409     2 2pz   0.44504     3 1s    0.86839
                                    4 1s    0.86839     5 1s    0.86839     6 1s    0.86839
   11.1     0.00000     0.29768     1 2py  -0.96620     2 2py  -0.96620     3 1s    1.18247     4 1s   -1.18247     5 1s    1.18247
                                    6 1s   -1.18247
   12.1     0.00000     0.30510     1 1s   -1.75736     2 1s    1.75736     3 1s    1.02969     4 1s    1.02969     5 1s   -1.02969
                                    6 1s   -1.02969
   13.1     0.00000     0.37897     1 2py  -1.83060     2 2py   1.83060     3 1s    1.63919     4 1s   -1.63919     5 1s   -1.63919
                                    6 1s    1.63919
   14.1     0.00000     0.41987     1 1s   -1.93748     1 2pz   2.01208     2 1s    1.93748     2 2pz   2.01208
   15.1     0.00000     0.68589     1 1s    0.35897     1 2pz  -0.53970     1 2pz   0.84455     2 1s    0.35897     2 2pz   0.53970
                                    2 2pz  -0.84455
   16.1     0.00000     0.79949     1 2px  -0.76703     1 2px   0.63945     2 2px  -0.76703     2 2px   0.63945
   17.1     0.00000     0.84417     1 2py  -0.42001     1 2py   1.04418     2 2py  -0.42001     2 2py   1.04418     3 1s   -0.38784
                                    3 1s   -0.31091     4 1s    0.38784     4 1s    0.31091     5 1s   -0.38784     5 1s   -0.31091
                                    6 1s    0.38784     6 1s    0.31091
   18.1     0.00000     0.86870     1 1s   -0.82096     1 1s    0.96226     1 2pz   0.31451     2 1s   -0.82096     2 1s    0.96226
                                    2 2pz  -0.31451     3 1s   -0.36386     4 1s   -0.36386     5 1s   -0.36386     6 1s   -0.36386
   19.1     0.00000     0.87594     1 2px  -0.80617     1 2px   1.02716     2 2px   0.80617     2 2px  -1.02716
   20.1     0.00000     0.88843     1 2pz   0.72673     1 2pz  -0.64139     2 2pz   0.72673     2 2pz  -0.64139     3 1s    0.29236
                                    4 1s    0.29236     5 1s   -0.29236     6 1s   -0.29236
   21.1     0.00000     1.13833     1 1s   -0.64857     1 2pz  -0.49672     1 2pz   1.50469     2 1s    0.64857     2 2pz  -0.49672
                                    2 2pz   1.50469     3 1s    0.52291     3 1s   -0.87343     4 1s    0.52291     4 1s   -0.87343
                                    5 1s   -0.52291     5 1s    0.87343     6 1s   -0.52291     6 1s    0.87343
   22.1     0.00000     1.14191     1 1s   -1.09317     1 1s    1.73896     1 2pz  -0.28880     1 2pz   0.36901     2 1s   -1.09317
                                    2 1s    1.73896     2 2pz   0.28880     2 2pz  -0.36901     3 1s    0.38529     3 1s   -0.81951
                                    4 1s    0.38529     4 1s   -0.81951     5 1s    0.38529     5 1s   -0.81951     6 1s    0.38529
                                    6 1s   -0.81951
   23.1     0.00000     1.14502     1 2py   0.91884     1 2py  -2.80450     2 2py  -0.91884     2 2py   2.80450     3 1s    1.53370
                                    4 1s   -1.53370     5 1s   -1.53370     6 1s    1.53370
   24.1     0.00000     1.14828     1 2py   0.73915     1 2py  -1.15519     2 2py   0.73915     2 2py  -1.15519     3 1s   -0.41043
                                    3 1s    1.03518     4 1s    0.41043     4 1s   -1.03518     5 1s   -0.41043     5 1s    1.03518
                                    6 1s    0.41043     6 1s   -1.03518
   25.1     0.00000     1.29807     1 1s   -1.67610     1 1s    4.82197     1 2pz  -1.49117     2 1s    1.67610     2 1s   -4.82197
                                    2 2pz  -1.49117     3 1s   -0.57180     4 1s   -0.57180     5 1s    0.57180     6 1s    0.57180
   26.1     0.00000     1.58974     1 2py   2.83079     2 2py  -2.83079     3 1s   -0.75530     3 1s   -0.86589     4 1s    0.75530
                                    4 1s    0.86589     5 1s    0.75530     5 1s    0.86589     6 1s   -0.75530     6 1s   -0.86589
   27.1     0.00000     1.72428     1 3d1+  0.63919     2 3d1+ -0.63919
   28.1     0.00000     1.85836     1 3d2-  0.69189     2 3d2-  0.69189
   29.1     0.00000     2.07041     1 3d2-  0.72338     2 3d2- -0.72338
   30.1     0.00000     2.18885     1 1s   -0.47984     1 1s    0.52602     1 2pz   0.26657     1 3d0   0.50224     1 3d2+ -0.46178
                                    2 1s   -0.47984     2 1s    0.52602     2 2pz  -0.26657     2 3d0   0.50224     2 3d2+ -0.46178
   31.1     0.00000     2.18999     1 2py   0.49452     1 3d1-  0.68900     2 2py   0.49452     2 3d1- -0.68900     3 1s   -0.46952
                                    4 1s    0.46952     5 1s   -0.46952     6 1s    0.46952
   32.1     0.00000     2.41478     1 2pz  -0.28571     1 3d0   0.44495     1 3d2+  0.60126     2 2pz   0.28571     2 3d0   0.44495
                                    2 3d2+  0.60126     3 1s    0.41281     4 1s    0.41281     5 1s    0.41281     6 1s    0.41281
   33.1     0.00000     2.57420     1 3d1+  0.83169     2 3d1+  0.83169
   34.1     0.00000     2.64334     1 3d1-  0.84942     2 3d1-  0.84942     3 1s   -0.32007     4 1s    0.32007     5 1s    0.32007
                                    6 1s   -0.32007
   35.1     0.00000     2.67684     1 1s    0.35597     1 1s   -1.84587     1 2pz   0.76073     1 3d2+  0.78757     2 1s   -0.35597
                                    2 1s    1.84587     2 2pz   0.76073     2 3d2+ -0.78757     3 1s    0.46841     4 1s    0.46841
                                    5 1s   -0.46841     6 1s   -0.46841
   36.1     0.00000     2.97170     1 1s    1.47644     1 2pz  -0.49556     1 2pz  -0.88669     1 3d0   1.01204     2 1s   -1.47644
                                    2 2pz  -0.49556     2 2pz  -0.88669     2 3d0  -1.01204


 HOMO      8.1    -0.338265 =      -9.2046eV
 LUMO      9.1     0.151072 =       4.1109eV
 LUMO-HOMO         0.489337 =      13.3155eV


 **********************************************************************************************************************************
 DATASETS  * FILE   NREC   LENGTH (MB)   RECORD NAMES
              1      19       30.62       500      610      700      900      950      970     1000      129      960     1100   
                                          VAR    BASINP    GEOM    SYMINP    ZMAT    AOBASIS   BASIS     P2S    ABASIS      S 
                                         1400     1410     1200     1210     1080     1600     1650     1300     1700   
                                           T        V       H0       H01     AOSYM     SMH    MOLCAS    ERIS     OPER   

              2       4        2.86       700     1000      520     2100   
                                         GEOM     BASIS   MCVARS     RHF  

 PROGRAMS   *        TOTAL    HF-SCF       INT
 CPU TIMES  *         0.44      0.09      0.24
 REAL TIME  *         0.69 SEC
 DISK USED  *        35.45 MB
 **********************************************************************************************************************************


 PROGRAM * MULTI (Direct Multiconfiguration SCF)       Authors: P.J. Knowles, H.-J. Werner (1984)


 Number of closed-shell orbitals:   7 (   7 )
 Number of active  orbitals:        2 (   2 )
 Number of external orbitals:      27 (  27 )

 State symmetry 1

 Number of electrons:     2    Spin symmetry=Singlet   Space symmetry=1
 Number of states:        3
 Number of CSFs:          3   (4 determinants, 4 intermediate states)

 Molecular orbitals read from record     2100.2  Type=RHF/CANONICAL (state 1.1)

 EXTRA SYMMETRY OF MOS IN SYMMETRY 1:   1 1 1 1 1 1 1 2 2 1   1 1 1 1 1 2 1 1 2 1   1 1 1 1 1 1 2 3 3 1   1 1 2 1 1 1

 Wavefunction dump at record             2140.2

 Convergence thresholds  0.10E-01 (gradient)  0.10E-05 (energy)  0.10E-02 (step length)

 Weight factors for state symmetry  1:    0.33333   0.33333   0.33333

 Number of orbital rotations:      257   (    14 Core/Active    189 Core/Virtual   0 Active/Active     54 Active/Virtual)
 Total number of variables:        269

 Micro-Iterations solved by the two-step solver

 ITER. MIC  NCI  NEG     ENERGY(VAR)     ENERGY(PROJ)   ENERGY CHANGE     GRAD(0)  GRAD(ORB)   GRAD(CI)     STEP       TIME

   1    3    3    0     -77.73109198     -77.73534737   -0.00425539    0.10674212 0.00000055 0.00000000  0.53D-01      0.06
   2    2    3    0     -77.73530194     -77.73530332   -0.00000138    0.00186394 0.00000069 0.00000000  0.94D-03      0.09
   3    2    3    0     -77.73530332     -77.73530332   -0.00000000    0.00000078 0.00000000 0.00000000  0.46D-06      0.13

 ** WVFN ****  CONVERGENCE REACHED, FINAL GRADIENT:  0.17D-12



 Results for state 1.1
 =====================

 !MCSCF STATE  1.1 Energy             -78.012500064749
 Nuclear energy                        31.71424412
 Kinetic energy                        77.58393076
 One electron energy                 -166.83436558
 Two electron energy                   57.10762139
 Virial ratio                           2.00552394

 !MCSCF STATE  1.1 Dipole moment        0.00000000     0.00000000     0.00000000
 Dipole moment /Debye                   0.00000000     0.00000000     0.00000000

 Results for state 2.1
 =====================

 !MCSCF STATE  2.1 Energy             -77.665383159628
 Nuclear energy                        31.71424412
 Kinetic energy                        77.80366305
 One electron energy                 -166.49358973
 Two electron energy                   57.11396244
 Virial ratio                           1.99822271

 !MCSCF STATE  2.1 Dipole moment        0.00000000     0.00000000     0.00000000
 Dipole moment /Debye                   0.00000000     0.00000000     0.00000000

 Results for state 3.1
 =====================

 !MCSCF STATE  3.1 Energy             -77.528026745463
 Nuclear energy                        31.71424412
 Kinetic energy                        78.02339533
 One electron energy                 -166.15281387
 Two electron energy                   56.91054300
 Virial ratio                           1.99365103

 !MCSCF STATE  3.1 Dipole moment        0.00000000     0.00000000    -0.00000000
 Dipole moment /Debye                   0.00000000     0.00000000    -0.00000000

 State-averaged charge density matrix saved on record  2140.2 (density set 1)

 !MCSCF trans         <2.1|DMZ|1.1>    -1.508698982951 au =    -3.834479161089 Debye
 !MCSCF trans         <3.1|DMZ|2.1>    -2.532630117381 au =    -6.436882053734 Debye


 NATURAL ORBITALS (state averaged)
 =================================

  Orbital  Occupation    Energy     Coefficients
    1.1     2.00000   -11.25302     1 1s    0.70438     2 1s    0.70438
    2.1     2.00000   -11.25235     1 1s    0.70449     2 1s   -0.70449
    3.1     2.00000    -1.00195     1 1s    0.29777     2 1s    0.29777
    4.1     2.00000    -0.77999     1 1s    0.25280     1 1s    0.29828     2 1s   -0.25280     2 1s   -0.29828
    5.1     2.00000    -0.66082     1 2py   0.31485     2 2py   0.31485
    6.1     2.00000    -0.54036     1 2py   0.31589     2 2py  -0.31589
    7.1     2.00000    -0.51867     1 2pz   0.40642     2 2pz  -0.40642
    8.1     1.00000     0.01227     1 2px   0.38346     1 2px   0.62210     2 2px  -0.38346     2 2px  -0.62210
    9.1     1.00000    -0.20074     1 2px   0.34199     1 2px   0.34754     2 2px   0.34199     2 2px   0.34754
   10.1    -0.00000     0.22704     1 1s   -1.26070     1 2pz  -0.45036     2 1s   -1.26070     2 2pz   0.45036     3 1s    0.86791
                                    4 1s    0.86791     5 1s    0.86791     6 1s    0.86791
   11.1    -0.00000     0.29152     1 2py  -0.96243     2 2py  -0.96243     3 1s    1.17830     4 1s   -1.17830     5 1s    1.17830
                                    6 1s   -1.17830
   12.1    -0.00000     0.30238     1 1s   -1.80479     2 1s    1.80479     3 1s    1.02360     4 1s    1.02360     5 1s   -1.02360
                                    6 1s   -1.02360
   13.1    -0.00000     0.37595     1 2py  -1.82338     2 2py   1.82338     3 1s    1.63540     4 1s   -1.63540     5 1s   -1.63540
                                    6 1s    1.63540
   14.1    -0.00000     0.41748     1 1s   -1.88286     1 2pz   1.99675     2 1s    1.88286     2 2pz   1.99675     3 1s   -0.25659
                                    4 1s   -0.25659     5 1s    0.25659     6 1s    0.25659
   15.1    -0.00000     0.68301     1 1s    0.29442     1 2pz  -0.54437     1 2pz   0.84796     2 1s    0.29442     2 2pz   0.54437
                                    2 2pz  -0.84796
   16.1    -0.00000     0.79453     1 2px  -0.77508     1 2px   0.63217     2 2px  -0.77508     2 2px   0.63217
   17.1    -0.00000     0.83362     1 2py  -0.42726     1 2py   1.04348     2 2py  -0.42726     2 2py   1.04348     3 1s   -0.38600
                                    3 1s   -0.30963     4 1s    0.38600     4 1s    0.30963     5 1s   -0.38600     5 1s   -0.30963
                                    6 1s    0.38600     6 1s    0.30963
   18.1    -0.00000     0.86212     1 1s   -0.83420     1 1s    1.00539     1 2pz   0.28624     2 1s   -0.83420     2 1s    1.00539
                                    2 2pz  -0.28624     3 1s   -0.36986     4 1s   -0.36986     5 1s   -0.36986     6 1s   -0.36986
   19.1    -0.00000     0.86254     1 2px  -0.79288     1 2px   1.04922     2 2px   0.79288     2 2px  -1.04922
   20.1    -0.00000     0.87426     1 2pz   0.72046     1 2pz  -0.67504     2 2pz   0.72046     2 2pz  -0.67504     3 1s    0.30021
                                    4 1s    0.30021     5 1s   -0.30021     6 1s   -0.30021
   21.1    -0.00000     1.13452     1 1s   -0.85232     1 2pz  -0.50942     1 2pz   1.57525     2 1s    0.85232     2 2pz  -0.50942
                                    2 2pz   1.57525     3 1s    0.51881     3 1s   -0.84693     4 1s    0.51881     4 1s   -0.84693
                                    5 1s   -0.51881     5 1s    0.84693     6 1s   -0.51881     6 1s    0.84693
   22.1    -0.00000     1.13693     1 2py   0.91666     1 2py  -2.80843     2 2py  -0.91666     2 2py   2.80843     3 1s    1.53870
                                    4 1s   -1.53870     5 1s   -1.53870     6 1s    1.53870
   23.1    -0.00000     1.13747     1 2py   0.73303     1 2py  -1.15988     2 2py   0.73303     2 2py  -1.15988     3 1s   -0.40945
                                    3 1s    1.04159     4 1s    0.40945     4 1s   -1.04159     5 1s   -0.40945     5 1s    1.04159
                                    6 1s    0.40945     6 1s   -1.04159
   24.1    -0.00000     1.13989     1 1s   -1.08583     1 1s    1.73234     1 2pz  -0.29877     1 2pz   0.37962     2 1s   -1.08583
                                    2 1s    1.73234     2 2pz   0.29877     2 2pz  -0.37962     3 1s    0.38630     3 1s   -0.81788
                                    4 1s    0.38630     4 1s   -0.81788     5 1s    0.38630     5 1s   -0.81788     6 1s    0.38630
                                    6 1s   -0.81788
   25.1    -0.00000     1.28461     1 1s   -1.67943     1 1s    4.78716     1 2pz  -1.41795     2 1s    1.67943     2 1s   -4.78716
                                    2 2pz  -1.41795     3 1s   -0.60984     4 1s   -0.60984     5 1s    0.60984     6 1s    0.60984
   26.1    -0.00000     1.58346     1 2py   2.83043     2 2py  -2.83043     3 1s   -0.75417     3 1s   -0.86540     4 1s    0.75417
                                    4 1s    0.86540     5 1s    0.75417     5 1s    0.86540     6 1s   -0.75417     6 1s   -0.86540
   27.1    -0.00000     1.70707     1 3d1+  0.63909     2 3d1+ -0.63909
   28.1    -0.00000     1.85002     1 3d2-  0.69189     2 3d2-  0.69189
   29.1    -0.00000     2.05337     1 3d2-  0.72338     2 3d2- -0.72338
   30.1    -0.00000     2.17535     1 1s   -0.47749     1 1s    0.51932     1 2pz   0.27149     1 3d0   0.50709     1 3d2+ -0.45546
                                    2 1s   -0.47749     2 1s    0.51932     2 2pz  -0.27149     2 3d0   0.50709     2 3d2+ -0.45546
   31.1    -0.00000     2.17946     1 2py   0.48988     1 3d1-  0.68759     2 2py   0.48988     2 3d1- -0.68759     3 1s   -0.47253
                                    4 1s    0.47253     5 1s   -0.47253     6 1s    0.47253
   32.1    -0.00000     2.40188     1 2pz  -0.28649     1 3d0   0.43930     1 3d2+  0.60597     2 2pz   0.28649     2 3d0   0.43930
                                    2 3d2+  0.60597     3 1s    0.41477     4 1s    0.41477     5 1s    0.41477     6 1s    0.41477
   33.1    -0.00000     2.55616     1 3d1+  0.83193     2 3d1+  0.83193
   34.1    -0.00000     2.63415     1 3d1-  0.84895     2 3d1-  0.84895     3 1s   -0.32329     4 1s    0.32329     5 1s    0.32329
                                    6 1s   -0.32329
   35.1    -0.00000     2.66337     1 1s    0.35776     1 1s   -1.85327     1 2pz   0.76272     1 3d2+  0.78721     2 1s   -0.35776
                                    2 1s    1.85327     2 2pz   0.76272     2 3d2+ -0.78721     3 1s    0.47076     4 1s    0.47076
                                    5 1s   -0.47076     6 1s   -0.47076
   36.1    -0.00000     2.95942     1 1s    1.49383     1 2pz  -0.48991     1 2pz  -0.89574     1 3d0   1.01315     2 1s   -1.49383
                                    2 2pz  -0.48991     2 2pz  -0.89574     2 3d0  -1.01315


 Natural orbital dump (state averaged) at molpro section  2140.2    (Orbital set 2)



 **********************************************************************************************************************************
 DATASETS  * FILE   NREC   LENGTH (MB)   RECORD NAMES
              1      20       31.35       500      610      700      900      950      970     1000      129      960     1100   
                                          VAR    BASINP    GEOM    SYMINP    ZMAT    AOBASIS   BASIS     P2S    ABASIS      S 
                                         1400     1410     1200     1210     1080     1600     1650     1300     1700     1380   
                                           T        V       H0       H01     AOSYM     SMH    MOLCAS    ERIS     OPER     JKOP   

              2       5        5.42       700     1000      520     2100     2140   
                                         GEOM     BASIS   MCVARS     RHF     MCSCF   

 PROGRAMS   *        TOTAL     MULTI    HF-SCF       INT
 CPU TIMES  *         0.61      0.16      0.09      0.24
 REAL TIME  *         0.88 SEC
 DISK USED  *        38.54 MB
 **********************************************************************************************************************************
 Molecular orbitals read from record     2140.2  Type=MCSCF/NATURAL (state averaged)
 Occupation numbers read from record     2140.2  Type=MCSCF/NATURAL (state averaged)
 Orbital energies read from record       2140.2  Type=MCSCF/NATURAL (state averaged)
 Redundancy group numbers read from rec  2140.2  Type=MCSCF/NATURAL (state averaged)

 MULTI/6-31G* energy=    -77.528026745463

           MULTI          HF-SCF
    -77.52802675    -77.98663085
 **********************************************************************************************************************************
 Molpro calculation terminated
