
 Primary working directories    : /scratch.local/johan406.molpro_temp/molpro.lz1M88Ptw1
 Secondary working directories  : /scratch.local/johan406.molpro_temp/molpro.lz1M88Ptw1
 Wavefunction directory         : /home/goodpast/johan406/wfu/
 Main file repository           : /scratch.local/johan406.molpro_temp/molpro.lz1M88Ptw1/

 id        : roweumn

 Nodes     nprocs
 cn0117       1

 Using customized tuning parameters: mindgm=1; mindgv=20; mindgc=4; mindgr=1; noblas=0; minvec=7
 default implementation of scratch files=df  


 Variables initialized (934), CPU time= 0.00 sec
                                                                                 !leave this line blank
 
 gprint, orbitals=30
 memory, 125., m
 symmetry, nosym
 nelect=16
 basis=6-31g*
 
 geometry={
 C 0.0 0.0 0.7418
 C 0.0 0.0 -0.7418
 H 0.0 1.0287 1.1368
 H -0.0 -1.0287 1.1368
 H 0.0 1.0287 -1.1368
 H 0.0 -1.0287 -1.1368
 }
 
 hf
 {multi,
 closed 7
 occ 9
 wf,spin=0;STATE,3
 }
 
 Commands  initialized (763), CPU time= 0.01 sec, 617 directives.
 Default parameters read. Elapsed time= 0.08 sec

 Checking input...
 Passed
1


                                         ***  PROGRAM SYSTEM MOLPRO  ***
                                       Copyright, TTI GmbH Stuttgart, 2015
                                    Version 2019.2 linked Oct 25 2019 22:50:27


 **********************************************************************************************************************************
 LABEL *                                                                                 
  64 bit serial version                                                                  DATE: 26-Jan-23          TIME: 20:38:26  
 **********************************************************************************************************************************

 SHA1:             8dbd9ae1082e4ce945b0f27595c9eb2d4aa09004
 **********************************************************************************************************************************


 Variable memory set to  125000000 words,  buffer space 

 SETTING NELECT         =        16.00000000                                  
 SETTING BASIS          =    6-31G*
 ZSYMEL=NOSYM


Geometry recognized as XYZ



 Recomputing integrals since basis changed


 Using spherical harmonics

 Library entry C      S 6-31G                selected for orbital group  1
 Library entry C      P 6-31G                selected for orbital group  1
 Library entry C      D 6-31G*               selected for orbital group  1
 Library entry H      S 6-31G                selected for orbital group  2


 PROGRAM * SEWARD (Integral evaluation for generally contracted gaussian basis sets)     Author: Roland Lindh, 1990

 Geometry written to block  1 of record 700


 Point group  C1  



 ATOMIC COORDINATES

 NR  ATOM    CHARGE       X              Y              Z

   1  C       6.00    0.000000000    0.000000000    1.401798839
   2  C       6.00    0.000000000    0.000000000   -1.401798839
   3  H       1.00    0.000000000    1.943961264    2.148240658
   4  H       1.00    0.000000000   -1.943961264    2.148240658
   5  H       1.00    0.000000000    1.943961264   -2.148240658
   6  H       1.00    0.000000000   -1.943961264   -2.148240658

 Bond lengths in Bohr (Angstrom)

 1-2  2.803597678  1-3  2.082345021  1-4  2.082345021  2-5  2.082345021  2-6  2.082345021
     ( 1.483600000)     ( 1.101929530)     ( 1.101929530)     ( 1.101929530)     ( 1.101929530)

 Bond angles

  1-2-5  111.00577980   1-2-6  111.00577980   2-1-3  111.00577980   2-1-4  111.00577980

  3-1-4  137.98844041   5-2-6  137.98844041

 NUCLEAR CHARGE:                   16
 NUMBER OF PRIMITIVE AOS:          72
 NUMBER OF SYMMETRY AOS:           70
 NUMBER OF CONTRACTIONS:           36   (   36A   )
 NUMBER OF CORE ORBITALS:           2   (    2A   )
 NUMBER OF VALENCE ORBITALS:       12   (   12A   )


 NUCLEAR REPULSION ENERGY   31.62085497

 EXTRA SYMMETRY OF AOS IN SYMMETRY 1:   1 1 1 2 1 1 2 1 1 1   3 2 1 1 1 1 1 2 1 1   2 1 1 1 3 2 1 1 1 1   1 1 1 1 1 1

 Eigenvalues of metric

         1 0.112E-01 0.166E-01 0.512E-01 0.578E-01 0.667E-01 0.239E+00 0.266E+00 0.267E+00


 Contracted 2-electron integrals neglected if value below      1.0D-11
 AO integral compression algorithm  1   Integral accuracy      1.0D-11

     0.786 MB (compressed) written to integral file ( 37.1%)


 NUMBER OF SORTED TWO-ELECTRON INTEGRALS:     222111.     BUFFER LENGTH:  32768
 NUMBER OF SEGMENTS:   1  SEGMENT LENGTH:     222111      RECORD LENGTH: 524288

 Memory used in sort:       0.78 MW

 SORT1 READ      284735. AND WROTE       98252. INTEGRALS IN      1 RECORDS. CPU TIME:     0.00 SEC, REAL TIME:     0.01 SEC
 SORT2 READ       98252. AND WROTE      222111. INTEGRALS IN      3 RECORDS. CPU TIME:     0.02 SEC, REAL TIME:     0.02 SEC

 FILE SIZES:   FILE 1:    30.9 MBYTE,  FILE 4:     4.2 MBYTE,   TOTAL:     35.1 MBYTE

 OPERATOR DM      FOR CENTER  0  COORDINATES:    0.000000    0.000000    0.000000


 **********************************************************************************************************************************
 DATASETS  * FILE   NREC   LENGTH (MB)   RECORD NAMES
              1      19       30.62       500      610      700      900      950      970     1000      129      960     1100   
                                          VAR    BASINP    GEOM    SYMINP    ZMAT    AOBASIS   BASIS     P2S    ABASIS      S 
                                         1400     1410     1200     1210     1080     1600     1650     1300     1700   
                                           T        V       H0       H01     AOSYM     SMH    MOLCAS    ERIS     OPER   

 PROGRAMS   *        TOTAL       INT
 CPU TIMES  *         0.35      0.25
 REAL TIME  *         0.57 SEC
 DISK USED  *        35.45 MB
 **********************************************************************************************************************************


 PROGRAM * RHF-SCF (CLOSED SHELL)       Authors: W. Meyer, H.-J. Werner


 NUMBER OF ELECTRONS:       8+    8-    SPACE SYMMETRY=1    SPIN SYMMETRY: Singlet 
 CONVERGENCE THRESHOLDS:    1.00E-05 (Density)    1.00E-07 (Energy)
 MAX. NUMBER OF ITERATIONS:       60
 INTERPOLATION TYPE:            DIIS
 INTERPOLATION STEPS:              2 (START)      1 (STEP)
 LEVEL SHIFTS:                  0.00 (CLOSED)  0.00 (OPEN) 



 Orbital guess generated from atomic densities. Full valence occupancy:    8

 Molecular orbital dump at record        2100.2

 Initial occupancy:   8

 ITERATION    DDIFF          GRAD             ENERGY        2-EL.EN.            DIPOLE MOMENTS         DIIS   ORB.
    1      0.000D+00      0.000D+00       -77.96347250    114.914805   -0.00000   -0.00000   -0.00000    0    start
    2      0.000D+00      0.730D-02       -77.98080123    113.717811    0.00000    0.00000    0.00000    1    diag
    3      0.715D-02      0.220D-02       -77.98222995    114.169378    0.00000    0.00000    0.00000    2    diag
    4      0.218D-02      0.629D-03       -77.98238812    114.066657   -0.00000    0.00000    0.00000    3    diag
    5      0.896D-03      0.687D-04       -77.98239070    114.069329   -0.00000   -0.00000    0.00000    4    diag
    6      0.161D-03      0.628D-05       -77.98239073    114.068970    0.00000   -0.00000   -0.00000    5    diag
    7      0.150D-04      0.146D-05       -77.98239073    114.068977   -0.00000   -0.00000   -0.00000    6    diag
    8      0.333D-05      0.235D-06       -77.98239073    114.068972    0.00000   -0.00000    0.00000    0    orth

 Final occupancy:   8

 !RHF STATE  1.1 Energy               -77.982390729862
 Nuclear energy                        31.62085497
 One-electron energy                 -166.63773151
 Two-electron energy                   57.03448580
 Virial quotient                       -1.00580318
 !RHF STATE  1.1 Dipole moment          0.00000000    -0.00000000     0.00000000
 Dipole moment /Debye                   0.00000000    -0.00000000     0.00000000

 ELECTRON ORBITALS
 =================

  Orbital  Occupation    Energy     Coefficients
    1.1     2.00000   -11.24680     1 1s    0.70437     2 1s    0.70437
    2.1     2.00000   -11.24595     1 1s    0.70453     2 1s   -0.70453
    3.1     2.00000    -0.99158     1 1s    0.29083     2 1s    0.29083
    4.1     2.00000    -0.77225     1 1s    0.25476     1 1s    0.26382     2 1s   -0.25476     2 1s   -0.26382
    5.1     2.00000    -0.65200     1 2py   0.31176     2 2py   0.31176
    6.1     2.00000    -0.53572     1 2py   0.31241     2 2py  -0.31241
    7.1     2.00000    -0.50326     1 2pz   0.40429     2 2pz  -0.40429
    8.1     2.00000    -0.33681     1 2px   0.35949     1 2px   0.33520     2 2px   0.35949     2 2px   0.33520
    9.1     0.00000     0.14967     1 2px   0.35429     1 2px   0.65429     2 2px  -0.35429     2 2px  -0.65429
   10.1     0.00000     0.22666     1 1s   -1.25100     1 2pz  -0.43538     2 1s   -1.25100     2 2pz   0.43538     3 1s    0.85867
                                    4 1s    0.85867     5 1s    0.85867     6 1s    0.85867
   11.1     0.00000     0.29733     1 2py  -0.97301     2 2py  -0.97301     3 1s    1.18454     4 1s   -1.18454     5 1s    1.18454
                                    6 1s   -1.18454
   12.1     0.00000     0.30414     1 1s   -1.73489     2 1s    1.73489     3 1s    1.02616     4 1s    1.02616     5 1s   -1.02616
                                    6 1s   -1.02616
   13.1     0.00000     0.37872     1 2py  -1.82360     2 2py   1.82360     3 1s    1.63719     4 1s   -1.63719     5 1s   -1.63719
                                    6 1s    1.63719
   14.1     0.00000     0.41611     1 1s   -1.91045     1 2pz   1.97484     2 1s    1.91045     2 2pz   1.97484
   15.1     0.00000     0.68660     1 1s    0.36027     1 2pz  -0.53757     1 2pz   0.83326     2 1s    0.36027     2 2pz   0.53757
                                    2 2pz  -0.83326
   16.1     0.00000     0.80026     1 2px  -0.76810     1 2px   0.63942     2 2px  -0.76810     2 2px   0.63942
   17.1     0.00000     0.85042     1 2py  -0.42297     1 2py   1.06117     2 2py  -0.42297     2 2py   1.06117     3 1s   -0.38783
                                    3 1s   -0.32460     4 1s    0.38783     4 1s    0.32460     5 1s   -0.38783     5 1s   -0.32460
                                    6 1s    0.38783     6 1s    0.32460
   18.1     0.00000     0.87063     1 1s   -0.81326     1 1s    0.93808     1 2pz   0.32640     2 1s   -0.81326     2 1s    0.93808
                                    2 2pz  -0.32640     3 1s   -0.36262     4 1s   -0.36262     5 1s   -0.36262     6 1s   -0.36262
   19.1     0.00000     0.87529     1 2px  -0.80562     1 2px   1.02486     2 2px   0.80562     2 2px  -1.02486
   20.1     0.00000     0.88504     1 2pz   0.73117     1 2pz  -0.65651     2 2pz   0.73117     2 2pz  -0.65651     3 1s    0.28775
                                    4 1s    0.28775     5 1s   -0.28775     6 1s   -0.28775
   21.1     0.00000     1.13449     1 1s   -0.63934     1 2pz  -0.48717     1 2pz   1.49418     2 1s    0.63934     2 2pz  -0.48717
                                    2 2pz   1.49418     3 1s    0.52466     3 1s   -0.87349     4 1s    0.52466     4 1s   -0.87349
                                    5 1s   -0.52466     5 1s    0.87349     6 1s   -0.52466     6 1s    0.87349
   22.1     0.00000     1.13783     1 1s   -1.09674     1 1s    1.73765     1 2pz  -0.28308     1 2pz   0.36023     2 1s   -1.09674
                                    2 1s    1.73765     2 2pz   0.28308     2 2pz  -0.36023     3 1s    0.38208     3 1s   -0.81562
                                    4 1s    0.38208     4 1s   -0.81562     5 1s    0.38208     5 1s   -0.81562     6 1s    0.38208
                                    6 1s   -0.81562
   23.1     0.00000     1.14374     1 2py   0.91791     1 2py  -2.79416     2 2py  -0.91791     2 2py   2.79416     3 1s    1.53299
                                    4 1s   -1.53299     5 1s   -1.53299     6 1s    1.53299
   24.1     0.00000     1.14840     1 2py   0.74004     1 2py  -1.15373     2 2py   0.74004     2 2py  -1.15373     3 1s   -0.41282
                                    3 1s    1.03158     4 1s    0.41282     4 1s   -1.03158     5 1s   -0.41282     5 1s    1.03158
                                    6 1s    0.41282     6 1s   -1.03158
   25.1     0.00000     1.29661     1 1s   -1.67547     1 1s    4.79047     1 2pz  -1.48585     2 1s    1.67547     2 1s   -4.79047
                                    2 2pz  -1.48585     3 1s   -0.57186     4 1s   -0.57186     5 1s    0.57186     6 1s    0.57186
   26.1     0.00000     1.58968     1 2py   2.82549     2 2py  -2.82549     3 1s   -0.75794     3 1s   -0.86510     4 1s    0.75794
                                    4 1s    0.86510     5 1s    0.75794     5 1s    0.86510     6 1s   -0.75794     6 1s   -0.86510
   27.1     0.00000     1.72468     1 3d1+  0.64034     2 3d1+ -0.64034
   28.1     0.00000     1.86030     1 3d2-  0.69234     2 3d2-  0.69234
   29.1     0.00000     2.06791     1 3d2-  0.72286     2 3d2- -0.72286
   30.1     0.00000     2.18063     1 2py   0.51039     1 3d1-  0.68831     2 2py   0.51039     2 3d1- -0.68831     3 1s   -0.46533
                                    4 1s    0.46533     5 1s   -0.46533     6 1s    0.46533
   31.1     0.00000     2.18338     1 1s   -0.48353     1 1s    0.52046     1 2pz   0.26969     1 3d0   0.51045     1 3d2+ -0.44850
                                    2 1s   -0.48353     2 1s    0.52046     2 2pz  -0.26969     2 3d0   0.51045     2 3d2+ -0.44850
   32.1     0.00000     2.41830     1 2pz  -0.27417     1 3d0   0.43371     1 3d2+  0.61227     2 2pz   0.27417     2 3d0   0.43371
                                    2 3d2+  0.61227     3 1s    0.41747     4 1s    0.41747     5 1s    0.41747     6 1s    0.41747
   33.1     0.00000     2.56709     1 3d1+  0.82862     2 3d1+  0.82862
   34.1     0.00000     2.62334     1 3d1-  0.84499     2 3d1-  0.84499     3 1s   -0.30537     4 1s    0.30537     5 1s    0.30537
                                    6 1s   -0.30537
   35.1     0.00000     2.67788     1 1s    0.36251     1 1s   -1.86185     1 2pz   0.77900     1 3d2+  0.78566     2 1s   -0.36251
                                    2 1s    1.86185     2 2pz   0.77900     2 3d2+ -0.78566     3 1s    0.46781     4 1s    0.46781
                                    5 1s   -0.46781     6 1s   -0.46781
   36.1     0.00000     2.96898     1 1s    1.44627     1 2pz  -0.48164     1 2pz  -0.86976     1 3d0   1.00618     2 1s   -1.44627
                                    2 2pz  -0.48164     2 2pz  -0.86976     2 3d0  -1.00618


 HOMO      8.1    -0.336811 =      -9.1651eV
 LUMO      9.1     0.149675 =       4.0729eV
 LUMO-HOMO         0.486486 =      13.2380eV


 **********************************************************************************************************************************
 DATASETS  * FILE   NREC   LENGTH (MB)   RECORD NAMES
              1      19       30.62       500      610      700      900      950      970     1000      129      960     1100   
                                          VAR    BASINP    GEOM    SYMINP    ZMAT    AOBASIS   BASIS     P2S    ABASIS      S 
                                         1400     1410     1200     1210     1080     1600     1650     1300     1700   
                                           T        V       H0       H01     AOSYM     SMH    MOLCAS    ERIS     OPER   

              2       4        2.86       700     1000      520     2100   
                                         GEOM     BASIS   MCVARS     RHF  

 PROGRAMS   *        TOTAL    HF-SCF       INT
 CPU TIMES  *         0.46      0.11      0.25
 REAL TIME  *         0.70 SEC
 DISK USED  *        35.45 MB
 **********************************************************************************************************************************


 PROGRAM * MULTI (Direct Multiconfiguration SCF)       Authors: P.J. Knowles, H.-J. Werner (1984)


 Number of closed-shell orbitals:   7 (   7 )
 Number of active  orbitals:        2 (   2 )
 Number of external orbitals:      27 (  27 )

 State symmetry 1

 Number of electrons:     2    Spin symmetry=Singlet   Space symmetry=1
 Number of states:        3
 Number of CSFs:          3   (4 determinants, 4 intermediate states)

 Molecular orbitals read from record     2100.2  Type=RHF/CANONICAL (state 1.1)

 EXTRA SYMMETRY OF MOS IN SYMMETRY 1:   1 1 1 1 1 1 1 2 2 1   1 1 1 1 1 2 1 1 2 1   1 1 1 1 1 1 2 3 3 1   1 1 2 1 1 1

 Wavefunction dump at record             2140.2

 Convergence thresholds  0.10E-01 (gradient)  0.10E-05 (energy)  0.10E-02 (step length)

 Weight factors for state symmetry  1:    0.33333   0.33333   0.33333

 Number of orbital rotations:      257   (    14 Core/Active    189 Core/Virtual   0 Active/Active     54 Active/Virtual)
 Total number of variables:        269

 Micro-Iterations solved by the two-step solver

 ITER. MIC  NCI  NEG     ENERGY(VAR)     ENERGY(PROJ)   ENERGY CHANGE     GRAD(0)  GRAD(ORB)   GRAD(CI)     STEP       TIME

   1    3    3    0     -77.72899890     -77.73317868   -0.00417979    0.10561660 0.00000052 0.00000000  0.53D-01      0.07
   2    2    3    0     -77.73313509     -77.73313640   -0.00000131    0.00181940 0.00000066 0.00000000  0.92D-03      0.10
   3    2    3    0     -77.73313640     -77.73313640   -0.00000000    0.00000074 0.00000000 0.00000000  0.43D-06      0.14

 ** WVFN ****  CONVERGENCE REACHED, FINAL GRADIENT:  0.15D-12



 Results for state 1.1
 =====================

 !MCSCF STATE  1.1 Energy             -78.008714445827
 Nuclear energy                        31.62085497
 Kinetic energy                        77.55609936
 One electron energy                 -166.64377853
 Two electron energy                   57.01420911
 Virial ratio                           2.00583597

 !MCSCF STATE  1.1 Dipole moment        0.00000000    -0.00000000     0.00000000
 Dipole moment /Debye                   0.00000000    -0.00000000     0.00000000

 Results for state 2.1
 =====================

 !MCSCF STATE  2.1 Energy             -77.662901919423
 Nuclear energy                        31.62085497
 Kinetic energy                        77.77707524
 One electron energy                 -166.31323537
 Two electron energy                   57.02947848
 Virial ratio                           1.99853204

 !MCSCF STATE  2.1 Dipole moment        0.00000000    -0.00000000     0.00000000
 Dipole moment /Debye                   0.00000000    -0.00000000     0.00000000

 Results for state 3.1
 =====================

 !MCSCF STATE  3.1 Energy             -77.527792845919
 Nuclear energy                        31.62085497
 Kinetic energy                        77.99805111
 One electron energy                 -165.98269221
 Two electron energy                   56.83404439
 Virial ratio                           1.99397090

 !MCSCF STATE  3.1 Dipole moment        0.00000000    -0.00000000     0.00000000
 Dipole moment /Debye                   0.00000000    -0.00000000     0.00000000

 State-averaged charge density matrix saved on record  2140.2 (density set 1)

 !MCSCF trans         <2.1|DMZ|1.1>    -1.507604740228 au =    -3.831698055669 Debye
 !MCSCF trans         <3.1|DMZ|2.1>    -2.546803397736 au =    -6.472904579617 Debye


 NATURAL ORBITALS (state averaged)
 =================================

  Orbital  Occupation    Energy     Coefficients
    1.1     2.00000   -11.25394     1 1s    0.70438     2 1s    0.70438
    2.1     2.00000   -11.25329     1 1s    0.70450     2 1s   -0.70450
    3.1     2.00000    -0.99993     1 1s    0.29706     2 1s    0.29706
    4.1     2.00000    -0.77875     1 1s    0.25345     1 1s    0.29913     2 1s   -0.25345     2 1s   -0.29913
    5.1     2.00000    -0.66086     1 2py   0.31415     2 2py   0.31415
    6.1     2.00000    -0.54099     1 2py   0.31592     2 2py  -0.31592
    7.1     2.00000    -0.51450     1 2pz   0.40610     2 2pz  -0.40610
    8.1     1.00000     0.01120     1 2px   0.38360     1 2px   0.61912     2 2px  -0.38360     2 2px  -0.61912
    9.1     1.00000    -0.19962     1 2px   0.34128     1 2px   0.34889     2 2px   0.34128     2 2px   0.34889
   10.1    -0.00000     0.22445     1 1s   -1.24768     1 2pz  -0.44069     2 1s   -1.24768     2 2pz   0.44069     3 1s    0.85820
                                    4 1s    0.85820     5 1s    0.85820     6 1s    0.85820
   11.1    -0.00000     0.29126     1 2py  -0.96948     2 2py  -0.96948     3 1s    1.18058     4 1s   -1.18058     5 1s    1.18058
                                    6 1s   -1.18058
   12.1    -0.00000     0.30147     1 1s   -1.78419     2 1s    1.78419     3 1s    1.02029     4 1s    1.02029     5 1s   -1.02029
                                    6 1s   -1.02029
   13.1    -0.00000     0.37574     1 2py  -1.81668     2 2py   1.81668     3 1s    1.63352     4 1s   -1.63352     5 1s   -1.63352
                                    6 1s    1.63352
   14.1    -0.00000     0.41366     1 1s   -1.85379     1 2pz   1.95972     2 1s    1.85379     2 2pz   1.95972
   15.1    -0.00000     0.68402     1 1s    0.29784     1 2pz  -0.54243     1 2pz   0.83737     2 1s    0.29784     2 2pz   0.54243
                                    2 2pz  -0.83737
   16.1    -0.00000     0.79534     1 2px  -0.77621     1 2px   0.63203     2 2px  -0.77621     2 2px   0.63203
   17.1    -0.00000     0.83990     1 2py  -0.42999     1 2py   1.06020     2 2py  -0.42999     2 2py   1.06020     3 1s   -0.38611
                                    3 1s   -0.32310     4 1s    0.38611     4 1s    0.32310     5 1s   -0.38611     5 1s   -0.32310
                                    6 1s    0.38611     6 1s    0.32310
   18.1    -0.00000     0.86208     1 2px  -0.79245     1 2px   1.04655     2 2px   0.79245     2 2px  -1.04655
   19.1    -0.00000     0.86397     1 1s   -0.82757     1 1s    0.98178     1 2pz   0.29883     2 1s   -0.82757     2 1s    0.98178
                                    2 2pz  -0.29883     3 1s   -0.36842     4 1s   -0.36842     5 1s   -0.36842     6 1s   -0.36842
   20.1    -0.00000     0.87121     1 2pz   0.72457     1 2pz  -0.68818     2 2pz   0.72457     2 2pz  -0.68818     3 1s    0.29593
                                    4 1s    0.29593     5 1s   -0.29593     6 1s   -0.29593
   21.1    -0.00000     1.13068     1 1s   -0.83752     1 2pz  -0.50016     1 2pz   1.56367     2 1s    0.83752     2 2pz  -0.50016
                                    2 2pz   1.56367     3 1s    0.52049     3 1s   -0.84757     4 1s    0.52049     4 1s   -0.84757
                                    5 1s   -0.52049     5 1s    0.84757     6 1s   -0.52049     6 1s    0.84757
   22.1    -0.00000     1.13583     1 1s   -1.08922     1 1s    1.73091     1 2pz  -0.29348     1 2pz   0.37121     2 1s   -1.08922
                                    2 1s    1.73091     2 2pz   0.29348     2 2pz  -0.37121     3 1s    0.38316     3 1s   -0.81397
                                    4 1s    0.38316     4 1s   -0.81397     5 1s    0.38316     5 1s   -0.81397     6 1s    0.38316
                                    6 1s   -0.81397
   23.1    -0.00000     1.13587     1 2py   0.91577     1 2py  -2.79788     2 2py  -0.91577     2 2py   2.79788     3 1s    1.53782
                                    4 1s   -1.53782     5 1s   -1.53782     6 1s    1.53782
   24.1    -0.00000     1.13785     1 2py   0.73418     1 2py  -1.15856     2 2py   0.73418     2 2py  -1.15856     3 1s   -0.41179
                                    3 1s    1.03790     4 1s    0.41179     4 1s   -1.03790     5 1s   -0.41179     5 1s    1.03790
                                    6 1s    0.41179     6 1s   -1.03790
   25.1    -0.00000     1.28329     1 1s   -1.67863     1 1s    4.75631     1 2pz  -1.41437     2 1s    1.67863     2 1s   -4.75631
                                    2 2pz  -1.41437     3 1s   -0.60904     4 1s   -0.60904     5 1s    0.60904     6 1s    0.60904
   26.1    -0.00000     1.58361     1 2py   2.82524     2 2py  -2.82524     3 1s   -0.75684     3 1s   -0.86466     4 1s    0.75684
                                    4 1s    0.86466     5 1s    0.75684     5 1s    0.86466     6 1s   -0.75684     6 1s   -0.86466
   27.1    -0.00000     1.70788     1 3d1+  0.64025     2 3d1+ -0.64025
   28.1    -0.00000     1.85221     1 3d2-  0.69234     2 3d2-  0.69234
   29.1    -0.00000     2.05117     1 3d2-  0.72286     2 3d2- -0.72286
   30.1    -0.00000     2.16996     1 1s   -0.48091     1 1s    0.51375     1 2pz   0.27450     1 3d0   0.51496     1 3d2+ -0.44240
                                    2 1s   -0.48091     2 1s    0.51375     2 2pz  -0.27450     2 3d0   0.51496     2 3d2+ -0.44240
   31.1    -0.00000     2.17033     1 2py   0.50579     1 3d1-  0.68692     2 2py   0.50579     2 3d1- -0.68692     3 1s   -0.46832
                                    4 1s    0.46832     5 1s   -0.46832     6 1s    0.46832
   32.1    -0.00000     2.40577     1 2pz  -0.27493     1 3d0   0.42823     1 3d2+  0.61661     2 2pz   0.27493     2 3d0   0.42823
                                    2 3d2+  0.61661     3 1s    0.41923     4 1s    0.41923     5 1s    0.41923     6 1s    0.41923
   33.1    -0.00000     2.54927     1 3d1+  0.82885     2 3d1+  0.82885
   34.1    -0.00000     2.61424     1 3d1-  0.84454     2 3d1-  0.84454     3 1s   -0.30864     4 1s    0.30864     5 1s    0.30864
                                    6 1s   -0.30864
   35.1    -0.00000     2.66470     1 1s    0.36432     1 1s   -1.86928     1 2pz   0.78109     1 3d2+  0.78532     2 1s   -0.36432
                                    2 1s    1.86928     2 2pz   0.78109     2 3d2+ -0.78532     3 1s    0.47011     4 1s    0.47011
                                    5 1s   -0.47011     6 1s   -0.47011
   36.1    -0.00000     2.95694     1 1s    1.46318     1 2pz  -0.47608     1 2pz  -0.87857     1 3d0   1.00727     2 1s   -1.46318
                                    2 2pz  -0.47608     2 2pz  -0.87857     2 3d0  -1.00727


 EXTRA SYMMETRY OF MOS IN SYMMETRY 1:   1 1 1 1 1 1 1 2 2 1   1 1 1 1 1 2 1 2 1 1   1 1 1 1 1 1 2 3 3 1   1 1 2 1 1 1

 Natural orbital dump (state averaged) at molpro section  2140.2    (Orbital set 2)



 **********************************************************************************************************************************
 DATASETS  * FILE   NREC   LENGTH (MB)   RECORD NAMES
              1      20       31.35       500      610      700      900      950      970     1000      129      960     1100   
                                          VAR    BASINP    GEOM    SYMINP    ZMAT    AOBASIS   BASIS     P2S    ABASIS      S 
                                         1400     1410     1200     1210     1080     1600     1650     1300     1700     1380   
                                           T        V       H0       H01     AOSYM     SMH    MOLCAS    ERIS     OPER     JKOP   

              2       5        5.42       700     1000      520     2100     2140   
                                         GEOM     BASIS   MCVARS     RHF     MCSCF   

 PROGRAMS   *        TOTAL     MULTI    HF-SCF       INT
 CPU TIMES  *         0.63      0.17      0.11      0.25
 REAL TIME  *         0.89 SEC
 DISK USED  *        38.54 MB
 **********************************************************************************************************************************
 Molecular orbitals read from record     2140.2  Type=MCSCF/NATURAL (state averaged)
 Occupation numbers read from record     2140.2  Type=MCSCF/NATURAL (state averaged)
 Orbital energies read from record       2140.2  Type=MCSCF/NATURAL (state averaged)
 Redundancy group numbers read from rec  2140.2  Type=MCSCF/NATURAL (state averaged)

 MULTI/6-31G* energy=    -77.527792845919

           MULTI          HF-SCF
    -77.52779285    -77.98239073
 **********************************************************************************************************************************
 Molpro calculation terminated
