
 Primary working directories    : /scratch.local/johan406.molpro_temp/molpro.VhwLVBGZHG
 Secondary working directories  : /scratch.local/johan406.molpro_temp/molpro.VhwLVBGZHG
 Wavefunction directory         : /home/goodpast/johan406/wfu/
 Main file repository           : /scratch.local/johan406.molpro_temp/molpro.VhwLVBGZHG/

 id        : roweumn

 Nodes     nprocs
 cn0117       1

 Using customized tuning parameters: mindgm=1; mindgv=20; mindgc=4; mindgr=1; noblas=0; minvec=7
 default implementation of scratch files=df  


 Variables initialized (934), CPU time= 0.00 sec
                                                                                 !leave this line blank
 
 gprint, orbitals=30
 memory, 125., m
 symmetry, nosym
 nelect=16
 basis=6-31g*
 
 geometry={
 C -0.0 0.0 0.669
 C 0.0 0.0 -0.6693
 H 0.0 0.9166 1.2358
 H 0.0 -0.9166 1.2358
 H 0.0 0.9132 -1.2338
 H -0.0 -0.9132 -1.2338
 }
 
 hf
 {multi,
 closed 7
 occ 9
 wf,spin=0;STATE,3
 }
 
 Commands  initialized (763), CPU time= 0.01 sec, 617 directives.
 Default parameters read. Elapsed time= 0.08 sec

 Checking input...
 Passed
1


                                         ***  PROGRAM SYSTEM MOLPRO  ***
                                       Copyright, TTI GmbH Stuttgart, 2015
                                    Version 2019.2 linked Oct 25 2019 22:50:27


 **********************************************************************************************************************************
 LABEL *                                                                                 
  64 bit serial version                                                                  DATE: 26-Jan-23          TIME: 20:40:33  
 **********************************************************************************************************************************

 SHA1:             8dbd9ae1082e4ce945b0f27595c9eb2d4aa09004
 **********************************************************************************************************************************


 Variable memory set to  125000000 words,  buffer space 

 SETTING NELECT         =        16.00000000                                  
 SETTING BASIS          =    6-31G*
 ZSYMEL=NOSYM


Geometry recognized as XYZ



 Recomputing integrals since basis changed


 Using spherical harmonics

 Library entry C      S 6-31G                selected for orbital group  1
 Library entry C      P 6-31G                selected for orbital group  1
 Library entry C      D 6-31G*               selected for orbital group  1
 Library entry H      S 6-31G                selected for orbital group  2


 PROGRAM * SEWARD (Integral evaluation for generally contracted gaussian basis sets)     Author: Roland Lindh, 1990

 Geometry written to block  1 of record 700


 Point group  C1  



 ATOMIC COORDINATES

 NR  ATOM    CHARGE       X              Y              Z

   1  C       6.00    0.000000000    0.000000000    1.264226777
   2  C       6.00    0.000000000    0.000000000   -1.264793695
   3  H       1.00    0.000000000    1.732122966    2.335323545
   4  H       1.00    0.000000000   -1.732122966    2.335323545
   5  H       1.00    0.000000000    1.725697897   -2.331544092
   6  H       1.00    0.000000000   -1.725697897   -2.331544092

 Bond lengths in Bohr (Angstrom)

 1-2  2.529020473  1-3  2.036540757  1-4  2.036540757  2-5  2.028790192  2-6  2.028790192
     ( 1.338300000)     ( 1.077690958)     ( 1.077690958)     ( 1.073589535)     ( 1.073589535)

 Bond angles

  1-2-5  121.72252999   1-2-6  121.72252999   2-1-3  121.73149627   2-1-4  121.73149627

  3-1-4  116.53700745   5-2-6  116.55494002

 NUCLEAR CHARGE:                   16
 NUMBER OF PRIMITIVE AOS:          72
 NUMBER OF SYMMETRY AOS:           70
 NUMBER OF CONTRACTIONS:           36   (   36A   )
 NUMBER OF CORE ORBITALS:           2   (    2A   )
 NUMBER OF VALENCE ORBITALS:       12   (   12A   )


 NUCLEAR REPULSION ENERGY   33.40560333

 EXTRA SYMMETRY OF AOS IN SYMMETRY 1:   1 1 1 2 1 1 2 1 1 1   3 2 1 1 1 1 1 2 1 1   2 1 1 1 3 2 1 1 1 1   1 1 1 1 1 1

 Eigenvalues of metric

         1 0.832E-02 0.172E-01 0.377E-01 0.460E-01 0.709E-01 0.192E+00 0.210E+00 0.225E+00


 Contracted 2-electron integrals neglected if value below      1.0D-11
 AO integral compression algorithm  1   Integral accuracy      1.0D-11

     0.786 MB (compressed) written to integral file ( 37.9%)


 NUMBER OF SORTED TWO-ELECTRON INTEGRALS:     222111.     BUFFER LENGTH:  32768
 NUMBER OF SEGMENTS:   1  SEGMENT LENGTH:     222111      RECORD LENGTH: 524288

 Memory used in sort:       0.78 MW

 SORT1 READ      284735. AND WROTE       98527. INTEGRALS IN      1 RECORDS. CPU TIME:     0.01 SEC, REAL TIME:     0.01 SEC
 SORT2 READ       98527. AND WROTE      222111. INTEGRALS IN      3 RECORDS. CPU TIME:     0.02 SEC, REAL TIME:     0.02 SEC

 FILE SIZES:   FILE 1:    30.9 MBYTE,  FILE 4:     4.2 MBYTE,   TOTAL:     35.1 MBYTE

 OPERATOR DM      FOR CENTER  0  COORDINATES:    0.000000    0.000000    0.000000


 **********************************************************************************************************************************
 DATASETS  * FILE   NREC   LENGTH (MB)   RECORD NAMES
              1      19       30.63       500      610      700      900      950      970     1000      129      960     1100   
                                          VAR    BASINP    GEOM    SYMINP    ZMAT    AOBASIS   BASIS     P2S    ABASIS      S 
                                         1400     1410     1200     1210     1080     1600     1650     1300     1700   
                                           T        V       H0       H01     AOSYM     SMH    MOLCAS    ERIS     OPER   

 PROGRAMS   *        TOTAL       INT
 CPU TIMES  *         0.35      0.25
 REAL TIME  *         0.56 SEC
 DISK USED  *        35.45 MB
 **********************************************************************************************************************************


 PROGRAM * RHF-SCF (CLOSED SHELL)       Authors: W. Meyer, H.-J. Werner


 NUMBER OF ELECTRONS:       8+    8-    SPACE SYMMETRY=1    SPIN SYMMETRY: Singlet 
 CONVERGENCE THRESHOLDS:    1.00E-05 (Density)    1.00E-07 (Energy)
 MAX. NUMBER OF ITERATIONS:       60
 INTERPOLATION TYPE:            DIIS
 INTERPOLATION STEPS:              2 (START)      1 (STEP)
 LEVEL SHIFTS:                  0.00 (CLOSED)  0.00 (OPEN) 



 Orbital guess generated from atomic densities. Full valence occupancy:    8

 Molecular orbital dump at record        2100.2

 Initial occupancy:   8

 ITERATION    DDIFF          GRAD             ENERGY        2-EL.EN.            DIPOLE MOMENTS         DIIS   ORB.
    1      0.000D+00      0.000D+00       -78.00649342    118.720799    0.00000   -0.00000    0.00633    0    start
    2      0.000D+00      0.859D-02       -78.02845071    116.882045    0.00000    0.00000   -0.00162    1    diag
    3      0.821D-02      0.292D-02       -78.03057712    117.512466    0.00000    0.00000    0.00024    2    diag
    4      0.264D-02      0.712D-03       -78.03078635    117.413811    0.00000   -0.00000   -0.00122    3    diag
    5      0.107D-02      0.683D-04       -78.03078846    117.416664    0.00000   -0.00000   -0.00081    4    diag
    6      0.146D-03      0.104D-04       -78.03078849    117.416307    0.00000    0.00000   -0.00127    5    diag
    7      0.167D-04      0.415D-05       -78.03078850    117.416262    0.00000   -0.00000   -0.00112    6    diag
    8      0.333D-05      0.638D-06       -78.03078850    117.416269   -0.00000   -0.00000   -0.00116    0    orth

 Final occupancy:   8

 !RHF STATE  1.1 Energy               -78.030788497468
 Nuclear energy                        33.40560333
 One-electron energy                 -170.14452639
 Two-electron energy                   58.70813457
 Virial quotient                       -1.00010605
 !RHF STATE  1.1 Dipole moment         -0.00000000    -0.00000000    -0.00115904
 Dipole moment /Debye                  -0.00000000    -0.00000000    -0.00294579

 ELECTRON ORBITALS
 =================

  Orbital  Occupation    Energy     Coefficients
    1.1     2.00000   -11.22518     1 1s    0.85642     2 1s    0.50828
    2.1     2.00000   -11.22337     1 1s    0.50872     2 1s   -0.85668
    3.1     2.00000    -1.02687     1 1s    0.30150     2 1s    0.30277
    4.1     2.00000    -0.79223     1 1s    0.24280
    5.1     2.00000    -0.63866     1 2py   0.31975     2 2py   0.32374
    6.1     2.00000    -0.58280     1 2pz   0.40765     2 2pz  -0.40687
    7.1     2.00000    -0.50581     1 2py   0.30680     2 2py  -0.30406
    8.1     2.00000    -0.36922     1 2px   0.37327     1 2px   0.30788     2 2px   0.37327     2 2px   0.30803
    9.1     0.00000     0.17859     1 2px   0.34208     1 2px   0.73391     2 2px  -0.34201     2 2px  -0.73390
   10.1     0.00000     0.26653     1 1s   -1.51123     1 2pz  -0.64991     2 1s   -1.48373     2 2pz   0.64508     3 1s    1.05083
                                    4 1s    1.05083     5 1s    1.03279     6 1s    1.03279
   11.1     0.00000     0.29468     1 2py  -0.25369     1 2py  -0.81444     2 2py  -0.25040     2 2py  -0.80629     3 1s    1.10495
                                    4 1s   -1.10495     5 1s    1.10083     6 1s   -1.10083
   12.1     0.00000     0.30967     1 1s   -1.91651     2 1s    1.96133     3 1s    1.06214     4 1s    1.06214     5 1s   -1.09197
                                    6 1s   -1.09197
   13.1     0.00000     0.39133     1 2py   1.87456     2 2py  -1.88701     3 1s   -1.62390     4 1s    1.62390     5 1s    1.64362
                                    6 1s   -1.64362
   14.1     0.00000     0.49072     1 1s   -2.99445     1 2pz   2.95370     2 1s    2.98329     2 2pz   2.95866     3 1s   -0.58938
                                    4 1s   -0.58938     5 1s    0.59517     6 1s    0.59517
   15.1     0.00000     0.66934     1 2pz   0.55561     1 2pz  -1.04310     2 1s   -0.25636     2 2pz  -0.55640     2 2pz   1.03495
   16.1     0.00000     0.76242     1 2py  -0.39789     1 2py   0.76008     2 2py  -0.39940     2 2py   0.78520     3 1s   -0.38656
                                    4 1s    0.38656     5 1s   -0.38636     6 1s    0.38636
   17.1     0.00000     0.77728     1 2px  -0.74118     1 2px   0.64030     2 2px  -0.74005     2 2px   0.63876
   18.1     0.00000     0.86253     1 1s   -0.88658     1 1s    1.45282     1 2pz   0.33645     2 1s   -0.88925     2 1s    1.47792
                                    2 2pz  -0.34061     3 1s   -0.39527     4 1s   -0.39527     5 1s   -0.39545     6 1s   -0.39545
   19.1     0.00000     0.89051     1 2px  -0.81803     1 2px   1.07334     2 2px   0.81910     2 2px  -1.07422
   20.1     0.00000     0.95427     1 1s   -0.86153     1 2pz   0.60302     1 2pz  -0.46882     2 1s    0.87244     2 2pz   0.60238
                                    2 2pz  -0.46978     3 1s    0.38617     4 1s    0.38617     5 1s   -0.38213     6 1s   -0.38213
   21.1     0.00000     1.11683     1 2py  -0.71950     1 2py   1.18973     2 2py  -0.65968     2 2py   1.01316     3 1s    0.38846
                                    3 1s   -1.10917     4 1s   -0.38846     4 1s    1.10917     5 1s    0.37469     5 1s   -1.01752
                                    6 1s   -0.37469     6 1s    1.01752
   22.1     0.00000     1.16104     1 2py  -0.90284     1 2py   2.90679     2 2py   0.94739     2 2py  -2.98445     3 1s   -1.47163
                                    4 1s    1.47163     5 1s    1.55143     6 1s   -1.55143
   23.1     0.00000     1.21614     1 1s    1.14511     1 1s   -1.81043     1 2pz   0.52667     1 2pz  -0.81594     2 1s    0.84502
                                    2 1s   -1.50592     3 1s   -0.55227     3 1s    1.10295     4 1s   -0.55227     4 1s    1.10295
                                    5 1s   -0.29310     5 1s    0.56161     6 1s   -0.29310     6 1s    0.56161
   24.1     0.00000     1.22351     1 2pz  -0.49919     1 2pz   1.05114     2 1s    0.79098     2 1s   -0.94652     2 2pz  -0.70535
                                    2 2pz   1.32991     3 1s    0.32839     3 1s   -0.68800     4 1s    0.32839     4 1s   -0.68800
                                    5 1s   -0.57491     5 1s    1.17413     6 1s   -0.57491     6 1s    1.17413
   25.1     0.00000     1.33849     1 1s    1.59046     1 1s   -5.37897     1 2pz  -0.26184     1 2pz   1.91200     2 1s   -1.59618
                                    2 1s    5.39398     2 2pz  -0.26043     2 2pz   1.90886     3 1s    0.33127     4 1s    0.33127
                                    5 1s   -0.33971     6 1s   -0.33971
   26.1     0.00000     1.47437     1 2py   2.54094     2 2py  -2.54098     3 1s   -0.69749     3 1s   -0.66838     4 1s    0.69749
                                    4 1s    0.66838     5 1s    0.69743     5 1s    0.67301     6 1s   -0.69743     6 1s   -0.67301
   27.1     0.00000     1.73915     1 3d1+ -0.61897     2 3d1+  0.61916
   28.1     0.00000     1.82177     1 3d2-  0.68056     2 3d2-  0.68189
   29.1     0.00000     2.12775     1 3d2-  0.73680     2 3d2- -0.73556
   30.1     0.00000     2.20846     1 1s   -0.61064     1 3d2+  0.71674     2 1s   -0.60674     2 3d2+  0.71017     3 1s    0.37519
                                    4 1s    0.37519     5 1s    0.37453     6 1s    0.37453
   31.1     0.00000     2.33359     1 2py   0.27554     1 3d1-  0.69541     2 2py   0.28069     2 3d1- -0.68920     3 1s   -0.51774
                                    4 1s    0.51774     5 1s   -0.52117     6 1s    0.52117
   32.1     0.00000     2.40774     1 1s   -0.50664     1 2pz   0.28243     1 2pz  -0.44672     1 3d0   0.68907     2 1s   -0.50951
                                    2 2pz  -0.28131     2 2pz   0.44801     2 3d0   0.68967
   33.1     0.00000     2.62735     1 1s   -0.29297     1 1s    1.34538     1 2pz  -0.27563     1 3d2+ -0.79494     2 1s    0.28836
                                    2 1s   -1.35202     2 2pz  -0.27051     2 3d2+  0.80384     3 1s   -0.44146     4 1s   -0.44146
                                    5 1s    0.44950     6 1s    0.44950
   34.1     0.00000     2.70809     1 2px  -0.26449     1 3d1+  0.90270     2 2px   0.26446     2 3d1+  0.90257
   35.1     0.00000     3.06212     1 1s    0.31547     1 1s    2.02450     1 2pz  -0.79614     1 2pz  -1.17859     1 3d0   1.11210
                                    2 1s   -0.31577     2 1s   -2.02356     2 2pz  -0.79648     2 2pz  -1.17857     2 3d0  -1.11168
   36.1     0.00000     3.06496     1 2py   0.56714     1 3d1-  0.96762     2 2py  -0.57052     2 3d1-  0.97479     3 1s   -0.47580
                                    4 1s    0.47580     5 1s    0.48306     6 1s   -0.48306


 HOMO      8.1    -0.369217 =     -10.0469eV
 LUMO      9.1     0.178590 =       4.8597eV
 LUMO-HOMO         0.547807 =      14.9066eV


 **********************************************************************************************************************************
 DATASETS  * FILE   NREC   LENGTH (MB)   RECORD NAMES
              1      19       30.63       500      610      700      900      950      970     1000      129      960     1100   
                                          VAR    BASINP    GEOM    SYMINP    ZMAT    AOBASIS   BASIS     P2S    ABASIS      S 
                                         1400     1410     1200     1210     1080     1600     1650     1300     1700   
                                           T        V       H0       H01     AOSYM     SMH    MOLCAS    ERIS     OPER   

              2       4        2.86       700     1000      520     2100   
                                         GEOM     BASIS   MCVARS     RHF  

 PROGRAMS   *        TOTAL    HF-SCF       INT
 CPU TIMES  *         0.45      0.10      0.25
 REAL TIME  *         0.69 SEC
 DISK USED  *        35.45 MB
 **********************************************************************************************************************************


 PROGRAM * MULTI (Direct Multiconfiguration SCF)       Authors: P.J. Knowles, H.-J. Werner (1984)


 Number of closed-shell orbitals:   7 (   7 )
 Number of active  orbitals:        2 (   2 )
 Number of external orbitals:      27 (  27 )

 State symmetry 1

 Number of electrons:     2    Spin symmetry=Singlet   Space symmetry=1
 Number of states:        3
 Number of CSFs:          3   (4 determinants, 4 intermediate states)

 Molecular orbitals read from record     2100.2  Type=RHF/CANONICAL (state 1.1)

 EXTRA SYMMETRY OF MOS IN SYMMETRY 1:   1 1 1 1 1 1 1 2 2 1   1 1 1 1 1 1 2 1 2 1   1 1 1 1 1 1 2 3 3 1   1 1 1 2 1 1

 Wavefunction dump at record             2140.2

 Convergence thresholds  0.10E-01 (gradient)  0.10E-05 (energy)  0.10E-02 (step length)

 Weight factors for state symmetry  1:    0.33333   0.33333   0.33333

 Number of orbital rotations:      257   (    14 Core/Active    189 Core/Virtual   0 Active/Active     54 Active/Virtual)
 Total number of variables:        269

 Micro-Iterations solved by the two-step solver

 ITER. MIC  NCI  NEG     ENERGY(VAR)     ENERGY(PROJ)   ENERGY CHANGE     GRAD(0)  GRAD(ORB)   GRAD(CI)     STEP       TIME

   1    3    3    0     -77.72964881     -77.73589354   -0.00624472    0.13262269 0.00000154 0.00000000  0.63D-01      0.06
   2    2    3    0     -77.73579500     -77.73579877   -0.00000377    0.00304379 0.00000186 0.00000000  0.16D-02      0.10
   3    2    3    0     -77.73579877     -77.73579877   -0.00000000    0.00000216 0.00000000 0.00000000  0.13D-05      0.13

 ** WVFN ****  CONVERGENCE REACHED, FINAL GRADIENT:  0.13D-11



 Results for state 1.1
 =====================

 !MCSCF STATE  1.1 Energy             -78.048464848283
 Nuclear energy                        33.40560333
 Kinetic energy                        78.09080421
 One electron energy                 -170.27659889
 Two electron energy                   58.82253071
 Virial ratio                           1.99945782

 !MCSCF STATE  1.1 Dipole moment        0.00000000     0.00000000    -0.00076710
 Dipole moment /Debye                   0.00000000     0.00000000    -0.00194965

 Results for state 2.1
 =====================

 !MCSCF STATE  2.1 Energy             -77.672542021878
 Nuclear energy                        33.40560333
 Kinetic energy                        78.27101167
 One electron energy                 -169.70322012
 Two electron energy                   58.62507477
 Virial ratio                           1.99235388

 !MCSCF STATE  2.1 Dipole moment        0.00000000     0.00000000    -0.00037363
 Dipole moment /Debye                   0.00000000     0.00000000    -0.00094962

 Results for state 3.1
 =====================

 !MCSCF STATE  3.1 Energy             -77.486389449848
 Nuclear energy                        33.40560333
 Kinetic energy                        78.45121917
 One electron energy                 -169.12984071
 Two electron energy                   58.23784793
 Virial ratio                           1.98770153

 !MCSCF STATE  3.1 Dipole moment        0.00000000     0.00000000    -0.00183186
 Dipole moment /Debye                   0.00000000     0.00000000    -0.00465582

 State-averaged charge density matrix saved on record  2140.2 (density set 1)

 !MCSCF expec         <1.1|DMZ|1.1>    -0.000767102900 au =    -0.001949653389 Debye
 !MCSCF trans         <2.1|DMZ|1.1>    -1.510455106805 au =    -3.838942490354 Debye
 !MCSCF expec         <2.1|DMZ|2.1>    -0.000373633596 au =    -0.000949619674 Debye
 !MCSCF trans         <3.1|DMZ|1.1>    -0.000110925690 au =    -0.000281926515 Debye
 !MCSCF trans         <3.1|DMZ|2.1>    -2.273707565162 au =    -5.778809673464 Debye
 !MCSCF expec         <3.1|DMZ|3.1>    -0.001831860571 au =    -0.004655820190 Debye


 NATURAL ORBITALS (state averaged)
 =================================

  Orbital  Occupation    Energy     Coefficients
    1.1     2.00000   -11.24093     1 1s    0.86890     2 1s    0.48670
    2.1     2.00000   -11.23938     1 1s    0.48707     2 1s   -0.86910
    3.1     2.00000    -1.04161     1 1s    0.30955     2 1s    0.31078
    4.1     2.00000    -0.80005     1 1s    0.28803     2 1s   -0.28636
    5.1     2.00000    -0.65151     1 2py   0.32545     2 2py   0.32944
    6.1     2.00000    -0.59796     1 2pz   0.40937     2 2pz  -0.40855
    7.1     2.00000    -0.51243     1 2py   0.31331     2 2py  -0.31056
    8.1     1.00000     0.03371     1 2px   0.38005     1 2px   0.68691     2 2px  -0.37998     2 2px  -0.68690
    9.1     1.00000    -0.22536     1 2px   0.35788     1 2px   0.31929     2 2px   0.35789     2 2px   0.31943
   10.1    -0.00000     0.26378     1 1s   -1.50774     1 2pz  -0.65532     2 1s   -1.47924     2 2pz   0.65132     3 1s    1.05029
                                    4 1s    1.05029     5 1s    1.03242     6 1s    1.03242
   11.1    -0.00000     0.28623     1 2py  -0.25207     1 2py  -0.80479     2 2py  -0.79661     3 1s    1.09649     4 1s   -1.09649
                                    5 1s    1.09222     6 1s   -1.09222
   12.1    -0.00000     0.30657     1 1s   -1.94061     2 1s    1.98528     3 1s    1.05667     4 1s    1.05667     5 1s   -1.08644
                                    6 1s   -1.08644
   13.1    -0.00000     0.38717     1 2py   0.25003     1 2py   1.86017     2 2py  -0.25211     2 2py  -1.87260     3 1s   -1.61705
                                    4 1s    1.61705     5 1s    1.63681     6 1s   -1.63681
   14.1    -0.00000     0.48796     1 1s   -2.97168     1 2pz   2.93546     2 1s    2.96101     2 2pz   2.94031     3 1s   -0.59882
                                    4 1s   -0.59882     5 1s    0.60438     6 1s    0.60438
   15.1    -0.00000     0.65795     1 1s   -0.25607     1 2pz   0.54756     1 2pz  -1.01961     2 1s   -0.25501     2 2pz  -0.54852
                                    2 2pz   1.01138
   16.1    -0.00000     0.75190     1 2py  -0.40928     1 2py   0.76732     2 2py  -0.41070     2 2py   0.79255     3 1s   -0.38185
                                    4 1s    0.38185     5 1s   -0.38172     6 1s    0.38172
   17.1    -0.00000     0.77125     1 2px  -0.74775     1 2px   0.63500     2 2px  -0.74672     2 2px   0.63353
   18.1    -0.00000     0.85968     1 1s   -0.87984     1 1s    1.47666     1 2pz   0.38313     2 1s   -0.88272     2 1s    1.50307
                                    2 2pz  -0.38814     3 1s   -0.39665     4 1s   -0.39665     5 1s   -0.39752     6 1s   -0.39752
   19.1    -0.00000     0.87287     1 2px  -0.80248     1 2px   1.10384     2 2px   0.80350     2 2px  -1.10466
   20.1    -0.00000     0.93532     1 1s   -0.70477     1 2pz   0.60774     1 2pz  -0.55379     2 1s    0.71282     2 2pz   0.60689
                                    2 2pz  -0.55386     3 1s    0.38651     4 1s    0.38651     5 1s   -0.38201     6 1s   -0.38201
   21.1    -0.00000     1.10129     1 2py  -0.70552     1 2py   1.18474     2 2py  -0.65051     2 2py   1.02161     3 1s    0.38882
                                    3 1s   -1.11490     4 1s   -0.38882     4 1s    1.11490     5 1s    0.37586     5 1s   -1.03004
                                    6 1s   -0.37586     6 1s    1.03004
   22.1    -0.00000     1.14843     1 2py  -0.90201     1 2py   2.91456     2 2py   0.94240     2 2py  -2.98689     3 1s   -1.48208
                                    4 1s    1.48208     5 1s    1.55715     6 1s   -1.55715
   23.1    -0.00000     1.21296     1 1s    1.11855     1 1s   -1.75793     1 2pz   0.51751     1 2pz  -0.80604     2 1s    0.87921
                                    2 1s   -1.57956     3 1s   -0.54297     3 1s    1.07741     4 1s   -0.54297     4 1s    1.07741
                                    5 1s   -0.31075     5 1s    0.60080     6 1s   -0.31075     6 1s    0.60080
   24.1    -0.00000     1.22100     1 2pz  -0.52801     1 2pz   1.15173     2 1s    0.69879     2 1s   -0.68633     2 2pz  -0.71386
                                    2 2pz   1.40334     3 1s    0.34809     3 1s   -0.70804     4 1s    0.34809     4 1s   -0.70804
                                    5 1s   -0.56822     5 1s    1.14158     6 1s   -0.56822     6 1s    1.14158
   25.1    -0.00000     1.31877     1 1s    1.61159     1 1s   -5.40551     1 2pz   1.85854     2 1s   -1.61956     2 1s    5.42458
                                    2 2pz   1.85421     3 1s    0.37201     4 1s    0.37201     5 1s   -0.38253     6 1s   -0.38253
   26.1    -0.00000     1.46576     1 2py   2.54443     2 2py  -2.54476     3 1s   -0.69642     3 1s   -0.66954     4 1s    0.69642
                                    4 1s    0.66954     5 1s    0.69616     5 1s    0.67447     6 1s   -0.69616     6 1s   -0.67447
   27.1    -0.00000     1.71343     1 3d1+ -0.61869     2 3d1+  0.61891
   28.1    -0.00000     1.80789     1 3d2-  0.68048     2 3d2-  0.68197
   29.1    -0.00000     2.10462     1 3d2-  0.73687     2 3d2- -0.73550
   30.1    -0.00000     2.19303     1 1s   -0.60663     1 3d2+  0.71627     2 1s   -0.60249     2 3d2+  0.70968     3 1s    0.37711
                                    4 1s    0.37711     5 1s    0.37641     6 1s    0.37641
   31.1    -0.00000     2.31735     1 2py   0.28245     1 3d1-  0.69363     2 2py   0.28754     2 3d1- -0.68744     3 1s   -0.52114
                                    4 1s    0.52114     5 1s   -0.52460     6 1s    0.52460
   32.1    -0.00000     2.38760     1 1s   -0.50471     1 2pz   0.28837     1 2pz  -0.44948     1 3d0   0.68881     2 1s   -0.50755
                                    2 2pz  -0.28717     2 2pz   0.45082     2 3d0   0.68947
   33.1    -0.00000     2.60759     1 1s   -0.29381     1 1s    1.35135     1 2pz  -0.27442     1 3d2+ -0.79419     2 1s    0.28919
                                    2 1s   -1.35797     2 2pz  -0.26932     2 3d2+  0.80307     3 1s   -0.44453     4 1s   -0.44453
                                    5 1s    0.45260     6 1s    0.45260
   34.1    -0.00000     2.68554     1 2px  -0.26525     1 3d1+  0.90310     2 2px   0.26523     2 3d1+  0.90295
   35.1    -0.00000     3.04406     1 1s    0.30835     1 1s    2.05020     1 2pz  -0.78860     1 2pz  -1.19202     1 3d0   1.11377
                                    2 1s   -0.30868     2 1s   -2.04926     2 2pz  -0.78896     2 2pz  -1.19198     2 3d0  -1.11331
   36.1    -0.00000     3.05215     1 2py   0.56727     1 3d1-  0.96725     2 2py  -0.57062     2 3d1-  0.97438     3 1s   -0.47810
                                    4 1s    0.47810     5 1s    0.48535     6 1s   -0.48535


 Natural orbital dump (state averaged) at molpro section  2140.2    (Orbital set 2)



 **********************************************************************************************************************************
 DATASETS  * FILE   NREC   LENGTH (MB)   RECORD NAMES
              1      20       31.36       500      610      700      900      950      970     1000      129      960     1100   
                                          VAR    BASINP    GEOM    SYMINP    ZMAT    AOBASIS   BASIS     P2S    ABASIS      S 
                                         1400     1410     1200     1210     1080     1600     1650     1300     1700     1380   
                                           T        V       H0       H01     AOSYM     SMH    MOLCAS    ERIS     OPER     JKOP   

              2       5        5.42       700     1000      520     2100     2140   
                                         GEOM     BASIS   MCVARS     RHF     MCSCF   

 PROGRAMS   *        TOTAL     MULTI    HF-SCF       INT
 CPU TIMES  *         0.62      0.17      0.10      0.25
 REAL TIME  *         0.88 SEC
 DISK USED  *        38.55 MB
 **********************************************************************************************************************************
 Molecular orbitals read from record     2140.2  Type=MCSCF/NATURAL (state averaged)
 Occupation numbers read from record     2140.2  Type=MCSCF/NATURAL (state averaged)
 Orbital energies read from record       2140.2  Type=MCSCF/NATURAL (state averaged)
 Redundancy group numbers read from rec  2140.2  Type=MCSCF/NATURAL (state averaged)

 MULTI/6-31G* energy=    -77.486389449848

           MULTI          HF-SCF
    -77.48638945    -78.03078850
 **********************************************************************************************************************************
 Molpro calculation terminated
