
 Primary working directories    : /scratch.local/johan406.molpro_temp/molpro.2MVVA83vVb
 Secondary working directories  : /scratch.local/johan406.molpro_temp/molpro.2MVVA83vVb
 Wavefunction directory         : /home/goodpast/johan406/wfu/
 Main file repository           : /scratch.local/johan406.molpro_temp/molpro.2MVVA83vVb/

 id        : roweumn

 Nodes     nprocs
 cn0117       1

 Using customized tuning parameters: mindgm=1; mindgv=20; mindgc=4; mindgr=1; noblas=0; minvec=7
 default implementation of scratch files=df  


 Variables initialized (934), CPU time= 0.00 sec
                                                                                 !leave this line blank
 
 gprint, orbitals=30
 memory, 125., m
 symmetry, nosym
 nelect=16
 basis=6-31g*
 
 geometry={
 C -0.0 0.0 0.6687
 C 0.0 0.0 -0.6696
 H 0.0 0.9201 1.2378
 H 0.0 -0.9201 1.2378
 H 0.0 0.9097 -1.2318
 H -0.0 -0.9097 -1.2318
 }
 
 hf
 {multi,
 closed 7
 occ 9
 wf,spin=0;STATE,3
 }
 
 Commands  initialized (763), CPU time= 0.01 sec, 617 directives.
 Default parameters read. Elapsed time= 0.08 sec

 Checking input...
 Passed
1


                                         ***  PROGRAM SYSTEM MOLPRO  ***
                                       Copyright, TTI GmbH Stuttgart, 2015
                                    Version 2019.2 linked Oct 25 2019 22:50:27


 **********************************************************************************************************************************
 LABEL *                                                                                 
  64 bit serial version                                                                  DATE: 26-Jan-23          TIME: 20:40:44  
 **********************************************************************************************************************************

 SHA1:             8dbd9ae1082e4ce945b0f27595c9eb2d4aa09004
 **********************************************************************************************************************************


 Variable memory set to  125000000 words,  buffer space 

 SETTING NELECT         =        16.00000000                                  
 SETTING BASIS          =    6-31G*
 ZSYMEL=NOSYM


Geometry recognized as XYZ



 Recomputing integrals since basis changed


 Using spherical harmonics

 Library entry C      S 6-31G                selected for orbital group  1
 Library entry C      P 6-31G                selected for orbital group  1
 Library entry C      D 6-31G*               selected for orbital group  1
 Library entry H      S 6-31G                selected for orbital group  2


 PROGRAM * SEWARD (Integral evaluation for generally contracted gaussian basis sets)     Author: Roland Lindh, 1990

 Geometry written to block  1 of record 700


 Point group  C1  



 ATOMIC COORDINATES

 NR  ATOM    CHARGE       X              Y              Z

   1  C       6.00    0.000000000    0.000000000    1.263659859
   2  C       6.00    0.000000000    0.000000000   -1.265360613
   3  H       1.00    0.000000000    1.738737007    2.339102997
   4  H       1.00    0.000000000   -1.738737007    2.339102997
   5  H       1.00    0.000000000    1.719083856   -2.327764640
   6  H       1.00    0.000000000   -1.719083856   -2.327764640

 Bond lengths in Bohr (Angstrom)

 1-2  2.529020473  1-3  2.044452084  1-4  2.044452084  2-5  2.020878922  2-6  2.020878922
     ( 1.338300000)     ( 1.081877451)     ( 1.081877451)     ( 1.069403072)     ( 1.069403072)

 Bond angles

  1-2-5  121.71631134   1-2-6  121.71631134   2-1-3  121.73760852   2-1-4  121.73760852

  3-1-4  116.52478296   5-2-6  116.56737732

 NUCLEAR CHARGE:                   16
 NUMBER OF PRIMITIVE AOS:          72
 NUMBER OF SYMMETRY AOS:           70
 NUMBER OF CONTRACTIONS:           36   (   36A   )
 NUMBER OF CORE ORBITALS:           2   (    2A   )
 NUMBER OF VALENCE ORBITALS:       12   (   12A   )


 NUCLEAR REPULSION ENERGY   33.40599891

 EXTRA SYMMETRY OF AOS IN SYMMETRY 1:   1 1 1 2 1 1 2 1 1 1   3 2 1 1 1 1 1 2 1 1   2 1 1 1 3 2 1 1 1 1   1 1 1 1 1 1

 Eigenvalues of metric

         1 0.832E-02 0.172E-01 0.376E-01 0.461E-01 0.709E-01 0.192E+00 0.210E+00 0.225E+00


 Contracted 2-electron integrals neglected if value below      1.0D-11
 AO integral compression algorithm  1   Integral accuracy      1.0D-11

     0.786 MB (compressed) written to integral file ( 37.9%)


 NUMBER OF SORTED TWO-ELECTRON INTEGRALS:     222111.     BUFFER LENGTH:  32768
 NUMBER OF SEGMENTS:   1  SEGMENT LENGTH:     222111      RECORD LENGTH: 524288

 Memory used in sort:       0.78 MW

 SORT1 READ      284735. AND WROTE       98523. INTEGRALS IN      1 RECORDS. CPU TIME:     0.00 SEC, REAL TIME:     0.00 SEC
 SORT2 READ       98523. AND WROTE      222111. INTEGRALS IN      3 RECORDS. CPU TIME:     0.02 SEC, REAL TIME:     0.02 SEC

 FILE SIZES:   FILE 1:    30.9 MBYTE,  FILE 4:     4.2 MBYTE,   TOTAL:     35.1 MBYTE

 OPERATOR DM      FOR CENTER  0  COORDINATES:    0.000000    0.000000    0.000000


 **********************************************************************************************************************************
 DATASETS  * FILE   NREC   LENGTH (MB)   RECORD NAMES
              1      19       30.63       500      610      700      900      950      970     1000      129      960     1100   
                                          VAR    BASINP    GEOM    SYMINP    ZMAT    AOBASIS   BASIS     P2S    ABASIS      S 
                                         1400     1410     1200     1210     1080     1600     1650     1300     1700   
                                           T        V       H0       H01     AOSYM     SMH    MOLCAS    ERIS     OPER   

 PROGRAMS   *        TOTAL       INT
 CPU TIMES  *         0.36      0.26
 REAL TIME  *         0.56 SEC
 DISK USED  *        35.45 MB
 **********************************************************************************************************************************


 PROGRAM * RHF-SCF (CLOSED SHELL)       Authors: W. Meyer, H.-J. Werner


 NUMBER OF ELECTRONS:       8+    8-    SPACE SYMMETRY=1    SPIN SYMMETRY: Singlet 
 CONVERGENCE THRESHOLDS:    1.00E-05 (Density)    1.00E-07 (Energy)
 MAX. NUMBER OF ITERATIONS:       60
 INTERPOLATION TYPE:            DIIS
 INTERPOLATION STEPS:              2 (START)      1 (STEP)
 LEVEL SHIFTS:                  0.00 (CLOSED)  0.00 (OPEN) 



 Orbital guess generated from atomic densities. Full valence occupancy:    8

 Molecular orbital dump at record        2100.2

 Initial occupancy:   8

 ITERATION    DDIFF          GRAD             ENERGY        2-EL.EN.            DIPOLE MOMENTS         DIIS   ORB.
    1      0.000D+00      0.000D+00       -78.00637963    118.721445   -0.00000    0.00000    0.01922    0    start
    2      0.000D+00      0.859D-02       -78.02834722    116.882517   -0.00000    0.00000   -0.00493    1    diag
    3      0.821D-02      0.292D-02       -78.03047670    117.512695   -0.00000    0.00000    0.00072    2    diag
    4      0.264D-02      0.713D-03       -78.03068637    117.414400   -0.00000   -0.00000   -0.00373    3    diag
    5      0.107D-02      0.720D-04       -78.03068851    117.416870   -0.00000   -0.00000   -0.00253    4    diag
    6      0.145D-03      0.202D-04       -78.03068863    117.416864   -0.00000   -0.00000   -0.00360    5    diag
    7      0.236D-04      0.609D-05       -78.03068864    117.416694   -0.00000   -0.00000   -0.00348    6    diag
    8      0.542D-05      0.915D-06       -78.03068864    117.416703   -0.00000   -0.00000   -0.00351    0    orth

 Final occupancy:   8

 !RHF STATE  1.1 Energy               -78.030688636191
 Nuclear energy                        33.40599891
 One-electron energy                 -170.14503917
 Two-electron energy                   58.70835162
 Virial quotient                       -1.00010150
 !RHF STATE  1.1 Dipole moment         -0.00000000    -0.00000000    -0.00351179
 Dipole moment /Debye                  -0.00000000    -0.00000000    -0.00892548

 ELECTRON ORBITALS
 =================

  Orbital  Occupation    Energy     Coefficients
    1.1     2.00000   -11.22583     1 1s    0.96009     2 1s    0.26502
    2.1     2.00000   -11.22272     1 1s   -0.26551     2 1s    0.96021
    3.1     2.00000    -1.02689     1 1s    0.30020     2 1s    0.30406
    4.1     2.00000    -0.79224     1 1s    0.24473
    5.1     2.00000    -0.63870     1 2py   0.31569     2 2py   0.32776
    6.1     2.00000    -0.58279     1 2pz   0.40843     2 2pz  -0.40605
    7.1     2.00000    -0.50578     1 2py   0.30952     2 2py  -0.30125
    8.1     2.00000    -0.36922     1 2px   0.37327     1 2px   0.30772     2 2px   0.37327     2 2px   0.30819
    9.1     0.00000     0.17859     1 2px   0.34217     1 2px   0.73391     2 2px  -0.34193     2 2px  -0.73388
   10.1     0.00000     0.26648     1 1s   -1.53819     1 2pz  -0.65432     2 1s   -1.45435     2 2pz   0.63975     3 1s    1.06846
                                    4 1s    1.06846     5 1s    1.01356     6 1s    1.01356
   11.1     0.00000     0.29466     1 2py  -0.25703     1 2py  -0.82276     2 2py  -0.79777     3 1s    1.10908     4 1s   -1.10908
                                    5 1s    1.09639     6 1s   -1.09639
   12.1     0.00000     0.30970     1 1s   -1.87053     2 1s    2.00703     3 1s    1.03140     4 1s    1.03140     5 1s   -1.12222
                                    6 1s   -1.12222
   13.1     0.00000     0.39133     1 2py   1.86185     2 2py  -0.25055     2 2py  -1.89966     3 1s   -1.60388     4 1s    1.60388
                                    5 1s    1.66386     6 1s   -1.66386
   14.1     0.00000     0.49073     1 1s   -3.00571     1 2pz   2.94862     2 1s    2.97161     2 2pz   2.96372     3 1s   -0.58346
                                    4 1s   -0.58346     5 1s    0.60125     6 1s    0.60125
   15.1     0.00000     0.66934     1 2pz   0.55484     1 2pz  -1.05109     2 1s   -0.27195     2 2pz  -0.55716     2 2pz   1.02698
   16.1     0.00000     0.76242     1 2py  -0.39629     1 2py   0.73455     2 2py  -0.40097     2 2py   0.81101     3 1s   -0.38671
                                    4 1s    0.38671     5 1s   -0.38619     6 1s    0.38619
   17.1     0.00000     0.77727     1 2px  -0.74236     1 2px   0.64190     2 2px  -0.73887     2 2px   0.63716
   18.1     0.00000     0.86254     1 1s   -0.88388     1 1s    1.42788     1 2pz   0.33185     2 1s   -0.89196     2 1s    1.50343
                                    2 2pz  -0.34529     3 1s   -0.39507     4 1s   -0.39507     5 1s   -0.39561     6 1s   -0.39561
   19.1     0.00000     0.89050     1 2px  -0.81690     1 2px   1.07242     2 2px   0.82022     2 2px  -1.07514
   20.1     0.00000     0.95427     1 1s   -0.84997     1 2pz   0.60359     1 2pz  -0.46772     2 1s    0.88338     2 2pz   0.60169
                                    2 2pz  -0.47091     3 1s    0.39030     4 1s    0.39030     5 1s   -0.37804     6 1s   -0.37804
   21.1     0.00000     1.11645     1 2py  -0.77632     1 2py   1.36061     2 2py  -0.59700     2 2py   0.83153     3 1s    0.40032
                                    3 1s   -1.19487     4 1s   -0.40032     4 1s    1.19487     5 1s    0.35895     5 1s   -0.92027
                                    6 1s   -0.35895     6 1s    0.92027
   22.1     0.00000     1.16147     1 2py  -0.85452     1 2py   2.81913     2 2py   0.98797     2 2py  -3.05189     3 1s   -1.38642
                                    4 1s    1.38642     5 1s    1.62593     6 1s   -1.62593
   23.1     0.00000     1.21310     1 1s   -1.16725     1 1s    1.76724     1 2pz  -0.63849     1 2pz   1.05132     2 1s   -0.60187
                                    2 1s    1.17471     3 1s    0.61568     3 1s   -1.24327     4 1s    0.61568     4 1s   -1.24327
   24.1     0.00000     1.22665     1 1s    0.52006     1 2pz   0.34227     1 2pz  -0.80698     2 1s   -0.97970     2 1s    1.29111
                                    2 2pz   0.72833     2 2pz  -1.32839     3 1s    0.37340     4 1s    0.37340     5 1s    0.63398
                                    5 1s   -1.28185     6 1s    0.63398     6 1s   -1.28185
   25.1     0.00000     1.33850     1 1s    1.58490     1 1s   -5.36372     1 2pz  -0.26296     1 2pz   1.91449     2 1s   -1.60222
                                    2 1s    5.40936     2 2pz  -0.25864     2 2pz   1.90485     3 1s    0.32322     4 1s    0.32322
                                    5 1s   -0.34885     6 1s   -0.34885
   26.1     0.00000     1.47439     1 2py   2.54034     2 2py  -2.54019     3 1s   -0.69757     3 1s   -0.66346     4 1s    0.69757
                                    4 1s    0.66346     5 1s    0.69731     5 1s    0.67739     6 1s   -0.69731     6 1s   -0.67739
   27.1     0.00000     1.73915     1 3d1+ -0.61879     2 3d1+  0.61935
   28.1     0.00000     1.82176     1 3d2-  0.67921     2 3d2-  0.68324
   29.1     0.00000     2.12774     1 3d2-  0.73804     2 3d2- -0.73431
   30.1     0.00000     2.20840     1 1s   -0.61471     1 3d2+  0.72335     2 1s   -0.60249     2 3d2+  0.70342     3 1s    0.37582
                                    4 1s    0.37582     5 1s    0.37381     6 1s    0.37381
   31.1     0.00000     2.33359     1 2py   0.27031     1 3d1-  0.70174     2 2py   0.28600     2 3d1- -0.68275     3 1s   -0.51427
                                    4 1s    0.51427     5 1s   -0.52458     6 1s    0.52458
   32.1     0.00000     2.40772     1 1s   -0.50377     1 2pz   0.28360     1 2pz  -0.44526     1 3d0   0.68844     2 1s   -0.51242
                                    2 2pz  -0.28019     2 2pz   0.44932     2 3d0   0.69028
   33.1     0.00000     2.62746     1 1s   -0.29741     1 1s    1.33852     1 2pz  -0.28081     1 3d2+ -0.78585     2 1s    0.28351
                                    2 1s   -1.35877     2 2pz  -0.26530     2 3d2+  0.81279     3 1s   -0.43339     4 1s   -0.43339
                                    5 1s    0.45771     6 1s    0.45771
   34.1     0.00000     2.70809     1 2px  -0.26451     1 3d1+  0.90282     2 2px   0.26444     2 3d1+  0.90245
   35.1     0.00000     3.06211     1 1s    0.31516     1 1s    2.02545     1 2pz  -0.79580     1 2pz  -1.17859     1 3d0   1.11254
                                    2 1s   -0.31608     2 1s   -2.02255     2 2pz  -0.79684     2 2pz  -1.17856     2 3d0  -1.11125
   36.1     0.00000     3.06506     1 2py   0.56380     1 3d1-  0.96024     2 2py  -0.57402     2 3d1-  0.98216     3 1s   -0.46845
                                    4 1s    0.46845     5 1s    0.49060     6 1s   -0.49060


 HOMO      8.1    -0.369220 =     -10.0470eV
 LUMO      9.1     0.178588 =       4.8596eV
 LUMO-HOMO         0.547808 =      14.9066eV


 **********************************************************************************************************************************
 DATASETS  * FILE   NREC   LENGTH (MB)   RECORD NAMES
              1      19       30.63       500      610      700      900      950      970     1000      129      960     1100   
                                          VAR    BASINP    GEOM    SYMINP    ZMAT    AOBASIS   BASIS     P2S    ABASIS      S 
                                         1400     1410     1200     1210     1080     1600     1650     1300     1700   
                                           T        V       H0       H01     AOSYM     SMH    MOLCAS    ERIS     OPER   

              2       4        2.86       700     1000      520     2100   
                                         GEOM     BASIS   MCVARS     RHF  

 PROGRAMS   *        TOTAL    HF-SCF       INT
 CPU TIMES  *         0.46      0.10      0.26
 REAL TIME  *         0.68 SEC
 DISK USED  *        35.45 MB
 **********************************************************************************************************************************


 PROGRAM * MULTI (Direct Multiconfiguration SCF)       Authors: P.J. Knowles, H.-J. Werner (1984)


 Number of closed-shell orbitals:   7 (   7 )
 Number of active  orbitals:        2 (   2 )
 Number of external orbitals:      27 (  27 )

 State symmetry 1

 Number of electrons:     2    Spin symmetry=Singlet   Space symmetry=1
 Number of states:        3
 Number of CSFs:          3   (4 determinants, 4 intermediate states)

 Molecular orbitals read from record     2100.2  Type=RHF/CANONICAL (state 1.1)

 EXTRA SYMMETRY OF MOS IN SYMMETRY 1:   1 1 1 1 1 1 1 2 2 1   1 1 1 1 1 1 2 1 2 1   1 1 1 1 1 1 2 3 3 1   1 1 1 2 1 1

 Wavefunction dump at record             2140.2

 Convergence thresholds  0.10E-01 (gradient)  0.10E-05 (energy)  0.10E-02 (step length)

 Weight factors for state symmetry  1:    0.33333   0.33333   0.33333

 Number of orbital rotations:      257   (    14 Core/Active    189 Core/Virtual   0 Active/Active     54 Active/Virtual)
 Total number of variables:        269

 Micro-Iterations solved by the two-step solver

 ITER. MIC  NCI  NEG     ENERGY(VAR)     ENERGY(PROJ)   ENERGY CHANGE     GRAD(0)  GRAD(ORB)   GRAD(CI)     STEP       TIME

   1    3    3    0     -77.72954835     -77.73579300   -0.00624465    0.13262194 0.00000154 0.00000000  0.63D-01      0.06
   2    2    3    0     -77.73569447     -77.73569824   -0.00000377    0.00304375 0.00000186 0.00000000  0.16D-02      0.09
   3    2    3    0     -77.73569824     -77.73569824   -0.00000000    0.00000216 0.00000000 0.00000000  0.13D-05      0.13

 ** WVFN ****  CONVERGENCE REACHED, FINAL GRADIENT:  0.13D-11



 Results for state 1.1
 =====================

 !MCSCF STATE  1.1 Energy             -78.048365359820
 Nuclear energy                        33.40599891
 Kinetic energy                        78.09105517
 One electron energy                 -170.27710646
 Two electron energy                   58.82274219
 Virial ratio                           1.99945333

 !MCSCF STATE  1.1 Dipole moment        0.00000000     0.00000000    -0.00235344
 Dipole moment /Debye                   0.00000000     0.00000000    -0.00598147

 Results for state 2.1
 =====================

 !MCSCF STATE  2.1 Energy             -77.672440806947
 Nuclear energy                        33.40599891
 Kinetic energy                        78.27126822
 One electron energy                 -169.70373824
 Two electron energy                   58.62529853
 Virial ratio                           1.99234933

 !MCSCF STATE  2.1 Dipole moment        0.00000000     0.00000000    -0.00117928
 Dipole moment /Debye                   0.00000000     0.00000000    -0.00299723

 Results for state 3.1
 =====================

 !MCSCF STATE  3.1 Energy             -77.486288547387
 Nuclear energy                        33.40599891
 Kinetic energy                        78.45148162
 One electron energy                 -169.13036424
 Two electron energy                   58.23807679
 Virial ratio                           1.98769694

 !MCSCF STATE  3.1 Dipole moment        0.00000000     0.00000000    -0.00554813
 Dipole moment /Debye                   0.00000000     0.00000000    -0.01410102

 State-averaged charge density matrix saved on record  2140.2 (density set 1)

 !MCSCF expec         <1.1|DMZ|1.1>    -0.002353444309 au =    -0.005981466987 Debye
 !MCSCF trans         <2.1|DMZ|1.1>    -1.510451062355 au =    -3.838932211061 Debye
 !MCSCF expec         <2.1|DMZ|2.1>    -0.001179276403 au =    -0.002997225319 Debye
 !MCSCF trans         <3.1|DMZ|1.1>    -0.000330504816 au =    -0.000840004429 Debye
 !MCSCF trans         <3.1|DMZ|2.1>    -2.273706886775 au =    -5.778807949290 Debye
 !MCSCF expec         <3.1|DMZ|3.1>    -0.005548131938 au =    -0.014101021170 Debye


 NATURAL ORBITALS (state averaged)
 =================================

  Orbital  Occupation    Energy     Coefficients
    1.1     2.00000   -11.24155     1 1s    0.96605
    2.1     2.00000   -11.23875     2 1s    0.96614
    3.1     2.00000    -1.04163     1 1s    0.30830     2 1s    0.31202
    4.1     2.00000    -0.80006     1 1s    0.28970     2 1s   -0.28463
    5.1     2.00000    -0.65155     1 2py   0.32138     2 2py   0.33347
    6.1     2.00000    -0.59795     1 2pz   0.41020     2 2pz  -0.40768
    7.1     2.00000    -0.51240     1 2py   0.31604     2 2py  -0.30773
    8.1     1.00000     0.03371     1 2px   0.38013     1 2px   0.68692     2 2px  -0.37991     2 2px  -0.68688
    9.1     1.00000    -0.22536     1 2px   0.35787     1 2px   0.31915     2 2px   0.35791     2 2px   0.31957
   10.1    -0.00000     0.26373     1 1s   -1.53571     1 2pz  -0.65888     2 1s   -1.44887     2 2pz   0.64683     3 1s    1.06773
                                    4 1s    1.06773     5 1s    1.01339     6 1s    1.01339
   11.1    -0.00000     0.28622     1 2py  -0.25547     1 2py  -0.81311     2 2py  -0.78807     3 1s    1.10076     4 1s   -1.10076
                                    5 1s    1.08764     6 1s   -1.08764
   12.1    -0.00000     0.30660     1 1s   -1.89478     2 1s    2.03073     3 1s    1.02601     4 1s    1.02601     5 1s   -1.11662
                                    6 1s   -1.11662
   13.1    -0.00000     0.38717     1 2py   1.84749     2 2py  -0.25419     2 2py  -1.88522     3 1s   -1.59701     4 1s    1.59701
                                    5 1s    1.65708     6 1s   -1.65708
   14.1    -0.00000     0.48796     1 1s   -2.98247     1 2pz   2.93047     2 1s    2.94984     2 2pz   2.94526     3 1s   -0.59312
                                    4 1s   -0.59312     5 1s    0.61021     6 1s    0.61021
   15.1    -0.00000     0.65795     1 1s   -0.25709     1 2pz   0.54660     1 2pz  -1.02772     2 1s   -0.25395     2 2pz  -0.54945
                                    2 2pz   1.00328
   16.1    -0.00000     0.75189     1 2py  -0.40777     1 2py   0.74167     2 2py  -0.41217     2 2py   0.81849     3 1s   -0.38195
                                    4 1s    0.38195     5 1s   -0.38161     6 1s    0.38161
   17.1    -0.00000     0.77124     1 2px  -0.74880     1 2px   0.63650     2 2px  -0.74565     2 2px   0.63202
   18.1    -0.00000     0.85968     1 1s   -0.87691     1 1s    1.45040     1 2pz   0.37767     2 1s   -0.88566     2 1s    1.52996
                                    2 2pz  -0.39367     3 1s   -0.39575     4 1s   -0.39575     5 1s   -0.39836     5 1s   -0.25939
                                    6 1s   -0.39836     6 1s   -0.25939
   19.1    -0.00000     0.87287     1 2px  -0.80144     1 2px   1.10300     2 2px   0.80453     2 2px  -1.10550
   20.1    -0.00000     0.93532     1 1s   -0.69607     1 2pz   0.60852     1 2pz  -0.55360     2 1s    0.72079     2 2pz   0.60599
                                    2 2pz  -0.55407     3 1s    0.39109     4 1s    0.39109     5 1s   -0.37745     6 1s   -0.37745
   21.1    -0.00000     1.10094     1 2py  -0.75814     1 2py   1.34330     2 2py  -0.59297     2 2py   0.85374     3 1s    0.40014
                                    3 1s   -1.19474     4 1s   -0.40014     4 1s    1.19474     5 1s    0.36118     5 1s   -0.94008
                                    6 1s   -0.36118     6 1s    0.94008
   22.1    -0.00000     1.14883     1 2py  -0.85833     1 2py   2.83355     2 2py   0.97950     2 2py  -3.05067     3 1s   -1.40223
                                    4 1s    1.40223     5 1s    1.62787     6 1s   -1.62787
   23.1    -0.00000     1.21014     1 1s   -1.13749     1 1s    1.68588     1 2pz  -0.63708     1 2pz   1.06553     2 1s   -0.65510
                                    2 1s    1.30323     3 1s    0.61203     3 1s   -1.22510     4 1s    0.61203     4 1s   -1.22510
                                    5 1s   -0.27825     6 1s   -0.27825
   24.1    -0.00000     1.22390     1 1s    0.66240     1 2pz   0.37236     1 2pz  -0.90788     2 1s   -0.89816     2 1s    1.05396
                                    2 2pz   0.74268     2 2pz  -1.40868     3 1s    0.39798     4 1s    0.39798     5 1s    0.63208
                                    5 1s   -1.26017     6 1s    0.63208     6 1s   -1.26017
   25.1    -0.00000     1.31879     1 1s    1.60377     1 1s   -5.38590     1 2pz   1.86178     2 1s   -1.62795     2 1s    5.44390
                                    2 2pz   1.84850     3 1s    0.36208     4 1s    0.36208     5 1s   -0.39407     6 1s   -0.39407
   26.1    -0.00000     1.46577     1 2py   2.54358     2 2py  -2.54431     3 1s   -0.69670     3 1s   -0.66431     4 1s    0.69670
                                    4 1s    0.66431     5 1s    0.69584     5 1s    0.67920     6 1s   -0.69584     6 1s   -0.67920
   27.1    -0.00000     1.71342     1 3d1+ -0.61845     2 3d1+  0.61914
   28.1    -0.00000     1.80788     1 3d2-  0.67898     2 3d2-  0.68346
   29.1    -0.00000     2.10461     1 3d2-  0.73825     2 3d2- -0.73410
   30.1    -0.00000     2.19297     1 1s   -0.61095     1 3d2+  0.72288     2 1s   -0.59799     2 3d2+  0.70292     3 1s    0.37776
                                    4 1s    0.37776     5 1s    0.37567     6 1s    0.37567
   31.1    -0.00000     2.31735     1 2py   0.27728     1 3d1-  0.69993     2 2py   0.29280     2 3d1- -0.68103     3 1s   -0.51763
                                    4 1s    0.51763     5 1s   -0.52805     6 1s    0.52805
   32.1    -0.00000     2.38758     1 1s   -0.50189     1 2pz   0.28962     1 2pz  -0.44797     1 3d0   0.68813     2 1s   -0.51042
                                    2 2pz  -0.28596     2 2pz   0.45220     2 3d0   0.69016
   33.1    -0.00000     2.60770     1 1s   -0.29826     1 1s    1.34449     1 2pz  -0.27959     1 3d2+ -0.78512     2 1s    0.28434
                                    2 1s   -1.36470     2 2pz  -0.26411     2 3d2+  0.81201     3 1s   -0.43642     4 1s   -0.43642
                                    5 1s    0.46085     6 1s    0.46085
   34.1    -0.00000     2.68554     1 2px  -0.26528     1 3d1+  0.90325     2 2px   0.26520     2 3d1+  0.90279
   35.1    -0.00000     3.04405     1 1s    0.30800     1 1s    2.05115     1 2pz  -0.78825     1 2pz  -1.19205     1 3d0   1.11425
                                    2 1s   -0.30902     2 1s   -2.04825     2 2pz  -0.78932     2 2pz  -1.19195     2 3d0  -1.11283
   36.1    -0.00000     3.05224     1 2py   0.56396     1 3d1-  0.95993     2 2py  -0.57408     2 3d1-  0.98169     3 1s   -0.47075
                                    4 1s    0.47075     5 1s    0.49290     6 1s   -0.49290


 Natural orbital dump (state averaged) at molpro section  2140.2    (Orbital set 2)



 **********************************************************************************************************************************
 DATASETS  * FILE   NREC   LENGTH (MB)   RECORD NAMES
              1      20       31.36       500      610      700      900      950      970     1000      129      960     1100   
                                          VAR    BASINP    GEOM    SYMINP    ZMAT    AOBASIS   BASIS     P2S    ABASIS      S 
                                         1400     1410     1200     1210     1080     1600     1650     1300     1700     1380   
                                           T        V       H0       H01     AOSYM     SMH    MOLCAS    ERIS     OPER     JKOP   

              2       5        5.42       700     1000      520     2100     2140   
                                         GEOM     BASIS   MCVARS     RHF     MCSCF   

 PROGRAMS   *        TOTAL     MULTI    HF-SCF       INT
 CPU TIMES  *         0.63      0.17      0.10      0.26
 REAL TIME  *         0.88 SEC
 DISK USED  *        38.55 MB
 **********************************************************************************************************************************
 Molecular orbitals read from record     2140.2  Type=MCSCF/NATURAL (state averaged)
 Occupation numbers read from record     2140.2  Type=MCSCF/NATURAL (state averaged)
 Orbital energies read from record       2140.2  Type=MCSCF/NATURAL (state averaged)
 Redundancy group numbers read from rec  2140.2  Type=MCSCF/NATURAL (state averaged)

 MULTI/6-31G* energy=    -77.486288547387

           MULTI          HF-SCF
    -77.48628855    -78.03068864
 **********************************************************************************************************************************
 Molpro calculation terminated
