
 Primary working directories    : /scratch.local/johan406.molpro_temp/molpro.ljiKZPEC8o
 Secondary working directories  : /scratch.local/johan406.molpro_temp/molpro.ljiKZPEC8o
 Wavefunction directory         : /home/goodpast/johan406/wfu/
 Main file repository           : /scratch.local/johan406.molpro_temp/molpro.ljiKZPEC8o/

 id        : roweumn

 Nodes     nprocs
 cn0117       1

 Using customized tuning parameters: mindgm=1; mindgv=20; mindgc=4; mindgr=1; noblas=0; minvec=7
 default implementation of scratch files=df  


 Variables initialized (934), CPU time= 0.00 sec
                                                                                 !leave this line blank
 
 gprint, orbitals=30
 memory, 125., m
 symmetry, nosym
 nelect=16
 basis=6-31g*
 
 geometry={
 C -0.0 0.0 0.6675
 C 0.0 0.0 -0.6707
 H 0.0 0.9321 1.2448
 H 0.0 -0.9321 1.2448
 H 0.0 0.8977 -1.2248
 H -0.0 -0.8977 -1.2248
 }
 
 hf
 {multi,
 closed 7
 occ 9
 wf,spin=0;STATE,3
 }
 
 Commands  initialized (763), CPU time= 0.01 sec, 617 directives.
 Default parameters read. Elapsed time= 0.08 sec

 Checking input...
 Passed
1


                                         ***  PROGRAM SYSTEM MOLPRO  ***
                                       Copyright, TTI GmbH Stuttgart, 2015
                                    Version 2019.2 linked Oct 25 2019 22:50:27


 **********************************************************************************************************************************
 LABEL *                                                                                 
  64 bit serial version                                                                  DATE: 26-Jan-23          TIME: 20:41:25  
 **********************************************************************************************************************************

 SHA1:             8dbd9ae1082e4ce945b0f27595c9eb2d4aa09004
 **********************************************************************************************************************************


 Variable memory set to  125000000 words,  buffer space 

 SETTING NELECT         =        16.00000000                                  
 SETTING BASIS          =    6-31G*
 ZSYMEL=NOSYM


Geometry recognized as XYZ



 Recomputing integrals since basis changed


 Using spherical harmonics

 Library entry C      S 6-31G                selected for orbital group  1
 Library entry C      P 6-31G                selected for orbital group  1
 Library entry C      D 6-31G*               selected for orbital group  1
 Library entry H      S 6-31G                selected for orbital group  2


 PROGRAM * SEWARD (Integral evaluation for generally contracted gaussian basis sets)     Author: Roland Lindh, 1990

 Geometry written to block  1 of record 700


 Point group  C1  



 ATOMIC COORDINATES

 NR  ATOM    CHARGE       X              Y              Z

   1  C       6.00    0.000000000    0.000000000    1.261392188
   2  C       6.00    0.000000000    0.000000000   -1.267439312
   3  H       1.00    0.000000000    1.761413721    2.352331080
   4  H       1.00    0.000000000   -1.761413721    2.352331080
   5  H       1.00    0.000000000    1.696407142   -2.314536557
   6  H       1.00    0.000000000   -1.696407142   -2.314536557

 Bond lengths in Bohr (Angstrom)

 1-2  2.528831500  1-3  2.071889466  1-4  2.071889466  2-5  1.993542032  2-6  1.993542032
     ( 1.338200000)     ( 1.096396689)     ( 1.096396689)     ( 1.054937012)     ( 1.054937012)

 Bond angles

  1-2-5  121.68471304   1-2-6  121.68471304   2-1-3  121.77217533   2-1-4  121.77217533

  3-1-4  116.45564933   5-2-6  116.63057392

 NUCLEAR CHARGE:                   16
 NUMBER OF PRIMITIVE AOS:          72
 NUMBER OF SYMMETRY AOS:           70
 NUMBER OF CONTRACTIONS:           36   (   36A   )
 NUMBER OF CORE ORBITALS:           2   (    2A   )
 NUMBER OF VALENCE ORBITALS:       12   (   12A   )


 NUCLEAR REPULSION ENERGY   33.41136289

 EXTRA SYMMETRY OF AOS IN SYMMETRY 1:   1 1 1 2 1 1 2 1 1 1   3 2 1 1 1 1 1 2 1 1   2 1 1 1 3 2 1 1 1 1   1 1 1 1 1 1

 Eigenvalues of metric

         1 0.831E-02 0.172E-01 0.371E-01 0.466E-01 0.710E-01 0.192E+00 0.210E+00 0.225E+00


 Contracted 2-electron integrals neglected if value below      1.0D-11
 AO integral compression algorithm  1   Integral accuracy      1.0D-11

     0.786 MB (compressed) written to integral file ( 38.0%)


 NUMBER OF SORTED TWO-ELECTRON INTEGRALS:     222111.     BUFFER LENGTH:  32768
 NUMBER OF SEGMENTS:   1  SEGMENT LENGTH:     222111      RECORD LENGTH: 524288

 Memory used in sort:       0.78 MW

 SORT1 READ      284735. AND WROTE       98531. INTEGRALS IN      1 RECORDS. CPU TIME:     0.00 SEC, REAL TIME:     0.00 SEC
 SORT2 READ       98531. AND WROTE      222111. INTEGRALS IN      3 RECORDS. CPU TIME:     0.02 SEC, REAL TIME:     0.02 SEC

 FILE SIZES:   FILE 1:    30.9 MBYTE,  FILE 4:     4.2 MBYTE,   TOTAL:     35.1 MBYTE

 OPERATOR DM      FOR CENTER  0  COORDINATES:    0.000000    0.000000    0.000000


 **********************************************************************************************************************************
 DATASETS  * FILE   NREC   LENGTH (MB)   RECORD NAMES
              1      19       30.63       500      610      700      900      950      970     1000      129      960     1100   
                                          VAR    BASINP    GEOM    SYMINP    ZMAT    AOBASIS   BASIS     P2S    ABASIS      S 
                                         1400     1410     1200     1210     1080     1600     1650     1300     1700   
                                           T        V       H0       H01     AOSYM     SMH    MOLCAS    ERIS     OPER   

 PROGRAMS   *        TOTAL       INT
 CPU TIMES  *         0.36      0.26
 REAL TIME  *         0.57 SEC
 DISK USED  *        35.45 MB
 **********************************************************************************************************************************


 PROGRAM * RHF-SCF (CLOSED SHELL)       Authors: W. Meyer, H.-J. Werner


 NUMBER OF ELECTRONS:       8+    8-    SPACE SYMMETRY=1    SPIN SYMMETRY: Singlet 
 CONVERGENCE THRESHOLDS:    1.00E-05 (Density)    1.00E-07 (Energy)
 MAX. NUMBER OF ITERATIONS:       60
 INTERPOLATION TYPE:            DIIS
 INTERPOLATION STEPS:              2 (START)      1 (STEP)
 LEVEL SHIFTS:                  0.00 (CLOSED)  0.00 (OPEN) 



 Orbital guess generated from atomic densities. Full valence occupancy:    8

 Molecular orbital dump at record        2100.2

 Initial occupancy:   8

 ITERATION    DDIFF          GRAD             ENERGY        2-EL.EN.            DIPOLE MOMENTS         DIIS   ORB.
    1      0.000D+00      0.000D+00       -78.00509848    118.730916   -0.00000    0.00000    0.06398    0    start
    2      0.000D+00      0.863D-02       -78.02718546    116.889444   -0.00000    0.00000   -0.01634    1    diag
    3      0.827D-02      0.295D-02       -78.02935023    117.517102   -0.00000   -0.00000    0.00238    2    diag
    4      0.266D-02      0.724D-03       -78.02956484    117.422785   -0.00000    0.00000   -0.01224    3    diag
    5      0.108D-02      0.104D-03       -78.02956793    117.422190   -0.00000   -0.00000   -0.00920    4    diag
    6      0.144D-03      0.382D-04       -78.02956844    117.423638   -0.00000   -0.00000   -0.01137    5    diag
    7      0.511D-04      0.757D-05       -78.02956846    117.423372   -0.00000   -0.00000   -0.01155    6    diag
    8      0.101D-04      0.254D-05       -78.02956847    117.423385   -0.00000    0.00000   -0.01172    7    diag
    9      0.598D-05      0.607D-06       -78.02956847    117.423380   -0.00000   -0.00000   -0.01174    0    orth

 Final occupancy:   8

 !RHF STATE  1.1 Energy               -78.029568465330
 Nuclear energy                        33.41136289
 One-electron energy                 -170.15262121
 Two-electron energy                   58.71168986
 Virial quotient                       -1.00004838
 !RHF STATE  1.1 Dipole moment         -0.00000000    -0.00000000    -0.01173571
 Dipole moment /Debye                  -0.00000000    -0.00000000    -0.02982724

 ELECTRON ORBITALS
 =================

  Orbital  Occupation    Energy     Coefficients
    1.1     2.00000   -11.22878     1 1s    0.99215
    2.1     2.00000   -11.21979     2 1s    0.99215
    3.1     2.00000    -1.02713     1 1s    0.29567     2 1s    0.30849
    4.1     2.00000    -0.79233     1 1s    0.25124
    5.1     2.00000    -0.63915     1 2py   0.30144     2 2py   0.34156
    6.1     2.00000    -0.58270     1 2pz   0.41099     2 2pz  -0.40312
    7.1     2.00000    -0.50545     1 2py   0.31857     2 2py  -0.29106
    8.1     2.00000    -0.36928     1 2px   0.37334     1 2px   0.30714     2 2px   0.37329     2 2px   0.30867
    9.1     0.00000     0.17859     1 2px   0.34249     1 2px   0.73394     2 2px  -0.34170     2 2px  -0.73383
   10.1     0.00000     0.26587     1 1s   -1.61888     1 2pz  -0.66610     2 1s   -1.34716     2 2pz   0.61809     3 1s    1.12157
                                    4 1s    1.12157     5 1s    0.94301     6 1s    0.94301
   11.1     0.00000     0.29448     1 2py  -0.26846     1 2py  -0.85015     2 2py  -0.76785     3 1s    1.12172     4 1s   -1.12172
                                    5 1s    1.08007     6 1s   -1.08007
   12.1     0.00000     0.31005     1 1s   -1.71390     2 1s    2.16076     3 1s    0.92560     4 1s    0.92560     5 1s   -1.22279
                                    6 1s   -1.22279
   13.1     0.00000     0.39137     1 2py   1.81762     2 2py  -0.25727     2 2py  -1.94333     3 1s   -1.53548     4 1s    1.53548
                                    5 1s    1.73472     6 1s   -1.73472
   14.1     0.00000     0.49078     1 1s   -3.04398     1 2pz   2.93148     2 1s    2.93102     2 2pz   2.98162     3 1s   -0.56391
                                    4 1s   -0.56391     5 1s    0.62257     6 1s    0.62257
   15.1     0.00000     0.66929     1 2pz   0.55188     1 2pz  -1.08015     2 1s   -0.32752     2 2pz  -0.55980     2 2pz   0.99814
   16.1     0.00000     0.76240     1 2py  -0.39075     1 2py   0.64738     2 2py  -0.40605     2 2py   0.90124     3 1s   -0.38733
                                    4 1s    0.38733     5 1s   -0.38539     6 1s    0.38539
   17.1     0.00000     0.77722     1 2px  -0.74633     1 2px   0.64735     2 2px  -0.73480     2 2px   0.63171
   18.1     0.00000     0.86263     1 1s   -0.87452     1 1s    1.34226     1 2pz   0.31789     2 1s   -0.90142     2 1s    1.59553
                                    2 2pz  -0.36042     3 1s   -0.39418     4 1s   -0.39418     5 1s   -0.39607     5 1s   -0.28622
                                    6 1s   -0.39607     6 1s   -0.28622
   19.1     0.00000     0.89049     1 2px  -0.81303     1 2px   1.06935     2 2px   0.82402     2 2px  -1.07834
   20.1     0.00000     0.95431     1 1s   -0.80867     1 2pz   0.60512     1 2pz  -0.46416     2 1s    0.91904     2 2pz   0.59867
                                    2 2pz  -0.47400     3 1s    0.40489     4 1s    0.40489     5 1s   -0.36404     6 1s   -0.36404
   21.1     0.00000     1.11247     1 2py   0.92191     1 2py  -1.81236     2 2py   0.40103     2 2py  -0.28612     3 1s   -0.42424
                                    3 1s    1.40325     4 1s    0.42424     4 1s   -1.40325     5 1s   -0.30103     5 1s    0.61032
                                    6 1s    0.30103     6 1s   -0.61032
   22.1     0.00000     1.16589     1 2py  -0.69459     1 2py   2.51082     2 2py   1.08184     2 2py  -3.19379     3 1s   -1.10830
                                    4 1s    1.10830     5 1s   -0.25628     5 1s    1.81509     6 1s    0.25628     6 1s   -1.81509
   23.1     0.00000     1.20020     1 1s   -1.15247     1 1s    1.72523     1 2pz  -0.68380     1 2pz   1.13611     2 1s   -0.41765
                                    2 1s    0.86106     2 2pz   0.39508     3 1s    0.62488     3 1s   -1.28071     4 1s    0.62488
                                    4 1s   -1.28071
   24.1     0.00000     1.24057     1 1s   -0.31462     1 1s    0.91767     1 2pz  -0.66113     2 1s   -1.03745     2 1s    1.36839
                                    2 2pz   0.72165     2 2pz  -1.32111     5 1s    0.65680     5 1s   -1.30582     6 1s    0.65680
                                    6 1s   -1.30582
   25.1     0.00000     1.33870     1 1s    1.56595     1 1s   -5.30935     1 2pz  -0.26477     1 2pz   1.91784     2 1s   -1.62630
                                    2 1s    5.46567     2 2pz   1.88474     3 1s    0.29832     4 1s    0.29832     5 1s   -0.38585
                                    6 1s   -0.38585
   26.1     0.00000     1.47463     1 2py   2.53257     2 2py  -2.53258     3 1s   -0.69752     3 1s   -0.64420     4 1s    0.69752
                                    4 1s    0.64420     5 1s    0.69695     5 1s    0.69046     6 1s   -0.69695     6 1s   -0.69046
   27.1     0.00000     1.73912     1 3d1+ -0.61813     2 3d1+  0.61998
   28.1     0.00000     1.82161     1 3d2-  0.67445     2 3d2-  0.68792
   29.1     0.00000     2.12771     1 3d2-  0.74239     2 3d2- -0.72993
   30.1     0.00000     2.20775     1 1s   -0.62723     1 3d2+  0.74579     2 1s   -0.58789     2 3d2+  0.67951     3 1s    0.37767
                                    4 1s    0.37767     5 1s    0.37101     6 1s    0.37101
   31.1     0.00000     2.33363     1 2py   0.25264     1 3d1-  0.72299     2 2py   0.30470     2 2py   0.25162     2 3d1- -0.66014
                                    3 1s   -0.50183     4 1s    0.50183     5 1s   -0.53639     6 1s    0.53639
   32.1     0.00000     2.40761     1 1s   -0.49403     1 2pz   0.28776     1 2pz  -0.44004     1 3d0   0.68638     2 1s   -0.52282
                                    2 2pz  -0.27651     2 2pz   0.45296     2 3d0   0.69244
   33.1     0.00000     2.62873     1 1s   -0.31153     1 1s    1.31467     1 2pz  -0.29864     1 3d2+ -0.75380     2 1s    0.26494
                                    2 1s   -1.38152     2 3d2+  0.84339     3 1s   -0.40583     4 1s   -0.40583     5 1s    0.48684
                                    6 1s    0.48684
   34.1     0.00000     2.70813     1 2px  -0.26460     1 3d1+  0.90332     2 2px   0.26436     2 3d1+  0.90207
   35.1     0.00000     3.06215     1 1s    0.31446     1 1s    2.02859     1 2pz  -0.79491     1 2pz  -1.17860     1 3d0   1.11408
                                    2 1s   -0.31741     2 1s   -2.01908     2 2pz  -0.79840     2 2pz  -1.17847     2 3d0  -1.10982
   36.1     0.00000     3.06616     1 2py   0.55263     1 3d1-  0.93491     2 2py  -0.58678     2 3d1-  1.00742     3 1s   -0.44390
                                    4 1s    0.44390     5 1s    0.51729     6 1s   -0.51729


 HOMO      8.1    -0.369278 =     -10.0486eV
 LUMO      9.1     0.178591 =       4.8597eV
 LUMO-HOMO         0.547868 =      14.9083eV


 **********************************************************************************************************************************
 DATASETS  * FILE   NREC   LENGTH (MB)   RECORD NAMES
              1      19       30.63       500      610      700      900      950      970     1000      129      960     1100   
                                          VAR    BASINP    GEOM    SYMINP    ZMAT    AOBASIS   BASIS     P2S    ABASIS      S 
                                         1400     1410     1200     1210     1080     1600     1650     1300     1700   
                                           T        V       H0       H01     AOSYM     SMH    MOLCAS    ERIS     OPER   

              2       4        2.86       700     1000      520     2100   
                                         GEOM     BASIS   MCVARS     RHF  

 PROGRAMS   *        TOTAL    HF-SCF       INT
 CPU TIMES  *         0.47      0.11      0.26
 REAL TIME  *         0.70 SEC
 DISK USED  *        35.45 MB
 **********************************************************************************************************************************


 PROGRAM * MULTI (Direct Multiconfiguration SCF)       Authors: P.J. Knowles, H.-J. Werner (1984)


 Number of closed-shell orbitals:   7 (   7 )
 Number of active  orbitals:        2 (   2 )
 Number of external orbitals:      27 (  27 )

 State symmetry 1

 Number of electrons:     2    Spin symmetry=Singlet   Space symmetry=1
 Number of states:        3
 Number of CSFs:          3   (4 determinants, 4 intermediate states)

 Molecular orbitals read from record     2100.2  Type=RHF/CANONICAL (state 1.1)

 EXTRA SYMMETRY OF MOS IN SYMMETRY 1:   1 1 1 1 1 1 1 2 2 1   1 1 1 1 1 1 2 1 2 1   1 1 1 1 1 1 2 3 3 1   1 1 1 2 1 1

 Wavefunction dump at record             2140.2

 Convergence thresholds  0.10E-01 (gradient)  0.10E-05 (energy)  0.10E-02 (step length)

 Weight factors for state symmetry  1:    0.33333   0.33333   0.33333

 Number of orbital rotations:      257   (    14 Core/Active    189 Core/Virtual   0 Active/Active     54 Active/Virtual)
 Total number of variables:        269

 Micro-Iterations solved by the two-step solver

 ITER. MIC  NCI  NEG     ENERGY(VAR)     ENERGY(PROJ)   ENERGY CHANGE     GRAD(0)  GRAD(ORB)   GRAD(CI)     STEP       TIME

   1    3    3    0     -77.72838203     -77.73462772   -0.00624568    0.13263423 0.00000154 0.00000000  0.63D-01      0.06
   2    2    3    0     -77.73452914     -77.73453291   -0.00000377    0.00304456 0.00000186 0.00000000  0.16D-02      0.09
   3    2    3    0     -77.73453291     -77.73453291   -0.00000000    0.00000216 0.00000000 0.00000000  0.13D-05      0.13

 ** WVFN ****  CONVERGENCE REACHED, FINAL GRADIENT:  0.13D-11



 Results for state 1.1
 =====================

 !MCSCF STATE  1.1 Energy             -78.047243429682
 Nuclear energy                        33.41136289
 Kinetic energy                        78.09407865
 One electron energy                 -170.28474038
 Two electron energy                   58.82613406
 Virial ratio                           1.99940027

 !MCSCF STATE  1.1 Dipole moment        0.00000000     0.00000000    -0.00776092
 Dipole moment /Debye                   0.00000000     0.00000000    -0.01972501

 Results for state 2.1
 =====================

 !MCSCF STATE  2.1 Energy             -77.671273407784
 Nuclear energy                        33.41136289
 Kinetic energy                        78.27431781
 One electron energy                 -169.71128376
 Two electron energy                   58.62864746
 Virial ratio                           1.99229576

 !MCSCF STATE  2.1 Dipole moment        0.00000000     0.00000000    -0.00379451
 Dipole moment /Debye                   0.00000000     0.00000000    -0.00964405

 Results for state 3.1
 =====================

 !MCSCF STATE  3.1 Energy             -77.485081907199
 Nuclear energy                        33.41136289
 Kinetic energy                        78.45456076
 One electron energy                 -169.13776245
 Two electron energy                   58.24131766
 Virial ratio                           1.98764280

 !MCSCF STATE  3.1 Dipole moment        0.00000000     0.00000000    -0.01850618
 Dipole moment /Debye                   0.00000000     0.00000000    -0.04703493

 State-averaged charge density matrix saved on record  2140.2 (density set 1)

 !MCSCF expec         <1.1|DMZ|1.1>    -0.007760923168 au =    -0.019725007106 Debye
 !MCSCF trans         <2.1|DMZ|1.1>    -1.510395429357 au =    -3.838790815344 Debye
 !MCSCF expec         <2.1|DMZ|2.1>    -0.003794509590 au =    -0.009644049683 Debye
 !MCSCF trans         <3.1|DMZ|1.1>    -0.001118049982 au =    -0.002841613474 Debye
 !MCSCF trans         <3.1|DMZ|2.1>    -2.273508287748 au =    -5.778303193974 Debye
 !MCSCF expec         <3.1|DMZ|3.1>    -0.018506179106 au =    -0.047034934693 Debye


 NATURAL ORBITALS (state averaged)
 =================================

  Orbital  Occupation    Energy     Coefficients
    1.1     2.00000   -11.24431     1 1s    0.99291
    2.1     2.00000   -11.23602     2 1s    0.99290
    3.1     2.00000    -1.04186     1 1s    0.30393     2 1s    0.31630
    4.1     2.00000    -0.80019     1 1s    0.29526     2 1s   -0.27840
    5.1     2.00000    -0.65201     1 2py   0.30711     2 2py   0.34729
    6.1     2.00000    -0.59784     1 2pz   0.41287     2 2pz  -0.40456
    7.1     2.00000    -0.51208     1 2py   0.32514     2 2py  -0.29753
    8.1     1.00000    -0.22541     1 2px   0.35787     1 2px   0.31865     2 2px   0.35799     2 2px   0.31998
    9.1     1.00000     0.03370     1 2px   0.38043     1 2px   0.68694     2 2px  -0.37973     2 2px  -0.68680
   10.1    -0.00000     0.26313     1 1s   -1.61995     1 2pz  -0.66773     2 1s   -1.33833     2 2pz   0.62794     3 1s    1.12031
                                    4 1s    1.12031     5 1s    0.94348     6 1s    0.94348
   11.1    -0.00000     0.28603     1 2py  -0.26709     1 2py  -0.84058     2 2py  -0.75803     3 1s    1.11388     4 1s   -1.11388
                                    5 1s    1.07075     6 1s   -1.07075
   12.1    -0.00000     0.30695     1 1s   -1.73821     2 1s    2.18340     3 1s    0.92051     4 1s    0.92051     5 1s   -1.21706
                                    6 1s   -1.21706
   13.1    -0.00000     0.38721     1 2py   1.80330     2 2py  -0.26108     2 2py  -1.92880     3 1s   -1.52846     4 1s    1.52846
                                    5 1s    1.72805     6 1s   -1.72805
   14.1    -0.00000     0.48801     1 1s   -3.01921     1 2pz   2.91366     2 1s    2.91116     2 2pz   2.96275     3 1s   -0.57427
                                    4 1s   -0.57427     5 1s    0.63058     6 1s    0.63058
   15.1    -0.00000     0.65790     1 1s   -0.26070     1 2pz   0.54303     1 2pz  -1.05706     2 1s   -0.25011     2 2pz  -0.55268
                                    2 2pz   0.97415
   16.1    -0.00000     0.75187     1 2py  -0.40255     1 2py   0.65416     2 2py  -0.41694     2 2py   0.90917     3 1s   -0.38234
                                    4 1s    0.38234     5 1s   -0.38103     6 1s    0.38103
   17.1    -0.00000     0.77119     1 2px  -0.75239     1 2px   0.64167     2 2px  -0.74197     2 2px   0.62685
   18.1    -0.00000     0.85976     1 1s   -0.86682     1 1s    1.36044     1 2pz   0.36063     2 1s   -0.89592     2 1s    1.62700
                                    2 2pz  -0.41172     3 1s   -0.39229     4 1s   -0.39229     5 1s   -0.40109     5 1s   -0.29824
                                    6 1s   -0.40109     6 1s   -0.29824
   19.1    -0.00000     0.87285     1 2px  -0.79783     1 2px   1.10020     2 2px   0.80807     2 2px  -1.10845
   20.1    -0.00000     0.93541     1 1s   -0.66419     1 2pz   0.61082     1 2pz  -0.55324     2 1s    0.74550     2 2pz   0.60225
                                    2 2pz  -0.55403     3 1s    0.40720     4 1s    0.40720     5 1s   -0.36174     6 1s   -0.36174
   21.1    -0.00000     1.09729     1 2py   0.89754     1 2py  -1.77509     2 2py   0.40974     2 2py  -0.33798     3 1s   -0.42429
                                    3 1s    1.39552     4 1s    0.42429     4 1s   -1.39552     5 1s   -0.30668     5 1s    0.64741
                                    6 1s    0.30668     6 1s   -0.64741
   22.1    -0.00000     1.15294     1 2py  -0.71105     1 2py   2.54471     2 2py   1.06858     2 2py  -3.19212     3 1s   -1.13758
                                    4 1s    1.13758     5 1s   -0.25341     5 1s    1.81383     6 1s    0.25341     6 1s   -1.81383
   23.1    -0.00000     1.19759     1 1s   -1.12116     1 1s    1.62853     1 2pz  -0.69081     1 2pz   1.17160     2 1s   -0.45727
                                    2 1s    0.97974     2 2pz   0.41360     3 1s    0.62651     3 1s   -1.27232     4 1s    0.62651
                                    4 1s   -1.27232
   24.1    -0.00000     1.23737     1 1s   -0.36480     1 1s    1.11356     1 2pz  -0.75023     2 1s   -0.96120     2 1s    1.13249
                                    2 2pz   0.73819     2 2pz  -1.40736     5 1s    0.65825     5 1s   -1.28816     6 1s    0.65825
                                    6 1s   -1.28816
   25.1    -0.00000     1.31907     1 1s    1.57654     1 1s   -5.31296     1 2pz   1.86413     2 1s   -1.66128     2 1s    5.51317
                                    2 2pz   1.81807     3 1s    0.33209     4 1s    0.33209     5 1s   -0.44213     6 1s   -0.44213
   26.1    -0.00000     1.46598     1 2py   2.53529     2 2py  -2.53825     3 1s   -0.69737     3 1s   -0.64418     4 1s    0.69737
                                    4 1s    0.64418     5 1s    0.69477     5 1s    0.69363     6 1s   -0.69477     6 1s   -0.69363
   27.1    -0.00000     1.71340     1 3d1+ -0.61765     2 3d1+  0.61993
   28.1    -0.00000     1.80773     1 3d2-  0.67370     2 3d2-  0.68866
   29.1    -0.00000     2.10459     1 3d2-  0.74308     2 3d2- -0.72923
   30.1    -0.00000     2.19233     1 1s   -0.62434     1 3d2+  0.74535     2 1s   -0.58250     2 3d2+  0.67897     3 1s    0.37970
                                    4 1s    0.37970     5 1s    0.37276     6 1s    0.37276
   31.1    -0.00000     2.31740     1 2py   0.25979     1 3d1-  0.72108     2 2py   0.31130     2 3d1- -0.65853     3 1s   -0.50506
                                    4 1s    0.50506     5 1s   -0.53998     6 1s    0.53998
   32.1    -0.00000     2.38747     1 1s   -0.49228     1 2pz   0.29407     1 2pz  -0.44256     1 3d0   0.68586     2 1s   -0.52068
                                    2 2pz  -0.28200     2 2pz   0.45602     2 3d0   0.69253
   33.1    -0.00000     2.60896     1 1s   -0.31241     1 1s    1.32062     1 2pz  -0.29737     1 3d2+ -0.75312     2 1s    0.26572
                                    2 1s   -1.38734     2 3d2+  0.84257     3 1s   -0.40875     4 1s   -0.40875     5 1s    0.49010
                                    6 1s    0.49010
   34.1    -0.00000     2.68558     1 2px  -0.26538     1 3d1+  0.90385     2 2px   0.26512     2 3d1+  0.90232
   35.1    -0.00000     3.04410     1 1s    0.30718     1 1s    2.05430     1 2pz  -0.78733     1 2pz  -1.19215     1 3d0   1.11595
                                    2 1s   -0.31047     2 1s   -2.04480     2 2pz  -0.79090     2 2pz  -1.19178     2 3d0  -1.11124
   36.1    -0.00000     3.05334     1 2py   0.55291     1 3d1-  0.93478     2 2py  -0.58671     2 3d1-  1.00678     3 1s   -0.44619
                                    4 1s    0.44619     5 1s    0.51958     6 1s   -0.51958


 Natural orbital dump (state averaged) at molpro section  2140.2    (Orbital set 2)



 **********************************************************************************************************************************
 DATASETS  * FILE   NREC   LENGTH (MB)   RECORD NAMES
              1      20       31.36       500      610      700      900      950      970     1000      129      960     1100   
                                          VAR    BASINP    GEOM    SYMINP    ZMAT    AOBASIS   BASIS     P2S    ABASIS      S 
                                         1400     1410     1200     1210     1080     1600     1650     1300     1700     1380   
                                           T        V       H0       H01     AOSYM     SMH    MOLCAS    ERIS     OPER     JKOP   

              2       5        5.42       700     1000      520     2100     2140   
                                         GEOM     BASIS   MCVARS     RHF     MCSCF   

 PROGRAMS   *        TOTAL     MULTI    HF-SCF       INT
 CPU TIMES  *         0.63      0.16      0.11      0.26
 REAL TIME  *         0.89 SEC
 DISK USED  *        38.55 MB
 **********************************************************************************************************************************
 Molecular orbitals read from record     2140.2  Type=MCSCF/NATURAL (state averaged)
 Occupation numbers read from record     2140.2  Type=MCSCF/NATURAL (state averaged)
 Orbital energies read from record       2140.2  Type=MCSCF/NATURAL (state averaged)
 Redundancy group numbers read from rec  2140.2  Type=MCSCF/NATURAL (state averaged)

 MULTI/6-31G* energy=    -77.485081907199

           MULTI          HF-SCF
    -77.48508191    -78.02956847
 **********************************************************************************************************************************
 Molpro calculation terminated
