
 Primary working directories    : /scratch.local/johan406.molpro_temp/molpro.lcjekhxHgN
 Secondary working directories  : /scratch.local/johan406.molpro_temp/molpro.lcjekhxHgN
 Wavefunction directory         : /home/goodpast/johan406/wfu/
 Main file repository           : /scratch.local/johan406.molpro_temp/molpro.lcjekhxHgN/

 id        : roweumn

 Nodes     nprocs
 cn0117       1

 Using customized tuning parameters: mindgm=1; mindgv=20; mindgc=4; mindgr=1; noblas=0; minvec=7
 default implementation of scratch files=df  


 Variables initialized (934), CPU time= 0.01 sec
                                                                                 !leave this line blank
 
 gprint, orbitals=30
 memory, 125., m
 symmetry, nosym
 nelect=16
 basis=6-31g*
 
 geometry={
 C -0.0 0.0 0.6663
 C 0.0 0.0 -0.672
 H 0.0 0.9459 1.2528
 H 0.0 -0.9459 1.2528
 H 0.0 0.8839 -1.2168
 H -0.0 -0.8839 -1.2168
 }
 
 hf
 {multi,
 closed 7
 occ 9
 wf,spin=0;STATE,3
 }
 
 Commands  initialized (763), CPU time= 0.01 sec, 617 directives.
 Default parameters read. Elapsed time= 0.08 sec

 Checking input...
 Passed
1


                                         ***  PROGRAM SYSTEM MOLPRO  ***
                                       Copyright, TTI GmbH Stuttgart, 2015
                                    Version 2019.2 linked Oct 25 2019 22:50:27


 **********************************************************************************************************************************
 LABEL *                                                                                 
  64 bit serial version                                                                  DATE: 26-Jan-23          TIME: 20:42:11  
 **********************************************************************************************************************************

 SHA1:             8dbd9ae1082e4ce945b0f27595c9eb2d4aa09004
 **********************************************************************************************************************************


 Variable memory set to  125000000 words,  buffer space 

 SETTING NELECT         =        16.00000000                                  
 SETTING BASIS          =    6-31G*
 ZSYMEL=NOSYM


Geometry recognized as XYZ



 Recomputing integrals since basis changed


 Using spherical harmonics

 Library entry C      S 6-31G                selected for orbital group  1
 Library entry C      P 6-31G                selected for orbital group  1
 Library entry C      D 6-31G*               selected for orbital group  1
 Library entry H      S 6-31G                selected for orbital group  2


 PROGRAM * SEWARD (Integral evaluation for generally contracted gaussian basis sets)     Author: Roland Lindh, 1990

 Geometry written to block  1 of record 700


 Point group  C1  



 ATOMIC COORDINATES

 NR  ATOM    CHARGE       X              Y              Z

   1  C       6.00    0.000000000    0.000000000    1.259124517
   2  C       6.00    0.000000000    0.000000000   -1.269895956
   3  H       1.00    0.000000000    1.787491941    2.367448889
   4  H       1.00    0.000000000   -1.787491941    2.367448889
   5  H       1.00    0.000000000    1.670328922   -2.299418748
   6  H       1.00    0.000000000   -1.670328922   -2.299418748

 Bond lengths in Bohr (Angstrom)

 1-2  2.529020473  1-3  2.103214291  1-4  2.103214291  2-5  1.962120253  2-6  1.962120253
     ( 1.338300000)     ( 1.112973072)     ( 1.112973072)     ( 1.038309323)     ( 1.038309323)

 Bond angles

  1-2-5  121.64799115   1-2-6  121.64799115   2-1-3  121.80075045   2-1-4  121.80075045

  3-1-4  116.39849910   5-2-6  116.70401771

 NUCLEAR CHARGE:                   16
 NUMBER OF PRIMITIVE AOS:          72
 NUMBER OF SYMMETRY AOS:           70
 NUMBER OF CONTRACTIONS:           36   (   36A   )
 NUMBER OF CORE ORBITALS:           2   (    2A   )
 NUMBER OF VALENCE ORBITALS:       12   (   12A   )


 NUCLEAR REPULSION ENERGY   33.42147198

 EXTRA SYMMETRY OF AOS IN SYMMETRY 1:   1 1 1 2 1 1 2 1 1 1   3 2 1 1 1 1 1 2 1 1   2 1 1 1 3 2 1 1 1 1   1 1 1 1 1 1

 Eigenvalues of metric

         1 0.831E-02 0.171E-01 0.361E-01 0.478E-01 0.711E-01 0.192E+00 0.209E+00 0.225E+00


 Contracted 2-electron integrals neglected if value below      1.0D-11
 AO integral compression algorithm  1   Integral accuracy      1.0D-11

     0.786 MB (compressed) written to integral file ( 38.0%)


 NUMBER OF SORTED TWO-ELECTRON INTEGRALS:     222111.     BUFFER LENGTH:  32768
 NUMBER OF SEGMENTS:   1  SEGMENT LENGTH:     222111      RECORD LENGTH: 524288

 Memory used in sort:       0.78 MW

 SORT1 READ      284735. AND WROTE       98531. INTEGRALS IN      1 RECORDS. CPU TIME:     0.00 SEC, REAL TIME:     0.01 SEC
 SORT2 READ       98531. AND WROTE      222111. INTEGRALS IN      3 RECORDS. CPU TIME:     0.02 SEC, REAL TIME:     0.02 SEC

 FILE SIZES:   FILE 1:    30.9 MBYTE,  FILE 4:     4.2 MBYTE,   TOTAL:     35.1 MBYTE

 OPERATOR DM      FOR CENTER  0  COORDINATES:    0.000000    0.000000    0.000000


 **********************************************************************************************************************************
 DATASETS  * FILE   NREC   LENGTH (MB)   RECORD NAMES
              1      19       30.63       500      610      700      900      950      970     1000      129      960     1100   
                                          VAR    BASINP    GEOM    SYMINP    ZMAT    AOBASIS   BASIS     P2S    ABASIS      S 
                                         1400     1410     1200     1210     1080     1600     1650     1300     1700   
                                           T        V       H0       H01     AOSYM     SMH    MOLCAS    ERIS     OPER   

 PROGRAMS   *        TOTAL       INT
 CPU TIMES  *         0.35      0.25
 REAL TIME  *         0.56 SEC
 DISK USED  *        35.45 MB
 **********************************************************************************************************************************


 PROGRAM * RHF-SCF (CLOSED SHELL)       Authors: W. Meyer, H.-J. Werner


 NUMBER OF ELECTRONS:       8+    8-    SPACE SYMMETRY=1    SPIN SYMMETRY: Singlet 
 CONVERGENCE THRESHOLDS:    1.00E-05 (Density)    1.00E-07 (Energy)
 MAX. NUMBER OF ITERATIONS:       60
 INTERPOLATION TYPE:            DIIS
 INTERPOLATION STEPS:              2 (START)      1 (STEP)
 LEVEL SHIFTS:                  0.00 (CLOSED)  0.00 (OPEN) 



 Orbital guess generated from atomic densities. Full valence occupancy:    8

 Molecular orbital dump at record        2100.2

 Initial occupancy:   8

 ITERATION    DDIFF          GRAD             ENERGY        2-EL.EN.            DIPOLE MOMENTS         DIIS   ORB.
    1      0.000D+00      0.000D+00       -78.00192452    118.746675    0.00000    0.00000    0.11535    0    start
    2      0.000D+00      0.870D-02       -78.02429477    116.900935    0.00000   -0.00000   -0.02943    1    diag
    3      0.840D-02      0.302D-02       -78.02654488    117.521972    0.00000   -0.00000    0.00409    2    diag
    4      0.270D-02      0.749D-03       -78.02677134    117.436906    0.00000   -0.00000   -0.02162    3    diag
    5      0.110D-02      0.153D-03       -78.02677717    117.431521    0.00000   -0.00000   -0.01757    4    diag
    6      0.161D-03      0.403D-04       -78.02677800    117.433946    0.00000   -0.00000   -0.02037    5    diag
    7      0.735D-04      0.110D-04       -78.02677806    117.433621    0.00000    0.00000   -0.02083    6    diag
    8      0.175D-04      0.397D-05       -78.02677807    117.433642   -0.00000    0.00000   -0.02113    7    diag
    9      0.105D-04      0.593D-06       -78.02677807    117.433635    0.00000    0.00000   -0.02116    8    diag
   10      0.149D-05      0.542D-07       -78.02677807    117.433637    0.00000    0.00000   -0.02116    0    orth

 Final occupancy:   8

 !RHF STATE  1.1 Energy               -78.026778071212
 Nuclear energy                        33.42147198
 One-electron energy                 -170.16506870
 Two-electron energy                   58.71681865
 Virial quotient                       -0.99992371
 !RHF STATE  1.1 Dipole moment          0.00000000     0.00000000    -0.02115999
 Dipole moment /Debye                   0.00000000     0.00000000    -0.05377982

 ELECTRON ORBITALS
 =================

  Orbital  Occupation    Energy     Coefficients
    1.1     2.00000   -11.23233     1 1s    0.99490
    2.1     2.00000   -11.21635     2 1s    0.99485
    3.1     2.00000    -1.02764     1 1s    0.29039     2 1s    0.31348
    4.1     2.00000    -0.79261     1 1s    0.25071     1 1s    0.25832
    5.1     2.00000    -0.64028     1 2py   0.28517     2 2py   0.35677
    6.1     2.00000    -0.58241     1 2pz   0.41367     2 2pz  -0.39953
    7.1     2.00000    -0.50476     1 2py   0.32795     2 2py  -0.27903
    8.1     2.00000    -0.36933     1 2px   0.37343     1 2px   0.30649     2 2px   0.37333     2 2px   0.30923
    9.1     0.00000     0.17852     1 2px   0.34295     1 2px   0.73372     2 2px  -0.34154     2 2px  -0.73353
   10.1     0.00000     0.26443     1 1s   -1.68568     1 2pz  -0.67242     2 1s   -1.22052     2 2pz   0.58913     3 1s    1.16611
                                    4 1s    1.16611     5 1s    0.85913     6 1s    0.85913
   11.1     0.00000     0.29410     1 2py  -0.28119     1 2py  -0.87998     2 2py  -0.73242     3 1s    1.13400     4 1s   -1.13400
                                    5 1s    1.05931     6 1s   -1.05931
   12.1     0.00000     0.31088     1 1s    1.54516     2 1s   -2.32584     2 2pz   0.28912     3 1s   -0.80955     4 1s   -0.80955
                                    5 1s    1.32807     6 1s    1.32807
   13.1     0.00000     0.39143     1 2py   1.76663     2 2py  -0.26437     2 2py  -1.99255     3 1s   -1.45908     4 1s    1.45908
                                    5 1s    1.81749     6 1s   -1.81749
   14.1     0.00000     0.49081     1 1s   -3.08242     1 2pz   2.91044     2 1s    2.87858     2 2pz   3.00068     3 1s   -0.54240
                                    4 1s   -0.54240     5 1s    0.64834     6 1s    0.64834
   15.1     0.00000     0.66927     1 2pz   0.54844     1 2pz  -1.11266     2 1s   -0.39177     2 2pz  -0.56266     2 2pz   0.96597
   16.1     0.00000     0.76227     1 2py  -0.38406     1 2py   0.54976     2 2py  -0.41158     2 2py   1.00683     3 1s   -0.38780
                                    4 1s    0.38780     5 1s   -0.38438     6 1s    0.38438
   17.1     0.00000     0.77716     1 2px  -0.75086     1 2px   0.65355     2 2px  -0.73018     2 2px   0.62551
   18.1     0.00000     0.86283     1 1s   -0.86405     1 1s    1.24900     1 2pz   0.30121     2 1s   -0.91235     2 1s    1.70466
                                    2 2pz  -0.37873     3 1s   -0.39274     4 1s   -0.39274     5 1s   -0.39630     5 1s   -0.33261
                                    6 1s   -0.39630     6 1s   -0.33261
   19.1     0.00000     0.89040     1 2px  -0.80855     1 2px   1.06582     2 2px   0.82827     2 2px  -1.08195
   20.1     0.00000     0.95419     1 1s   -0.75564     1 2pz   0.60614     1 2pz  -0.46117     2 1s    0.95375     2 2pz   0.59456
                                    2 2pz  -0.47887     3 1s    0.42175     4 1s    0.42175     5 1s   -0.34816     6 1s   -0.34816
   21.1     0.00000     1.10493     1 2py   1.00504     1 2py  -2.07441     2 2py   0.25217     3 1s   -0.43216     3 1s    1.50226
                                    4 1s    0.43216     4 1s   -1.50226     5 1s    0.36885     6 1s   -0.36885
   22.1     0.00000     1.17470     1 2py  -0.56678     1 2py   2.25598     2 2py   1.12444     2 2py  -3.26127     3 1s   -0.88366
                                    4 1s    0.88366     5 1s   -0.29347     5 1s    1.93720     6 1s    0.29347     6 1s   -1.93720
   23.1     0.00000     1.18564     1 1s   -1.15351     1 1s    1.74340     1 2pz  -0.69090     1 2pz   1.13045     2 1s   -0.36570
                                    2 1s    0.72876     2 2pz   0.42386     3 1s    0.61497     3 1s   -1.27613     4 1s    0.61497
                                    4 1s   -1.27613
   24.1     0.00000     1.25765     1 1s   -0.40538     1 1s    1.17623     1 2pz  -0.68360     2 1s   -1.00099     2 1s    1.22010
                                    2 2pz   0.72520     2 2pz  -1.37831     5 1s    0.66850     5 1s   -1.30261     6 1s    0.66850
                                    6 1s   -1.30261
   25.1     0.00000     1.33902     1 1s    1.54257     1 1s   -5.23432     1 2pz  -0.26219     1 2pz   1.90797     2 1s   -1.66389
                                    2 1s    5.53824     2 2pz   1.84170     3 1s    0.27571     4 1s    0.27571     5 1s   -0.44437
                                    6 1s   -0.44437
   26.1     0.00000     1.47523     1 2py   2.51363     2 2py  -2.51206     3 1s   -0.69710     3 1s   -0.61887     4 1s    0.69710
                                    4 1s    0.61887     5 1s    0.69632     5 1s    0.70035     6 1s   -0.69632     6 1s   -0.70035
   27.1     0.00000     1.73894     1 3d1+ -0.61740     2 3d1+  0.62074
   28.1     0.00000     1.82136     1 3d2-  0.66901     2 3d2-  0.69326
   29.1     0.00000     2.12747     1 3d2-  0.74730     2 3d2- -0.72486
   30.1     0.00000     2.20636     1 1s    0.25110     1 1s   -0.64015     1 3d2+  0.77007     2 1s   -0.57012     2 3d2+  0.65144
                                    3 1s    0.37892     4 1s    0.37892     5 1s    0.36726     6 1s    0.36726
   31.1     0.00000     2.33372     1 3d1-  0.74652     2 2py   0.32672     2 2py   0.29320     2 3d1- -0.63340     3 1s   -0.48728
                                    4 1s    0.48728     5 1s   -0.54951     6 1s    0.54951
   32.1     0.00000     2.40702     1 1s   -0.48349     1 2pz   0.29273     1 2pz  -0.43316     1 3d0   0.68382     2 1s   -0.53438
                                    2 2pz  -0.27250     2 2pz   0.45601     2 3d0   0.69476
   33.1     0.00000     2.63183     1 1s   -0.32469     1 1s    1.28682     1 2pz  -0.31842     1 3d2+ -0.71684     2 1s   -1.40634
                                    2 3d2+  0.87690     3 1s   -0.37573     4 1s   -0.37573     5 1s    0.52107     6 1s    0.52107
   34.1     0.00000     2.70788     1 2px  -0.26466     1 3d1+  0.90376     2 2px   0.26422     2 3d1+  0.90150
   35.1     0.00000     3.06185     1 1s    0.31295     1 1s    2.03143     1 2pz  -0.79338     1 2pz  -1.17838     1 3d0   1.11570
                                    2 1s   -0.31823     2 1s   -2.01422     2 2pz  -0.79969     2 2pz  -1.17817     2 3d0  -1.10802
   36.1     0.00000     3.06855     1 2py   0.54128     1 3d1-  0.90562     2 2py  -0.60268     2 3d1-  1.03612     3 1s   -0.41716
                                    4 1s    0.41716     5 1s    0.54951     6 1s   -0.54951


 HOMO      8.1    -0.369332 =     -10.0500eV
 LUMO      9.1     0.178517 =       4.8577eV
 LUMO-HOMO         0.547850 =      14.9077eV


 **********************************************************************************************************************************
 DATASETS  * FILE   NREC   LENGTH (MB)   RECORD NAMES
              1      19       30.63       500      610      700      900      950      970     1000      129      960     1100   
                                          VAR    BASINP    GEOM    SYMINP    ZMAT    AOBASIS   BASIS     P2S    ABASIS      S 
                                         1400     1410     1200     1210     1080     1600     1650     1300     1700   
                                           T        V       H0       H01     AOSYM     SMH    MOLCAS    ERIS     OPER   

              2       4        2.86       700     1000      520     2100   
                                         GEOM     BASIS   MCVARS     RHF  

 PROGRAMS   *        TOTAL    HF-SCF       INT
 CPU TIMES  *         0.46      0.11      0.25
 REAL TIME  *         0.70 SEC
 DISK USED  *        35.45 MB
 **********************************************************************************************************************************


 PROGRAM * MULTI (Direct Multiconfiguration SCF)       Authors: P.J. Knowles, H.-J. Werner (1984)


 Number of closed-shell orbitals:   7 (   7 )
 Number of active  orbitals:        2 (   2 )
 Number of external orbitals:      27 (  27 )

 State symmetry 1

 Number of electrons:     2    Spin symmetry=Singlet   Space symmetry=1
 Number of states:        3
 Number of CSFs:          3   (4 determinants, 4 intermediate states)

 Molecular orbitals read from record     2100.2  Type=RHF/CANONICAL (state 1.1)

 EXTRA SYMMETRY OF MOS IN SYMMETRY 1:   1 1 1 1 1 1 1 2 2 1   1 1 1 1 1 1 2 1 2 1   1 1 1 1 1 1 2 3 3 1   1 1 1 2 1 1

 Wavefunction dump at record             2140.2

 Convergence thresholds  0.10E-01 (gradient)  0.10E-05 (energy)  0.10E-02 (step length)

 Weight factors for state symmetry  1:    0.33333   0.33333   0.33333

 Number of orbital rotations:      257   (    14 Core/Active    189 Core/Virtual   0 Active/Active     54 Active/Virtual)
 Total number of variables:        269

 Micro-Iterations solved by the two-step solver

 ITER. MIC  NCI  NEG     ENERGY(VAR)     ENERGY(PROJ)   ENERGY CHANGE     GRAD(0)  GRAD(ORB)   GRAD(CI)     STEP       TIME

   1    3    3    0     -77.72561361     -77.73185547   -0.00624186    0.13259227 0.00000154 0.00000000  0.63D-01      0.06
   2    2    3    0     -77.73175700     -77.73176076   -0.00000377    0.00304252 0.00000186 0.00000000  0.16D-02      0.09
   3    2    3    0     -77.73176077     -77.73176077   -0.00000000    0.00000216 0.00000000 0.00000000  0.13D-05      0.12

 ** WVFN ****  CONVERGENCE REACHED, FINAL GRADIENT:  0.13D-11



 Results for state 1.1
 =====================

 !MCSCF STATE  1.1 Energy             -78.044469307508
 Nuclear energy                        33.42147198
 Kinetic energy                        78.10086452
 One electron energy                 -170.29694454
 Two electron energy                   58.83100325
 Virial ratio                           1.99927792

 !MCSCF STATE  1.1 Dipole moment        0.00000000    -0.00000000    -0.01396055
 Dipole moment /Debye                   0.00000000    -0.00000000    -0.03548186

 Results for state 2.1
 =====================

 !MCSCF STATE  2.1 Energy             -77.668476825101
 Nuclear energy                        33.42147198
 Kinetic energy                        78.28129660
 One electron energy                 -169.72398800
 Two electron energy                   58.63403920
 Virial ratio                           1.99217157

 !MCSCF STATE  2.1 Dipole moment        0.00000000    -0.00000000    -0.00681329
 Dipole moment /Debye                   0.00000000    -0.00000000    -0.01731651

 Results for state 3.1
 =====================

 !MCSCF STATE  3.1 Energy             -77.482336166652
 Nuclear energy                        33.42147198
 Kinetic energy                        78.46174069
 One electron energy                 -169.15082096
 Two electron energy                   58.24701281
 Virial ratio                           1.98751743

 !MCSCF STATE  3.1 Dipole moment        0.00000000    -0.00000000    -0.03332010
 Dipole moment /Debye                   0.00000000    -0.00000000    -0.08468569

 State-averaged charge density matrix saved on record  2140.2 (density set 1)

 !MCSCF expec         <1.1|DMZ|1.1>    -0.013960553383 au =    -0.035481863268 Debye
 !MCSCF trans         <2.1|DMZ|1.1>    -1.510292886018 au =    -3.838530193245 Debye
 !MCSCF expec         <2.1|DMZ|2.1>    -0.006813285234 au =    -0.017316509486 Debye
 !MCSCF trans         <3.1|DMZ|1.1>    -0.002013518464 au =    -0.005117518257 Debye
 !MCSCF trans         <3.1|DMZ|2.1>    -2.273677096230 au =    -5.778732234235 Debye
 !MCSCF expec         <3.1|DMZ|3.1>    -0.033320097251 au =    -0.084685692771 Debye


 NATURAL ORBITALS (state averaged)
 =================================

  Orbital  Occupation    Energy     Coefficients
    1.1     2.00000   -11.24760     1 1s    0.99513
    2.1     2.00000   -11.23280     2 1s    0.99507
    3.1     2.00000    -1.04233     1 1s    0.29885     2 1s    0.32112
    4.1     2.00000    -0.80054     1 1s    0.25013     1 1s    0.30112     2 1s   -0.27077
    5.1     2.00000    -0.65314     1 2py   0.29081     2 2py   0.36252
    6.1     2.00000    -0.59748     1 2pz   0.41561     2 2pz  -0.40070
    7.1     2.00000    -0.51137     1 2py   0.33459     2 2py  -0.28547
    8.1     1.00000     0.03363     1 2px   0.38083     1 2px   0.68674     2 2px  -0.37960     2 2px  -0.68650
    9.1     1.00000    -0.22545     1 2px   0.35788     1 2px   0.31809     2 2px   0.35810     2 2px   0.32046
   10.1    -0.00000     0.26170     1 1s   -1.69078     1 2pz  -0.67082     2 1s   -1.20810     2 2pz   0.60181     3 1s    1.16439
                                    4 1s    1.16439     5 1s    0.86025     6 1s    0.86025
   11.1    -0.00000     0.28562     1 2py  -0.28001     1 2py  -0.87047     2 2py  -0.72248     3 1s    1.12668     4 1s   -1.12668
                                    5 1s    1.04934     6 1s   -1.04934
   12.1    -0.00000     0.30778     1 1s    1.56881     2 1s   -2.34683     2 2pz   0.27292     3 1s   -0.80479     4 1s   -0.80479
                                    5 1s    1.32237     6 1s    1.32237
   13.1    -0.00000     0.38731     1 2py   1.75236     2 2py  -0.26836     2 2py  -1.97788     3 1s   -1.45189     4 1s    1.45189
                                    5 1s    1.81091     6 1s   -1.81091
   14.1    -0.00000     0.48803     1 1s   -3.05608     1 2pz   2.89293     2 1s    2.86114     2 2pz   2.98126     3 1s   -0.55343
                                    4 1s   -0.55343     5 1s    0.65511     6 1s    0.65511
   15.1    -0.00000     0.65790     1 1s   -0.26422     1 2pz   0.53888     1 2pz  -1.08991     2 1s   -0.29201     2 2pz  -0.55621
                                    2 2pz   0.94161
   16.1    -0.00000     0.75175     1 2py  -0.39623     1 2py   0.55619     2 2py  -0.42211     2 2py   1.01528     3 1s   -0.38255
                                    4 1s    0.38255     5 1s   -0.38026     6 1s    0.38026
   17.1    -0.00000     0.77114     1 2px  -0.75649     1 2px   0.64756     2 2px  -0.73780     2 2px   0.62097
   18.1    -0.00000     0.85991     1 1s   -0.85559     1 1s    1.26286     1 2pz   0.34031     2 1s   -0.90777     2 1s    1.74204
                                    2 2pz  -0.43338     3 1s   -0.38775     4 1s   -0.38775     5 1s   -0.40371     5 1s   -0.34570
                                    6 1s   -0.40371     6 1s   -0.34570
   19.1    -0.00000     0.87278     1 2px  -0.79364     1 2px   1.09694     2 2px   0.81202     2 2px  -1.11177
   20.1    -0.00000     0.93539     1 1s   -0.62119     1 2pz   0.61271     1 2pz  -0.55385     2 1s    0.76679     2 2pz   0.59735
                                    2 2pz  -0.55527     3 1s    0.42568     4 1s    0.42568     5 1s   -0.34383     6 1s   -0.34383
   21.1    -0.00000     1.09022     1 2py   0.98254     1 2py  -2.04245     2 2py   0.26389     3 1s   -0.43339     3 1s    1.49879
                                    4 1s    0.43339     4 1s   -1.49879     5 1s   -0.25303     5 1s    0.40767     6 1s    0.25303
                                    6 1s   -0.40767
   22.1    -0.00000     1.16135     1 2py  -0.58739     1 2py   2.29315     2 2py   1.11225     2 2py  -3.26384     3 1s   -0.91397
                                    4 1s    0.91397     5 1s   -0.29181     5 1s    1.93978     6 1s    0.29181     6 1s   -1.93978
   23.1    -0.00000     1.18325     1 1s   -1.12413     1 1s    1.65173     1 2pz  -0.69847     1 2pz   1.16642     2 1s   -0.39715
                                    2 1s    0.83275     2 2pz   0.44571     3 1s    0.61770     3 1s   -1.27001     4 1s    0.61770
                                    4 1s   -1.27001
   24.1    -0.00000     1.25391     1 1s   -0.48572     1 1s    1.46073     1 2pz  -0.79501     2 1s   -0.89870     2 1s    0.89910
                                    2 2pz   0.74343     2 2pz  -1.48861     5 1s    0.66933     5 1s   -1.27488     6 1s    0.66933
                                    6 1s   -1.27488
   25.1    -0.00000     1.31968     1 1s    1.53969     1 1s   -5.20138     1 2pz   1.84337     2 1s   -1.71363     2 1s    5.59941
                                    2 2pz   1.74918     3 1s    0.30573     4 1s    0.30573     5 1s   -0.52237     6 1s   -0.52237
   26.1    -0.00000     1.46653     1 2py   2.51638     2 2py  -2.52021     3 1s   -0.69778     3 1s   -0.61812     4 1s    0.69778
                                    4 1s    0.61812     5 1s    0.69333     5 1s    0.70545     6 1s   -0.69333     6 1s   -0.70545
   27.1    -0.00000     1.71323     1 3d1+ -0.61675     2 3d1+  0.62086
   28.1    -0.00000     1.80748     1 3d2-  0.66765     2 3d2-  0.69457
   29.1    -0.00000     2.10438     1 3d2-  0.74852     2 3d2- -0.72360
   30.1    -0.00000     2.19097     1 1s   -0.63824     1 3d2+  0.76968     2 1s   -0.56368     2 3d2+  0.65085     3 1s    0.38104
                                    4 1s    0.38104     5 1s    0.36888     6 1s    0.36888
   31.1    -0.00000     2.31754     1 3d1-  0.74450     2 2py   0.33309     2 2py   0.28933     2 3d1- -0.63192     3 1s   -0.49036
                                    4 1s    0.49036     5 1s   -0.55324     6 1s    0.55324
   32.1    -0.00000     2.38691     1 1s   -0.48188     1 2pz   0.29936     1 2pz  -0.43546     1 3d0   0.68307     2 1s   -0.53211
                                    2 2pz  -0.27765     2 2pz   0.45931     2 3d0   0.69511
   33.1    -0.00000     2.61205     1 1s   -0.32558     1 1s    1.29265     1 2pz  -0.31709     1 3d2+ -0.71622     2 1s   -1.41195
                                    2 3d2+  0.87604     3 1s   -0.37851     4 1s   -0.37851     5 1s    0.52449     6 1s    0.52449
   34.1    -0.00000     2.68535     1 2px  -0.26544     1 3d1+  0.90440     2 2px   0.26497     2 3d1+  0.90164
   35.1    -0.00000     3.04382     1 1s    0.30554     1 1s    2.05714     1 2pz  -0.78577     1 2pz  -1.19203     1 3d0   1.11774
                                    2 1s   -0.31145     2 1s   -2.03996     2 2pz  -0.79221     2 2pz  -1.19138     2 3d0  -1.10927
   36.1    -0.00000     3.05571     1 2py   0.54167     1 3d1-  0.90571     2 2py  -0.60244     2 3d1-  1.03528     3 1s   -0.41944
                                    4 1s    0.41944     5 1s    0.55180     6 1s   -0.55180


 Natural orbital dump (state averaged) at molpro section  2140.2    (Orbital set 2)



 **********************************************************************************************************************************
 DATASETS  * FILE   NREC   LENGTH (MB)   RECORD NAMES
              1      20       31.36       500      610      700      900      950      970     1000      129      960     1100   
                                          VAR    BASINP    GEOM    SYMINP    ZMAT    AOBASIS   BASIS     P2S    ABASIS      S 
                                         1400     1410     1200     1210     1080     1600     1650     1300     1700     1380   
                                           T        V       H0       H01     AOSYM     SMH    MOLCAS    ERIS     OPER     JKOP   

              2       5        5.42       700     1000      520     2100     2140   
                                         GEOM     BASIS   MCVARS     RHF     MCSCF   

 PROGRAMS   *        TOTAL     MULTI    HF-SCF       INT
 CPU TIMES  *         0.62      0.16      0.11      0.25
 REAL TIME  *         0.89 SEC
 DISK USED  *        38.55 MB
 **********************************************************************************************************************************
 Molecular orbitals read from record     2140.2  Type=MCSCF/NATURAL (state averaged)
 Occupation numbers read from record     2140.2  Type=MCSCF/NATURAL (state averaged)
 Orbital energies read from record       2140.2  Type=MCSCF/NATURAL (state averaged)
 Redundancy group numbers read from rec  2140.2  Type=MCSCF/NATURAL (state averaged)

 MULTI/6-31G* energy=    -77.482336166652

           MULTI          HF-SCF
    -77.48233617    -78.02677807
 **********************************************************************************************************************************
 Molpro calculation terminated
