
 Primary working directories    : /scratch.local/johan406.molpro_temp/molpro.0TgOQ6Dsuq
 Secondary working directories  : /scratch.local/johan406.molpro_temp/molpro.0TgOQ6Dsuq
 Wavefunction directory         : /home/goodpast/johan406/wfu/
 Main file repository           : /scratch.local/johan406.molpro_temp/molpro.0TgOQ6Dsuq/

 id        : roweumn

 Nodes     nprocs
 cn0117       1

 Using customized tuning parameters: mindgm=1; mindgv=20; mindgc=4; mindgr=1; noblas=0; minvec=7
 default implementation of scratch files=df  


 Variables initialized (934), CPU time= 0.00 sec
                                                                                 !leave this line blank
 
 gprint, orbitals=30
 memory, 125., m
 symmetry, nosym
 nelect=16
 basis=6-31g*
 
 geometry={
 C -0.0 0.0 0.6659
 C 0.0 0.0 -0.6723
 H 0.0 0.9493 1.2548
 H 0.0 -0.9493 1.2548
 H 0.0 0.8805 -1.2148
 H -0.0 -0.8805 -1.2148
 }
 
 hf
 {multi,
 closed 7
 occ 9
 wf,spin=0;STATE,3
 }
 
 Commands  initialized (763), CPU time= 0.01 sec, 617 directives.
 Default parameters read. Elapsed time= 0.08 sec

 Checking input...
 Passed
1


                                         ***  PROGRAM SYSTEM MOLPRO  ***
                                       Copyright, TTI GmbH Stuttgart, 2015
                                    Version 2019.2 linked Oct 25 2019 22:50:27


 **********************************************************************************************************************************
 LABEL *                                                                                 
  64 bit serial version                                                                  DATE: 26-Jan-23          TIME: 20:42:23  
 **********************************************************************************************************************************

 SHA1:             8dbd9ae1082e4ce945b0f27595c9eb2d4aa09004
 **********************************************************************************************************************************


 Variable memory set to  125000000 words,  buffer space 

 SETTING NELECT         =        16.00000000                                  
 SETTING BASIS          =    6-31G*
 ZSYMEL=NOSYM


Geometry recognized as XYZ



 Recomputing integrals since basis changed


 Using spherical harmonics

 Library entry C      S 6-31G                selected for orbital group  1
 Library entry C      P 6-31G                selected for orbital group  1
 Library entry C      D 6-31G*               selected for orbital group  1
 Library entry H      S 6-31G                selected for orbital group  2


 PROGRAM * SEWARD (Integral evaluation for generally contracted gaussian basis sets)     Author: Roland Lindh, 1990

 Geometry written to block  1 of record 700


 Point group  C1  



 ATOMIC COORDINATES

 NR  ATOM    CHARGE       X              Y              Z

   1  C       6.00    0.000000000    0.000000000    1.258368626
   2  C       6.00    0.000000000    0.000000000   -1.270462874
   3  H       1.00    0.000000000    1.793917010    2.371228341
   4  H       1.00    0.000000000   -1.793917010    2.371228341
   5  H       1.00    0.000000000    1.663903853   -2.295639296
   6  H       1.00    0.000000000   -1.663903853   -2.295639296

 Bond lengths in Bohr (Angstrom)

 1-2  2.528831500  1-3  2.111064893  1-4  2.111064893  2-5  1.954370162  2-6  1.954370162
     ( 1.338200000)     ( 1.117127432)     ( 1.117127432)     ( 1.034208151)     ( 1.034208151)

 Bond angles

  1-2-5  121.63835228   1-2-6  121.63835228   2-1-3  121.81347196   2-1-4  121.81347196

  3-1-4  116.37305608   5-2-6  116.72329544

 NUCLEAR CHARGE:                   16
 NUMBER OF PRIMITIVE AOS:          72
 NUMBER OF SYMMETRY AOS:           70
 NUMBER OF CONTRACTIONS:           36   (   36A   )
 NUMBER OF CORE ORBITALS:           2   (    2A   )
 NUMBER OF VALENCE ORBITALS:       12   (   12A   )


 NUCLEAR REPULSION ENERGY   33.42609582

 EXTRA SYMMETRY OF AOS IN SYMMETRY 1:   1 1 1 2 1 1 2 1 1 1   3 2 1 1 1 1 1 2 1 1   2 1 1 1 3 2 1 1 1 1   1 1 1 1 1 1

 Eigenvalues of metric

         1 0.831E-02 0.170E-01 0.358E-01 0.482E-01 0.712E-01 0.192E+00 0.208E+00 0.225E+00


 Contracted 2-electron integrals neglected if value below      1.0D-11
 AO integral compression algorithm  1   Integral accuracy      1.0D-11

     0.786 MB (compressed) written to integral file ( 37.9%)


 NUMBER OF SORTED TWO-ELECTRON INTEGRALS:     222111.     BUFFER LENGTH:  32768
 NUMBER OF SEGMENTS:   1  SEGMENT LENGTH:     222111      RECORD LENGTH: 524288

 Memory used in sort:       0.78 MW

 SORT1 READ      284735. AND WROTE       98531. INTEGRALS IN      1 RECORDS. CPU TIME:     0.01 SEC, REAL TIME:     0.01 SEC
 SORT2 READ       98531. AND WROTE      222111. INTEGRALS IN      3 RECORDS. CPU TIME:     0.02 SEC, REAL TIME:     0.02 SEC

 FILE SIZES:   FILE 1:    30.9 MBYTE,  FILE 4:     4.2 MBYTE,   TOTAL:     35.1 MBYTE

 OPERATOR DM      FOR CENTER  0  COORDINATES:    0.000000    0.000000    0.000000


 **********************************************************************************************************************************
 DATASETS  * FILE   NREC   LENGTH (MB)   RECORD NAMES
              1      19       30.63       500      610      700      900      950      970     1000      129      960     1100   
                                          VAR    BASINP    GEOM    SYMINP    ZMAT    AOBASIS   BASIS     P2S    ABASIS      S 
                                         1400     1410     1200     1210     1080     1600     1650     1300     1700   
                                           T        V       H0       H01     AOSYM     SMH    MOLCAS    ERIS     OPER   

 PROGRAMS   *        TOTAL       INT
 CPU TIMES  *         0.35      0.25
 REAL TIME  *         0.56 SEC
 DISK USED  *        35.45 MB
 **********************************************************************************************************************************


 PROGRAM * RHF-SCF (CLOSED SHELL)       Authors: W. Meyer, H.-J. Werner


 NUMBER OF ELECTRONS:       8+    8-    SPACE SYMMETRY=1    SPIN SYMMETRY: Singlet 
 CONVERGENCE THRESHOLDS:    1.00E-05 (Density)    1.00E-07 (Energy)
 MAX. NUMBER OF ITERATIONS:       60
 INTERPOLATION TYPE:            DIIS
 INTERPOLATION STEPS:              2 (START)      1 (STEP)
 LEVEL SHIFTS:                  0.00 (CLOSED)  0.00 (OPEN) 



 Orbital guess generated from atomic densities. Full valence occupancy:    8

 Molecular orbital dump at record        2100.2

 Initial occupancy:   8

 ITERATION    DDIFF          GRAD             ENERGY        2-EL.EN.            DIPOLE MOMENTS         DIIS   ORB.
    1      0.000D+00      0.000D+00       -78.00085319    118.754930    0.00000   -0.00000    0.12813    0    start
    2      0.000D+00      0.873D-02       -78.02332352    116.906970    0.00000    0.00000   -0.03266    1    diag
    3      0.845D-02      0.305D-02       -78.02560354    117.526095    0.00000    0.00000    0.00446    2    diag
    4      0.271D-02      0.757D-03       -78.02583397    117.443962    0.00000    0.00000   -0.02385    3    diag
    5      0.111D-02      0.165D-03       -78.02584066    117.437261    0.00000   -0.00000   -0.01966    4    diag
    6      0.167D-03      0.409D-04       -78.02584158    117.439825    0.00000    0.00000   -0.02260    5    diag
    7      0.783D-04      0.119D-04       -78.02584165    117.439483    0.00000    0.00000   -0.02313    6    diag
    8      0.196D-04      0.423D-05       -78.02584166    117.439505    0.00000    0.00000   -0.02345    7    diag
    9      0.113D-04      0.582D-06       -78.02584166    117.439499    0.00000   -0.00000   -0.02348    8    diag
   10      0.144D-05      0.553D-07       -78.02584166    117.439501    0.00000    0.00000   -0.02348    0    orth

 Final occupancy:   8

 !RHF STATE  1.1 Energy               -78.025841663762
 Nuclear energy                        33.42609582
 One-electron energy                 -170.17168783
 Two-electron energy                   58.71975035
 Virial quotient                       -0.99987908
 !RHF STATE  1.1 Dipole moment          0.00000000     0.00000000    -0.02347877
 Dipole moment /Debye                   0.00000000     0.00000000    -0.05967318

 ELECTRON ORBITALS
 =================

  Orbital  Occupation    Energy     Coefficients
    1.1     2.00000   -11.23321     1 1s    0.99514
    2.1     2.00000   -11.21549     2 1s    0.99507
    3.1     2.00000    -1.02785     1 1s    0.28908     2 1s    0.31470
    4.1     2.00000    -0.79268     1 1s    0.25198     1 1s    0.26002
    5.1     2.00000    -0.64065     1 2py   0.28114     2 2py   0.36045
    6.1     2.00000    -0.58234     1 2pz   0.41429     2 2pz  -0.39861
    7.1     2.00000    -0.50449     1 2py   0.33010     2 2py  -0.27597
    8.1     2.00000    -0.36938     1 2px   0.37347     1 2px   0.30630     2 2px   0.37336     2 2px   0.30934
    9.1     0.00000     0.17852     1 2px   0.34306     1 2px   0.73374     2 2px  -0.34151     2 2px  -0.73351
   10.1     0.00000     0.26395     1 1s   -1.69779     1 2pz  -0.67311     2 1s   -1.18969     2 2pz   0.58151     3 1s    1.17444
                                    4 1s    1.17444     5 1s    0.83852     6 1s    0.83852
   11.1     0.00000     0.29394     1 2py  -0.28431     1 2py  -0.88686     2 2py  -0.72344     3 1s    1.13646     4 1s   -1.13646
                                    5 1s    1.05381     6 1s   -1.05381
   12.1     0.00000     0.31115     1 1s    1.50588     2 1s   -2.36447     2 2pz   0.30202     3 1s   -0.78224     4 1s   -0.78224
                                    5 1s    1.35227     6 1s    1.35227
   13.1     0.00000     0.39146     1 2py   1.75400     2 2py  -0.26604     2 2py  -2.00477     3 1s   -1.44038     4 1s    1.44038
                                    5 1s    1.83825     6 1s   -1.83825
   14.1     0.00000     0.49086     1 1s   -3.09290     1 2pz   2.90586     2 1s    2.86656     2 2pz   3.00606     3 1s   -0.53733
                                    4 1s   -0.53733     5 1s    0.65487     6 1s    0.65487
   15.1     0.00000     0.66923     1 2pz   0.54749     1 2pz  -1.12115     2 1s   -0.40800     2 2pz  -0.56334     2 2pz   0.95767
   16.1     0.00000     0.76226     1 2py  -0.38240     1 2py   0.52584     2 2py  -0.41287     2 2py   1.03330     3 1s   -0.38794
                                    4 1s    0.38794     5 1s   -0.38410     6 1s    0.38410
   17.1     0.00000     0.77711     1 2px  -0.75193     1 2px   0.65507     2 2px  -0.72901     2 2px   0.62398
   18.1     0.00000     0.86291     1 1s   -0.86143     1 1s    1.22611     1 2pz   0.29775     2 1s   -0.91504     2 1s    1.73292
                                    2 2pz  -0.38320     3 1s   -0.39233     4 1s   -0.39233     5 1s   -0.39635     5 1s   -0.34445
                                    6 1s   -0.39635     6 1s   -0.34445
   19.1     0.00000     0.89039     1 2px  -0.80745     1 2px   1.06500     2 2px   0.82931     2 2px  -1.08289
   20.1     0.00000     0.95423     1 1s   -0.74255     1 2pz   0.60616     1 2pz  -0.46005     2 1s    0.96228     2 2pz   0.59326
                                    2 2pz  -0.47946     3 1s    0.42610     4 1s    0.42610     5 1s   -0.34431     6 1s   -0.34431
   21.1     0.00000     1.10273     1 2py   1.01703     1 2py  -2.11077     3 1s   -0.43286     3 1s    1.51280     4 1s    0.43286
                                    4 1s   -1.51280     5 1s    0.32671     6 1s   -0.32671
   22.1     0.00000     1.17725     1 2py  -0.54456     1 2py   2.21229     2 2py   1.12939     2 2py  -3.27384     3 1s   -0.84322
                                    4 1s    0.84322     5 1s   -0.29832     5 1s    1.95968     6 1s    0.29832     6 1s   -1.95968
   23.1     0.00000     1.18214     1 1s   -1.15466     1 1s    1.75012     1 2pz  -0.69188     1 2pz   1.12682     2 1s   -0.35763
                                    2 1s    0.70291     2 2pz   0.42600     3 1s    0.61208     3 1s   -1.27403     4 1s    0.61208
                                    4 1s   -1.27403
   24.1     0.00000     1.26196     1 1s   -0.42659     1 1s    1.24534     1 2pz  -0.69894     2 1s   -0.98588     2 1s    1.16520
                                    2 2pz   0.72720     2 2pz  -1.39864     5 1s    0.67110     5 1s   -1.30019     6 1s    0.67110
                                    6 1s   -1.30019
   25.1     0.00000     1.33923     1 1s    1.53558     1 1s   -5.21247     1 2pz  -0.26106     1 2pz   1.90354     2 1s   -1.67533
                                    2 1s    5.55872     2 2pz   1.82747     3 1s    0.27044     4 1s    0.27044     5 1s   -0.46206
                                    6 1s   -0.46206
   26.1     0.00000     1.47543     1 2py   2.50732     2 2py  -2.50539     3 1s   -0.69688     3 1s   -0.61198     4 1s    0.69688
                                    4 1s    0.61198     5 1s    0.69617     5 1s    0.70196     6 1s   -0.69617     6 1s   -0.70196
   27.1     0.00000     1.73892     1 3d1+ -0.61721     2 3d1+  0.62091
   28.1     0.00000     1.82123     1 3d2-  0.66763     2 3d2-  0.69457
   29.1     0.00000     2.12745     1 3d2-  0.74853     2 3d2- -0.72361
   30.1     0.00000     2.20581     1 1s    0.25495     1 1s   -0.64280     1 3d2+  0.77593     2 1s   -0.56577     2 3d2+  0.64438
                                    3 1s    0.37912     4 1s    0.37912     5 1s    0.36628     6 1s    0.36628
   31.1     0.00000     2.33376     1 3d1-  0.75214     2 2py   0.33231     2 2py   0.30370     2 3d1- -0.62664     3 1s   -0.48351
                                    4 1s    0.48351     5 1s   -0.55275     6 1s    0.55275
   32.1     0.00000     2.40695     1 1s   -0.48111     1 2pz   0.29402     1 2pz  -0.43145     1 3d0   0.68327     2 1s   -0.53733
                                    2 2pz  -0.27161     2 2pz   0.45646     2 3d0   0.69541
   33.1     0.00000     2.63288     1 1s   -0.32758     1 1s    1.28005     1 2pz  -0.32323     1 3d2+ -0.70760     2 1s   -1.41235
                                    2 3d2+  0.88500     3 1s   -0.36841     4 1s   -0.36841     5 1s    0.52971     6 1s    0.52971
   34.1     0.00000     2.70794     1 2px  -0.26469     1 3d1+  0.90395     2 2px   0.26421     2 3d1+  0.90144
   35.1     0.00000     3.06191     1 1s    0.31299     1 1s    2.03224     1 2pz  -0.79335     1 2pz  -1.17837     1 3d0   1.11618
                                    2 1s   -0.31882     2 1s   -2.01316     2 2pz  -0.80037     2 2pz  -1.17813     2 3d0  -1.10766
   36.1     0.00000     3.06948     1 2py   0.53853     1 3d1-  0.89847     2 2py  -0.60674     2 3d1-  1.04323     3 1s   -0.41076
                                    4 1s    0.41076     5 1s    0.55768     6 1s   -0.55768


 HOMO      8.1    -0.369385 =     -10.0515eV
 LUMO      9.1     0.178523 =       4.8579eV
 LUMO-HOMO         0.547908 =      14.9093eV


 **********************************************************************************************************************************
 DATASETS  * FILE   NREC   LENGTH (MB)   RECORD NAMES
              1      19       30.63       500      610      700      900      950      970     1000      129      960     1100   
                                          VAR    BASINP    GEOM    SYMINP    ZMAT    AOBASIS   BASIS     P2S    ABASIS      S 
                                         1400     1410     1200     1210     1080     1600     1650     1300     1700   
                                           T        V       H0       H01     AOSYM     SMH    MOLCAS    ERIS     OPER   

              2       4        2.86       700     1000      520     2100   
                                         GEOM     BASIS   MCVARS     RHF  

 PROGRAMS   *        TOTAL    HF-SCF       INT
 CPU TIMES  *         0.47      0.12      0.25
 REAL TIME  *         0.70 SEC
 DISK USED  *        35.45 MB
 **********************************************************************************************************************************


 PROGRAM * MULTI (Direct Multiconfiguration SCF)       Authors: P.J. Knowles, H.-J. Werner (1984)


 Number of closed-shell orbitals:   7 (   7 )
 Number of active  orbitals:        2 (   2 )
 Number of external orbitals:      27 (  27 )

 State symmetry 1

 Number of electrons:     2    Spin symmetry=Singlet   Space symmetry=1
 Number of states:        3
 Number of CSFs:          3   (4 determinants, 4 intermediate states)

 Molecular orbitals read from record     2100.2  Type=RHF/CANONICAL (state 1.1)

 EXTRA SYMMETRY OF MOS IN SYMMETRY 1:   1 1 1 1 1 1 1 2 2 1   1 1 1 1 1 1 2 1 2 1   1 1 1 1 1 1 2 3 3 1   1 1 1 2 1 1

 Wavefunction dump at record             2140.2

 Convergence thresholds  0.10E-01 (gradient)  0.10E-05 (energy)  0.10E-02 (step length)

 Weight factors for state symmetry  1:    0.33333   0.33333   0.33333

 Number of orbital rotations:      257   (    14 Core/Active    189 Core/Virtual   0 Active/Active     54 Active/Virtual)
 Total number of variables:        269

 Micro-Iterations solved by the two-step solver

 ITER. MIC  NCI  NEG     ENERGY(VAR)     ENERGY(PROJ)   ENERGY CHANGE     GRAD(0)  GRAD(ORB)   GRAD(CI)     STEP       TIME

   1    3    3    0     -77.72463207     -77.73087517   -0.00624309    0.13260691 0.00000154 0.00000000  0.63D-01      0.06
   2    2    3    0     -77.73077665     -77.73078042   -0.00000377    0.00304338 0.00000186 0.00000000  0.16D-02      0.09
   3    2    3    0     -77.73078042     -77.73078042   -0.00000000    0.00000216 0.00000000 0.00000000  0.13D-05      0.13

 ** WVFN ****  CONVERGENCE REACHED, FINAL GRADIENT:  0.13D-11



 Results for state 1.1
 =====================

 !MCSCF STATE  1.1 Energy             -78.043530433051
 Nuclear energy                        33.42609582
 Kinetic energy                        78.10341633
 One electron energy                 -170.30362243
 Two electron energy                   58.83399618
 Virial ratio                           1.99923325

 !MCSCF STATE  1.1 Dipole moment        0.00000000    -0.00000000    -0.01547993
 Dipole moment /Debye                   0.00000000    -0.00000000    -0.03934348

 Results for state 2.1
 =====================

 !MCSCF STATE  2.1 Energy             -77.667495685045
 Nuclear energy                        33.42609582
 Kinetic energy                        78.28386408
 One electron energy                 -169.73055758
 Two electron energy                   58.63696607
 Virial ratio                           1.99212649

 !MCSCF STATE  2.1 Dipole moment        0.00000000    -0.00000000    -0.00752152
 Dipole moment /Debye                   0.00000000    -0.00000000    -0.01911655

 Results for state 3.1
 =====================

 !MCSCF STATE  3.1 Energy             -77.481315135852
 Nuclear energy                        33.42609582
 Kinetic energy                        78.46432656
 One electron energy                 -169.15723246
 Two electron energy                   58.24982150
 Virial ratio                           1.98747187

 !MCSCF STATE  3.1 Dipole moment        0.00000000    -0.00000000    -0.03702681
 Dipole moment /Debye                   0.00000000    -0.00000000    -0.09410661

 State-averaged charge density matrix saved on record  2140.2 (density set 1)

 !MCSCF expec         <1.1|DMZ|1.1>    -0.015479929158 au =    -0.039343478350 Debye
 !MCSCF trans         <2.1|DMZ|1.1>    -1.510244843751 au =    -3.838408089981 Debye
 !MCSCF expec         <2.1|DMZ|2.1>    -0.007521520915 au =    -0.019116547126 Debye
 !MCSCF trans         <3.1|DMZ|1.1>    -0.002242790721 au =    -0.005700232039 Debye
 !MCSCF trans         <3.1|DMZ|2.1>    -2.273479381683 au =    -5.778229726897 Debye
 !MCSCF expec         <3.1|DMZ|3.1>    -0.037026813377 au =    -0.094106608342 Debye


 NATURAL ORBITALS (state averaged)
 =================================

  Orbital  Occupation    Energy     Coefficients
    1.1     2.00000   -11.24841     1 1s    0.99532
    2.1     2.00000   -11.23200     2 1s    0.99525
    3.1     2.00000    -1.04253     1 1s    0.29759     2 1s    0.32231
    4.1     2.00000    -0.80064     1 1s    0.25132     1 1s    0.30251     2 1s   -0.26882
    5.1     2.00000    -0.65352     1 2py   0.28677     2 2py   0.36621
    6.1     2.00000    -0.59739     1 2pz   0.41624     2 2pz  -0.39970
    7.1     2.00000    -0.51110     1 2py   0.33677     2 2py  -0.28240
    8.1     1.00000     0.03363     1 2px   0.38095     1 2px   0.68675     2 2px  -0.37957     2 2px  -0.68647
    9.1     1.00000    -0.22550     1 2px   0.35790     1 2px   0.31792     2 2px   0.35815     2 2px   0.32055
   10.1    -0.00000     0.26124     1 1s   -1.70382     1 2pz  -0.67074     2 1s   -1.17648     2 2pz   0.59483     3 1s    1.17261
                                    4 1s    1.17261     5 1s    0.83981     6 1s    0.83981
   11.1    -0.00000     0.28546     1 2py  -0.28317     1 2py  -0.87734     2 2py  -0.71348     3 1s    1.12925     4 1s   -1.12925
                                    5 1s    1.04368     6 1s   -1.04368
   12.1    -0.00000     0.30804     1 1s    1.52929     2 1s   -2.38495     2 2pz   0.28640     3 1s   -0.77759     4 1s   -0.77759
                                    5 1s    1.34658     6 1s    1.34658
   13.1    -0.00000     0.38734     1 2py   1.73974     2 2py  -0.27007     2 2py  -1.99006     3 1s   -1.43315     4 1s    1.43315
                                    5 1s    1.83167     6 1s   -1.83167
   14.1    -0.00000     0.48808     1 1s   -3.06622     1 2pz   2.88843     2 1s    2.84978     2 2pz   2.98650     3 1s   -0.54851
                                    4 1s   -0.54851     5 1s    0.66131     6 1s    0.66131
   15.1    -0.00000     0.65785     1 1s   -0.26521     1 2pz   0.53774     1 2pz  -1.09847     2 1s   -0.30695     2 2pz  -0.55705
                                    2 2pz   0.93323
   16.1    -0.00000     0.75174     1 2py  -0.39467     1 2py   0.53220     2 2py  -0.42331     2 2py   1.04191     3 1s   -0.38262
                                    4 1s    0.38262     5 1s   -0.38003     6 1s    0.38003
   17.1    -0.00000     0.77110     1 2px  -0.75746     1 2px   0.64900     2 2px  -0.73675     2 2px   0.61954
   18.1    -0.00000     0.85997     1 1s   -0.85279     1 1s    1.23896     1 2pz   0.33592     2 1s   -0.91070     2 1s    1.77182
                                    2 2pz  -0.43864     3 1s   -0.38653     4 1s   -0.38653     5 1s   -0.40432     5 1s   -0.35784
                                    6 1s   -0.40432     6 1s   -0.35784
   19.1    -0.00000     0.87276     1 2px  -0.79262     1 2px   1.09621     2 2px   0.81299     2 2px  -1.11264
   20.1    -0.00000     0.93547     1 1s   -0.61044     1 2pz   0.61296     1 2pz  -0.55368     2 1s    0.77171     2 2pz   0.59587
                                    2 2pz  -0.55497     3 1s    0.43041     4 1s    0.43041     5 1s   -0.33945     6 1s   -0.33945
   21.1    -0.00000     1.08814     1 2py   0.99531     1 2py  -2.08145     3 1s   -0.43428     3 1s    1.51076     4 1s    0.43428
                                    4 1s   -1.51076     5 1s    0.36444     6 1s   -0.36444
   22.1    -0.00000     1.16381     1 2py  -0.56515     1 2py   2.24813     2 2py   1.11762     2 2py  -3.27674     3 1s   -0.87247
                                    4 1s    0.87247     5 1s   -0.29714     5 1s    1.96312     6 1s    0.29714     6 1s   -1.96312
   23.1    -0.00000     1.17979     1 1s   -1.12586     1 1s    1.66005     1 2pz  -0.69937     1 2pz   1.16244     2 1s   -0.38769
                                    2 1s    0.80415     2 2pz   0.44778     3 1s    0.61501     3 1s   -1.26828     4 1s    0.61501
                                    4 1s   -1.26828
   24.1    -0.00000     1.25806     1 1s   -0.51644     1 1s    1.56009     1 2pz  -0.81991     2 1s   -0.87313     2 1s    0.81104
                                    2 2pz   0.74594     2 2pz  -1.51789     5 1s    0.67148     5 1s   -1.26828     6 1s    0.67148
                                    6 1s   -1.26828
   25.1    -0.00000     1.31999     1 1s    1.52797     1 1s   -5.16578     1 2pz   1.83395     2 1s   -1.72965     2 1s    5.62259
                                    2 2pz   1.72504     3 1s    0.29970     4 1s    0.29970     5 1s   -0.54759     6 1s   -0.54759
   26.1    -0.00000     1.46670     1 2py   2.51020     2 2py  -2.51429     3 1s   -0.69777     3 1s   -0.61109     4 1s    0.69777
                                    4 1s    0.61109     5 1s    0.69298     5 1s    0.70762     6 1s   -0.69298     6 1s   -0.70762
   27.1    -0.00000     1.71321     1 3d1+ -0.61651     2 3d1+  0.62107
   28.1    -0.00000     1.80735     1 3d2-  0.66612     2 3d2-  0.69603
   29.1    -0.00000     2.10436     1 3d2-  0.74988     2 3d2- -0.72221
   30.1    -0.00000     2.19042     1 1s    0.25195     1 1s   -0.64112     1 3d2+  0.77554     2 1s   -0.55907     2 3d2+  0.64378
                                    3 1s    0.38127     4 1s    0.38127     5 1s    0.36787     6 1s    0.36787
   31.1    -0.00000     2.31759     1 3d1-  0.75010     2 2py   0.33862     2 2py   0.29991     2 3d1- -0.62520     3 1s   -0.48656
                                    4 1s    0.48656     5 1s   -0.55652     6 1s    0.55652
   32.1    -0.00000     2.38685     1 1s   -0.47953     1 2pz   0.30074     1 2pz  -0.43369     1 3d0   0.68248     2 1s   -0.53501
                                    2 2pz  -0.27668     2 2pz   0.45981     2 3d0   0.69582
   33.1    -0.00000     2.61310     1 1s   -0.32848     1 1s    1.28585     1 2pz  -0.32189     1 3d2+ -0.70700     2 1s   -1.41789
                                    2 3d2+  0.88413     3 1s   -0.37116     4 1s   -0.37116     5 1s    0.53316     6 1s    0.53316
   34.1    -0.00000     2.68540     1 2px  -0.26547     1 3d1+  0.90461     2 2px   0.26495     2 3d1+  0.90155
   35.1    -0.00000     3.04387     1 1s    0.30555     1 1s    2.05796     1 2pz  -0.78573     1 2pz  -1.19205     1 3d0   1.11826
                                    2 1s   -0.31207     2 1s   -2.03891     2 2pz  -0.79290     2 2pz  -1.19131     2 3d0  -1.10887
   36.1    -0.00000     3.05664     1 2py   0.53894     1 3d1-  0.89862     2 2py  -0.60646     2 3d1-  1.04235     3 1s   -0.41303
                                    4 1s    0.41303     5 1s    0.55997     6 1s   -0.55997


 Natural orbital dump (state averaged) at molpro section  2140.2    (Orbital set 2)



 **********************************************************************************************************************************
 DATASETS  * FILE   NREC   LENGTH (MB)   RECORD NAMES
              1      20       31.36       500      610      700      900      950      970     1000      129      960     1100   
                                          VAR    BASINP    GEOM    SYMINP    ZMAT    AOBASIS   BASIS     P2S    ABASIS      S 
                                         1400     1410     1200     1210     1080     1600     1650     1300     1700     1380   
                                           T        V       H0       H01     AOSYM     SMH    MOLCAS    ERIS     OPER     JKOP   

              2       5        5.42       700     1000      520     2100     2140   
                                         GEOM     BASIS   MCVARS     RHF     MCSCF   

 PROGRAMS   *        TOTAL     MULTI    HF-SCF       INT
 CPU TIMES  *         0.64      0.16      0.12      0.25
 REAL TIME  *         0.90 SEC
 DISK USED  *        38.55 MB
 **********************************************************************************************************************************
 Molecular orbitals read from record     2140.2  Type=MCSCF/NATURAL (state averaged)
 Occupation numbers read from record     2140.2  Type=MCSCF/NATURAL (state averaged)
 Orbital energies read from record       2140.2  Type=MCSCF/NATURAL (state averaged)
 Redundancy group numbers read from rec  2140.2  Type=MCSCF/NATURAL (state averaged)

 MULTI/6-31G* energy=    -77.481315135852

           MULTI          HF-SCF
    -77.48131514    -78.02584166
 **********************************************************************************************************************************
 Molpro calculation terminated
