
 Primary working directories    : /scratch.local/johan406.molpro_temp/molpro.1weizuUSU5
 Secondary working directories  : /scratch.local/johan406.molpro_temp/molpro.1weizuUSU5
 Wavefunction directory         : /home/goodpast/johan406/wfu/
 Main file repository           : /scratch.local/johan406.molpro_temp/molpro.1weizuUSU5/

 id        : roweumn

 Nodes     nprocs
 cn0117       1

 Using customized tuning parameters: mindgm=1; mindgv=20; mindgc=4; mindgr=1; noblas=0; minvec=7
 default implementation of scratch files=df  


 Variables initialized (934), CPU time= 0.00 sec
                                                                                 !leave this line blank
 
 gprint, orbitals=30
 memory, 125., m
 symmetry, nosym
 nelect=16
 basis=6-31g*
 
 geometry={
 C -0.0 0.0 0.6568
 C 0.0 0.0 -0.6815
 H 0.0 1.0473 1.3118
 H 0.0 -1.0473 1.3118
 H 0.0 0.7825 -1.1578
 H -0.0 -0.7825 -1.1578
 }
 
 hf
 {multi,
 closed 7
 occ 9
 wf,spin=0;STATE,3
 }
 
 Commands  initialized (763), CPU time= 0.01 sec, 617 directives.
 Default parameters read. Elapsed time= 0.08 sec

 Checking input...
 Passed
1


                                         ***  PROGRAM SYSTEM MOLPRO  ***
                                       Copyright, TTI GmbH Stuttgart, 2015
                                    Version 2019.2 linked Oct 25 2019 22:50:27


 **********************************************************************************************************************************
 LABEL *                                                                                 
  64 bit serial version                                                                  DATE: 26-Jan-23          TIME: 20:47:53  
 **********************************************************************************************************************************

 SHA1:             8dbd9ae1082e4ce945b0f27595c9eb2d4aa09004
 **********************************************************************************************************************************


 Variable memory set to  125000000 words,  buffer space 

 SETTING NELECT         =        16.00000000                                  
 SETTING BASIS          =    6-31G*
 ZSYMEL=NOSYM


Geometry recognized as XYZ



 Recomputing integrals since basis changed


 Using spherical harmonics

 Library entry C      S 6-31G                selected for orbital group  1
 Library entry C      P 6-31G                selected for orbital group  1
 Library entry C      D 6-31G*               selected for orbital group  1
 Library entry H      S 6-31G                selected for orbital group  2


 PROGRAM * SEWARD (Integral evaluation for generally contracted gaussian basis sets)     Author: Roland Lindh, 1990

 Geometry written to block  1 of record 700


 Point group  C1  



 ATOMIC COORDINATES

 NR  ATOM    CHARGE       X              Y              Z

   1  C       6.00    0.000000000    0.000000000    1.241172119
   2  C       6.00    0.000000000    0.000000000   -1.287848354
   3  H       1.00    0.000000000    1.979110170    2.478942730
   4  H       1.00    0.000000000   -1.979110170    2.478942730
   5  H       1.00    0.000000000    1.478710692   -2.187924907
   6  H       1.00    0.000000000   -1.478710692   -2.187924907

 Bond lengths in Bohr (Angstrom)

 1-2  2.529020473  1-3  2.334299285  1-4  2.334299285  2-5  1.731104593  2-6  1.731104593
     ( 1.338300000)     ( 1.235257985)     ( 1.235257985)     ( 0.916061101)     ( 0.916061101)

 Bond angles

  1-2-5  121.32846058   1-2-6  121.32846058   2-1-3  122.02259151   2-1-4  122.02259151

  3-1-4  115.95481698   5-2-6  117.34307884

 NUCLEAR CHARGE:                   16
 NUMBER OF PRIMITIVE AOS:          72
 NUMBER OF SYMMETRY AOS:           70
 NUMBER OF CONTRACTIONS:           36   (   36A   )
 NUMBER OF CORE ORBITALS:           2   (    2A   )
 NUMBER OF VALENCE ORBITALS:       12   (   12A   )


 NUCLEAR REPULSION ENERGY   33.70228373

 EXTRA SYMMETRY OF AOS IN SYMMETRY 1:   1 1 1 2 1 1 2 1 1 1   3 2 1 1 1 1 1 2 1 1   2 1 1 1 3 2 1 1 1 1   1 1 1 1 1 1

 Eigenvalues of metric

         1 0.819E-02 0.147E-01 0.259E-01 0.617E-01 0.752E-01 0.181E+00 0.191E+00 0.209E+00


 Contracted 2-electron integrals neglected if value below      1.0D-11
 AO integral compression algorithm  1   Integral accuracy      1.0D-11

     0.786 MB (compressed) written to integral file ( 37.9%)


 NUMBER OF SORTED TWO-ELECTRON INTEGRALS:     222111.     BUFFER LENGTH:  32768
 NUMBER OF SEGMENTS:   1  SEGMENT LENGTH:     222111      RECORD LENGTH: 524288

 Memory used in sort:       0.78 MW

 SORT1 READ      284735. AND WROTE       98535. INTEGRALS IN      1 RECORDS. CPU TIME:     0.00 SEC, REAL TIME:     0.00 SEC
 SORT2 READ       98535. AND WROTE      222111. INTEGRALS IN      3 RECORDS. CPU TIME:     0.02 SEC, REAL TIME:     0.02 SEC

 FILE SIZES:   FILE 1:    30.9 MBYTE,  FILE 4:     4.2 MBYTE,   TOTAL:     35.1 MBYTE

 OPERATOR DM      FOR CENTER  0  COORDINATES:    0.000000    0.000000    0.000000


 **********************************************************************************************************************************
 DATASETS  * FILE   NREC   LENGTH (MB)   RECORD NAMES
              1      19       30.63       500      610      700      900      950      970     1000      129      960     1100   
                                          VAR    BASINP    GEOM    SYMINP    ZMAT    AOBASIS   BASIS     P2S    ABASIS      S 
                                         1400     1410     1200     1210     1080     1600     1650     1300     1700   
                                           T        V       H0       H01     AOSYM     SMH    MOLCAS    ERIS     OPER   

 PROGRAMS   *        TOTAL       INT
 CPU TIMES  *         0.35      0.25
 REAL TIME  *         0.56 SEC
 DISK USED  *        35.45 MB
 **********************************************************************************************************************************


 PROGRAM * RHF-SCF (CLOSED SHELL)       Authors: W. Meyer, H.-J. Werner


 NUMBER OF ELECTRONS:       8+    8-    SPACE SYMMETRY=1    SPIN SYMMETRY: Singlet 
 CONVERGENCE THRESHOLDS:    1.00E-05 (Density)    1.00E-07 (Energy)
 MAX. NUMBER OF ITERATIONS:       60
 INTERPOLATION TYPE:            DIIS
 INTERPOLATION STEPS:              2 (START)      1 (STEP)
 LEVEL SHIFTS:                  0.00 (CLOSED)  0.00 (OPEN) 



 Orbital guess generated from atomic densities. Full valence occupancy:    8

 Molecular orbital dump at record        2100.2

 Initial occupancy:   8

 ITERATION    DDIFF          GRAD             ENERGY        2-EL.EN.            DIPOLE MOMENTS         DIIS   ORB.
    1      0.000D+00      0.000D+00       -77.91807342    119.201362    0.00000    0.00000    0.50520    0    start
    2      0.000D+00      0.105D-01       -77.94782333    117.228790    0.00000    0.00000   -0.12453    1    diag
    3      0.114D-01      0.459D-02       -77.95246898    117.746473    0.00000    0.00000    0.00725    2    diag
    4      0.365D-02      0.104D-02       -77.95293551    117.783557    0.00000   -0.00000   -0.07334    3    diag
    5      0.150D-02      0.403D-03       -77.95298122    117.734280   -0.00000   -0.00000   -0.07546    4    diag
    6      0.377D-03      0.999D-04       -77.95298887    117.737040    0.00000    0.00000   -0.08410    5    diag
    7      0.239D-03      0.316D-04       -77.95298947    117.736200    0.00000    0.00000   -0.08599    6    diag
    8      0.747D-04      0.449D-05       -77.95298949    117.736215    0.00000    0.00000   -0.08622    7    diag
    9      0.123D-04      0.576D-06       -77.95298949    117.736204    0.00000    0.00000   -0.08620    8    diag
   10      0.109D-05      0.919D-07       -77.95298949    117.736208    0.00000    0.00000   -0.08620    0    orth

 Final occupancy:   8

 !RHF STATE  1.1 Energy               -77.952989488036
 Nuclear energy                        33.70228373
 One-electron energy                 -170.52337697
 Two-electron energy                   58.86810375
 Virial quotient                       -0.99668435
 !RHF STATE  1.1 Dipole moment          0.00000000     0.00000000    -0.08619809
 Dipole moment /Debye                   0.00000000     0.00000000    -0.21907934

 ELECTRON ORBITALS
 =================

  Orbital  Occupation    Energy     Coefficients
    1.1     2.00000   -11.25876     1 1s    0.99618
    2.1     2.00000   -11.19294     2 1s    0.99586
    3.1     2.00000    -1.04080     1 1s    0.25051     2 1s    0.34637
    4.1     2.00000    -0.79867     1 1s    0.28464     1 1s    0.29824     2 2pz   0.27325
    5.1     2.00000    -0.66524     2 2py   0.44357
    6.1     2.00000    -0.57607     1 2pz   0.42449     2 2pz  -0.36860
    7.1     2.00000    -0.48975     1 2py   0.36208
    8.1     2.00000    -0.37134     1 2px   0.37511     1 2px   0.30075     2 2px   0.37564     2 2px   0.31166
    9.1     0.00000     0.17726     1 2px   0.34829     1 2px   0.72972     2 2px  -0.34319     2 2px  -0.72786
   10.1     0.00000     0.23787     1 1s   -1.61446     1 2pz  -0.61681     2 1s   -0.62799     2 2pz   0.39504     3 1s    1.14869
                                    4 1s    1.14869     5 1s    0.44486     6 1s    0.44486
   11.1     0.00000     0.28448     1 2py   0.36033     1 2py   1.02358     2 2py   0.46201     3 1s   -1.14339     4 1s    1.14339
                                    5 1s   -0.85953     6 1s    0.85953
   12.1     0.00000     0.32249     1 1s    0.88947     1 2pz  -0.31989     2 1s   -3.24290     2 2pz   0.48137     3 1s   -0.30789
                                    4 1s   -0.30789     5 1s    1.83519     6 1s    1.83519
   13.1     0.00000     0.39282     1 2py   1.40089     2 2py  -0.29650     2 2py  -2.33118     3 1s   -0.97065     4 1s    0.97065
                                    5 1s    2.47246     6 1s   -2.47246
   14.1     0.00000     0.49233     1 1s   -3.28716     1 2pz   2.75619     2 1s    2.38690     2 2pz   3.13464     3 1s   -0.41519
                                    4 1s   -0.41519     5 1s    0.88283     6 1s    0.88283
   15.1     0.00000     0.66800     1 1s    0.29394     1 2pz   0.51717     1 2pz  -1.33999     2 1s   -0.88708     2 2pz  -0.57811
                                    2 2pz   0.74949
   16.1     0.00000     0.75994     1 2py  -0.33036     2 2py  -0.43848     2 2py   1.84437     3 1s   -0.38650     3 1s    0.38452
                                    4 1s    0.38650     4 1s   -0.38452     5 1s   -0.37349     5 1s   -0.84810     6 1s    0.37349
                                    6 1s    0.84810
   17.1     0.00000     0.77513     1 2px  -0.77957     1 2px   0.69424     2 2px  -0.69835     2 2px   0.58505
   18.1     0.00000     0.86774     1 1s   -0.79839     1 1s    0.70164     2 1s   -0.98944     2 1s    2.66203     2 2pz  -0.54264
                                    3 1s   -0.36365     4 1s   -0.36365     5 1s   -0.39334     5 1s   -0.76270     6 1s   -0.39334
                                    6 1s   -0.76270
   19.1     0.00000     0.88840     1 2px  -0.77722     1 2px   1.04428     2 2px   0.85445     2 2px  -1.10775
   20.1     0.00000     0.95319     1 1s   -0.25083     1 2pz   0.58293     1 2pz  -0.45197     2 1s    1.02024     2 2pz   0.53515
                                    2 2pz  -0.50795     3 1s    0.55627     3 1s   -0.25571     4 1s    0.55627     4 1s   -0.25571
                                    5 1s   -0.33077     6 1s   -0.33077
   21.1     0.00000     1.03860     1 2py  -1.07008     1 2py   2.12932     2 2py  -0.50405     3 1s    0.43571     3 1s   -1.39644
                                    4 1s   -0.43571     4 1s    1.39644
   22.1     0.00000     1.10017     1 1s   -1.16023     1 1s    1.80325     1 2pz  -0.72477     1 2pz   1.04785     2 1s   -0.28027
                                    2 1s    0.26151     2 2pz  -0.29566     2 2pz   0.45969     3 1s    0.51462     3 1s   -1.17124
                                    4 1s    0.51462     4 1s   -1.17124
   23.1     0.00000     1.26608     1 2py  -0.42924     1 2py   2.16385     2 2py   1.08610     2 2py  -3.86550     3 1s   -0.34444
                                    3 1s   -0.48035     4 1s    0.34444     4 1s    0.48035     5 1s    2.52879     6 1s   -2.52879
   24.1     0.00000     1.33061     1 1s   -1.56348     1 1s    5.16282     1 2pz   0.27760     1 2pz  -2.02490     2 1s    1.09745
                                    2 1s   -4.69578     2 2pz   0.52233     2 2pz  -2.25267     5 1s    0.30676     6 1s    0.30676
   25.1     0.00000     1.42080     1 1s    0.78041     2 1s    1.65506     2 1s   -3.56672     2 2pz  -0.56696     2 2pz   0.57705
                                    5 1s   -0.63773     5 1s    1.50013     6 1s   -0.63773     6 1s    1.50013
   26.1     0.00000     1.49198     1 2py   2.02907     2 2py  -0.34119     2 2py  -1.86990     2 3d1- -0.27916     3 1s   -0.65629
                                    3 1s   -0.35462     4 1s    0.65629     4 1s    0.35462     5 1s    0.68733     5 1s    0.49592
                                    6 1s   -0.68733     6 1s   -0.49592
   27.1     0.00000     1.73538     1 3d1+ -0.61212     2 3d1+  0.62624
   28.1     0.00000     1.81449     1 3d2-  0.62828     2 3d2-  0.73086
   29.1     0.00000     2.12287     1 3d2-  0.78186     2 3d2- -0.68693
   30.1     0.00000     2.17508     1 1s    0.32803     1 1s   -0.65701     1 3d2+  0.89742     2 1s   -0.44769     2 3d2+  0.44522
                                    3 1s    0.35941     4 1s    0.35941     5 1s    0.33760     6 1s    0.33760
   31.1     0.00000     2.34178     1 3d1-  0.88668     2 2py   0.50594     2 2py   0.58826     2 3d1- -0.41134     3 1s   -0.36618
                                    4 1s    0.36618     5 1s   -0.63610     6 1s    0.63610
   32.1     0.00000     2.39756     1 1s   -0.44440     1 2pz   0.33084     1 2pz  -0.38232     1 3d0   0.66552     2 1s   -0.60136
                                    2 1s    0.50194     2 2pz   0.43878     2 3d0   0.71197
   33.1     0.00000     2.70439     1 2px  -0.26483     1 3d1+  0.90735     2 2px   0.26283     2 3d1+  0.89776
   34.1     0.00000     2.70794     1 1s   -0.34956     1 1s    1.11516     1 2pz  -0.43277     1 3d2+ -0.47207     2 1s   -1.54212
                                    2 2pz   0.25078     2 3d2+  1.06701     5 1s    0.80275     6 1s    0.80275
   35.1     0.00000     3.05762     1 1s    0.30650     1 1s    2.03689     1 2pz  -0.78604     1 2pz  -1.17155     1 3d0   1.12687
                                    2 1s   -0.32188     2 1s   -1.95947     2 2pz  -0.81658     2 2pz  -1.17258     2 3d0  -1.09572
   36.1     0.00000     3.13216     1 2py   0.49396     1 3d1-  0.69445     2 2py  -0.28861     2 2py  -0.75147     2 3d1-  1.23758
                                    3 1s   -0.26253     4 1s    0.26253     5 1s    0.84366     6 1s   -0.84366


 HOMO      8.1    -0.371345 =     -10.1048eV
 LUMO      9.1     0.177263 =       4.8236eV
 LUMO-HOMO         0.548608 =      14.9284eV


 **********************************************************************************************************************************
 DATASETS  * FILE   NREC   LENGTH (MB)   RECORD NAMES
              1      19       30.63       500      610      700      900      950      970     1000      129      960     1100   
                                          VAR    BASINP    GEOM    SYMINP    ZMAT    AOBASIS   BASIS     P2S    ABASIS      S 
                                         1400     1410     1200     1210     1080     1600     1650     1300     1700   
                                           T        V       H0       H01     AOSYM     SMH    MOLCAS    ERIS     OPER   

              2       4        2.86       700     1000      520     2100   
                                         GEOM     BASIS   MCVARS     RHF  

 PROGRAMS   *        TOTAL    HF-SCF       INT
 CPU TIMES  *         0.47      0.11      0.25
 REAL TIME  *         0.70 SEC
 DISK USED  *        35.45 MB
 **********************************************************************************************************************************


 PROGRAM * MULTI (Direct Multiconfiguration SCF)       Authors: P.J. Knowles, H.-J. Werner (1984)


 Number of closed-shell orbitals:   7 (   7 )
 Number of active  orbitals:        2 (   2 )
 Number of external orbitals:      27 (  27 )

 State symmetry 1

 Number of electrons:     2    Spin symmetry=Singlet   Space symmetry=1
 Number of states:        3
 Number of CSFs:          3   (4 determinants, 4 intermediate states)

 Molecular orbitals read from record     2100.2  Type=RHF/CANONICAL (state 1.1)

 EXTRA SYMMETRY OF MOS IN SYMMETRY 1:   1 1 1 1 1 1 1 2 2 1   1 1 1 1 1 1 2 1 2 1   1 1 1 1 1 1 2 3 3 1   1 1 2 1 1 1

 Wavefunction dump at record             2140.2

 Convergence thresholds  0.10E-01 (gradient)  0.10E-05 (energy)  0.10E-02 (step length)

 Weight factors for state symmetry  1:    0.33333   0.33333   0.33333

 Number of orbital rotations:      257   (    14 Core/Active    189 Core/Virtual   0 Active/Active     54 Active/Virtual)
 Total number of variables:        269

 Micro-Iterations solved by the two-step solver

 ITER. MIC  NCI  NEG     ENERGY(VAR)     ENERGY(PROJ)   ENERGY CHANGE     GRAD(0)  GRAD(ORB)   GRAD(CI)     STEP       TIME

   1    3    3    0     -77.65138336     -77.65757815   -0.00619479    0.13208307 0.00000154 0.00000000  0.63D-01      0.06
   2    2    3    0     -77.65748069     -77.65748443   -0.00000374    0.00302047 0.00000185 0.00000000  0.16D-02      0.09
   3    2    3    0     -77.65748443     -77.65748443   -0.00000000    0.00000217 0.00000000 0.00000000  0.13D-05      0.13

 ** WVFN ****  CONVERGENCE REACHED, FINAL GRADIENT:  0.13D-11



 Results for state 1.1
 =====================

 !MCSCF STATE  1.1 Energy             -77.970940263874
 Nuclear energy                        33.70228373
 Kinetic energy                        78.27770536
 One electron energy                 -170.65173888
 Two electron energy                   58.97851489
 Virial ratio                           1.99608107

 !MCSCF STATE  1.1 Dipole moment        0.00000000    -0.00000000    -0.05647983
 Dipole moment /Debye                   0.00000000    -0.00000000    -0.14354801

 Results for state 2.1
 =====================

 !MCSCF STATE  2.1 Energy             -77.593727741844
 Nuclear energy                        33.70228373
 Kinetic energy                        78.46206749
 One electron energy                 -170.08622104
 Two electron energy                   58.79020957
 Virial ratio                           1.98893300

 !MCSCF STATE  2.1 Dipole moment        0.00000000    -0.00000000    -0.02389613
 Dipole moment /Debye                   0.00000000    -0.00000000    -0.06073392

 Results for state 3.1
 =====================

 !MCSCF STATE  3.1 Energy             -77.407785290279
 Nuclear energy                        33.70228373
 Kinetic energy                        78.64652902
 One electron energy                 -169.51639690
 Two electron energy                   58.40632789
 Virial ratio                           1.98424923

 !MCSCF STATE  3.1 Dipole moment        0.00000000    -0.00000000    -0.14367421
 Dipole moment /Debye                   0.00000000    -0.00000000    -0.36515949

 State-averaged charge density matrix saved on record  2140.2 (density set 1)

 !MCSCF expec         <1.1|DMZ|1.1>    -0.056479830788 au =    -0.143548008335 Debye
 !MCSCF trans         <2.1|DMZ|1.1>    -1.507417095572 au =    -3.831221141763 Debye
 !MCSCF expec         <2.1|DMZ|2.1>    -0.023896128107 au =    -0.060733921275 Debye
 !MCSCF trans         <3.1|DMZ|1.1>    -0.009142530535 au =    -0.023236472758 Debye
 !MCSCF trans         <3.1|DMZ|2.1>    -2.272998634330 au =    -5.777007869040 Debye
 !MCSCF expec         <3.1|DMZ|3.1>    -0.143674207130 au =    -0.365159491358 Debye


 NATURAL ORBITALS (state averaged)
 =================================

  Orbital  Occupation    Energy     Coefficients
    1.1     2.00000   -11.27171     1 1s    0.99618
    2.1     2.00000   -11.21098     2 1s    0.99586
    3.1     2.00000    -1.05462     1 1s    0.26011     2 1s    0.35351
    4.1     2.00000    -0.80837     1 1s    0.28225     1 1s    0.33001     2 2pz   0.27861
    5.1     2.00000    -0.67843     2 2py   0.44979
    6.1     2.00000    -0.58968     1 2pz   0.42512     2 2pz  -0.36701
    7.1     2.00000    -0.49600     1 2py   0.36981     1 2py   0.26604
    8.1     1.00000     0.03224     1 2px   0.38587     1 2px   0.68267     2 2px  -0.38144     2 2px  -0.68059
    9.1     1.00000    -0.22711     1 2px   0.35895     1 2px   0.31300     2 2px   0.36074     2 2px   0.32253
   10.1    -0.00000     0.23561     1 1s   -1.63875     1 2pz  -0.60052     2 1s   -0.60163     2 2pz   0.41731     3 1s    1.14642
                                    4 1s    1.14642     5 1s    0.44884     6 1s    0.44884
   11.1    -0.00000     0.27567     1 2py   0.35954     1 2py   1.01143     2 2py   0.45502     3 1s   -1.13704     4 1s    1.13704
                                    5 1s   -0.84810     6 1s    0.84810
   12.1    -0.00000     0.31939     1 1s    0.89599     1 2pz  -0.33142     2 1s   -3.24679     2 2pz   0.48688     3 1s   -0.30563
                                    4 1s   -0.30563     5 1s    1.83275     6 1s    1.83275
   13.1    -0.00000     0.38929     1 2py   1.38847     2 2py  -0.30069     2 2py  -2.31321     3 1s   -0.96416     4 1s    0.96416
                                    5 1s    2.46327     6 1s   -2.46327
   14.1    -0.00000     0.48937     1 1s   -3.25483     1 2pz   2.73958     2 1s    2.39689     2 2pz   3.10907     3 1s   -0.42758
                                    4 1s   -0.42758     5 1s    0.87436     6 1s    0.87436
   15.1    -0.00000     0.65692     1 1s   -0.27916     1 1s    0.34110     1 2pz   0.50202     1 2pz  -1.31876     2 1s   -0.74940
                                    2 2pz  -0.57617     2 2pz   0.72316
   16.1    -0.00000     0.74954     1 2py  -0.34521     2 2py  -0.44645     2 2py   1.85873     3 1s   -0.37918     3 1s    0.37726
                                    4 1s    0.37918     4 1s   -0.37726     5 1s   -0.37087     5 1s   -0.86048     6 1s    0.37087
                                    6 1s    0.86048
   17.1    -0.00000     0.76936     1 2px  -0.78169     1 2px   0.68495     2 2px  -0.71010     2 2px   0.58403
   18.1    -0.00000     0.86352     1 1s   -0.78775     1 1s    0.70902     2 1s   -0.98897     2 1s    2.73825     2 2pz  -0.62226
                                    3 1s   -0.33058     4 1s   -0.33058     5 1s   -0.41165     5 1s   -0.79260     6 1s   -0.41165
                                    6 1s   -0.79260
   19.1    -0.00000     0.87093     1 2px  -0.76514     1 2px   1.07809     2 2px   0.83545     2 2px  -1.13493
   20.1    -0.00000     0.93697     1 2pz   0.59609     1 2pz  -0.57068     2 1s    0.69407     2 2pz   0.53399     2 2pz  -0.55593
                                    3 1s    0.56664     4 1s    0.56664     5 1s   -0.27945     6 1s   -0.27945
   21.1    -0.00000     1.02634     1 2py  -1.05821     1 2py   2.13953     2 2py  -0.51097     3 1s    0.43715     3 1s   -1.40934
                                    4 1s   -0.43715     4 1s    1.40934
   22.1    -0.00000     1.09836     1 1s   -1.13899     1 1s    1.72159     1 2pz  -0.72547     1 2pz   1.08129     2 1s   -0.30025
                                    2 1s    0.36378     2 2pz  -0.28575     2 2pz   0.47539     3 1s    0.52629     3 1s   -1.17325
                                    4 1s    0.52629     4 1s   -1.17325
   23.1    -0.00000     1.25245     1 2py  -0.43673     1 2py   2.14059     2 2py   1.08337     2 2py  -3.84051     3 1s   -0.33007
                                    3 1s   -0.48107     4 1s    0.33007     4 1s    0.48107     5 1s    2.53103     6 1s   -2.53103
   24.1    -0.00000     1.31124     1 1s   -1.58299     1 1s    5.20504     1 2pz   0.26954     1 2pz  -2.01489     2 1s    1.14219
                                    2 1s   -4.79764     2 2pz   0.50308     2 2pz  -2.23000     5 1s    0.28864     6 1s    0.28864
   25.1    -0.00000     1.41538     1 1s    0.65642     2 1s    1.62034     2 1s   -3.45168     2 2pz  -0.58834     2 2pz   0.64774
                                    5 1s   -0.64078     5 1s    1.50587     6 1s   -0.64078     6 1s    1.50587
   26.1    -0.00000     1.48116     1 2py   2.05472     2 2py  -0.31326     2 2py  -1.92774     2 3d1- -0.28156     3 1s   -0.66587
                                    3 1s   -0.35485     4 1s    0.66587     4 1s    0.35485     5 1s    0.67872     5 1s    0.53437
                                    6 1s   -0.67872     6 1s   -0.53437
   27.1    -0.00000     1.70990     1 3d1+ -0.61016     2 3d1+  0.62764
   28.1    -0.00000     1.80066     1 3d2-  0.62221     2 3d2-  0.73615
   29.1    -0.00000     2.10035     1 3d2-  0.78669     2 3d2- -0.68126
   30.1    -0.00000     2.16037     1 1s    0.32688     1 1s   -0.66152     1 3d2+  0.89713     2 1s   -0.43328     2 3d2+  0.44425
                                    3 1s    0.36184     4 1s    0.36184     5 1s    0.33795     6 1s    0.33795
   31.1    -0.00000     2.32660     1 3d1-  0.88449     2 2py   0.51031     2 2py   0.58688     2 3d1- -0.41078     3 1s   -0.36826
                                    4 1s    0.36826     5 1s   -0.64037     6 1s    0.64037
   32.1    -0.00000     2.37783     1 1s   -0.44337     1 2pz   0.33965     1 2pz  -0.38259     1 3d0   0.66310     2 1s   -0.59828
                                    2 1s    0.50315     2 2pz  -0.25166     2 2pz   0.44416     2 3d0   0.71437
   33.1    -0.00000     2.68212     1 2px  -0.26564     1 3d1+  0.90883     2 2px   0.26350     2 3d1+  0.89706
   34.1    -0.00000     2.68816     1 1s   -0.35084     1 1s    1.11775     1 2pz  -0.43076     1 3d2+ -0.47163     2 1s   -1.54247
                                    2 2pz   0.25359     2 3d2+  1.06589     5 1s    0.80753     6 1s    0.80753
   35.1    -0.00000     3.03988     1 1s    0.29808     1 1s    2.06315     1 2pz  -0.77802     1 2pz  -1.18609     1 3d0   1.13024
                                    2 1s   -0.31654     2 1s   -1.98599     2 2pz  -0.80898     2 2pz  -1.18509     2 3d0  -1.09558
   36.1    -0.00000     3.11901     1 2py   0.49470     1 3d1-  0.69600     2 2py  -0.29414     2 2py  -0.74982     2 3d1-  1.23575
                                    3 1s   -0.26450     4 1s    0.26450     5 1s    0.84588     6 1s   -0.84588


 Natural orbital dump (state averaged) at molpro section  2140.2    (Orbital set 2)



 **********************************************************************************************************************************
 DATASETS  * FILE   NREC   LENGTH (MB)   RECORD NAMES
              1      20       31.36       500      610      700      900      950      970     1000      129      960     1100   
                                          VAR    BASINP    GEOM    SYMINP    ZMAT    AOBASIS   BASIS     P2S    ABASIS      S 
                                         1400     1410     1200     1210     1080     1600     1650     1300     1700     1380   
                                           T        V       H0       H01     AOSYM     SMH    MOLCAS    ERIS     OPER     JKOP   

              2       5        5.42       700     1000      520     2100     2140   
                                         GEOM     BASIS   MCVARS     RHF     MCSCF   

 PROGRAMS   *        TOTAL     MULTI    HF-SCF       INT
 CPU TIMES  *         0.64      0.17      0.11      0.25
 REAL TIME  *         0.89 SEC
 DISK USED  *        38.55 MB
 **********************************************************************************************************************************
 Molecular orbitals read from record     2140.2  Type=MCSCF/NATURAL (state averaged)
 Occupation numbers read from record     2140.2  Type=MCSCF/NATURAL (state averaged)
 Orbital energies read from record       2140.2  Type=MCSCF/NATURAL (state averaged)
 Redundancy group numbers read from rec  2140.2  Type=MCSCF/NATURAL (state averaged)

 MULTI/6-31G* energy=    -77.407785290279

           MULTI          HF-SCF
    -77.40778529    -77.95298949
 **********************************************************************************************************************************
 Molpro calculation terminated
