
 Primary working directories    : /scratch.local/johan406.molpro_temp/molpro.LclDIY1Z4U
 Secondary working directories  : /scratch.local/johan406.molpro_temp/molpro.LclDIY1Z4U
 Wavefunction directory         : /home/goodpast/johan406/wfu/
 Main file repository           : /scratch.local/johan406.molpro_temp/molpro.LclDIY1Z4U/

 id        : roweumn

 Nodes     nprocs
 cn0117       1

 Using customized tuning parameters: mindgm=1; mindgv=20; mindgc=4; mindgr=1; noblas=0; minvec=7
 default implementation of scratch files=df  


 Variables initialized (934), CPU time= 0.00 sec
                                                                                 !leave this line blank
 
 gprint, orbitals=30
 memory, 125., m
 symmetry, nosym
 nelect=16
 basis=6-31g*
 
 geometry={
 C -0.0 0.0 0.6661
 C 0.0 0.0 -0.6661
 H 0.0 0.9407 1.2504
 H -0.0 -0.9407 1.2504
 H 0.0 0.9407 -1.2504
 H 0.0 -0.9407 -1.2504
 }
 
 hf
 {multi,
 closed 7
 occ 9
 wf,spin=0;STATE,3
 }
 
 Commands  initialized (763), CPU time= 0.01 sec, 617 directives.
 Default parameters read. Elapsed time= 0.08 sec

 Checking input...
 Passed
1


                                         ***  PROGRAM SYSTEM MOLPRO  ***
                                       Copyright, TTI GmbH Stuttgart, 2015
                                    Version 2019.2 linked Oct 25 2019 22:50:27


 **********************************************************************************************************************************
 LABEL *                                                                                 
  64 bit serial version                                                                  DATE: 26-Jan-23          TIME: 20:51:35  
 **********************************************************************************************************************************

 SHA1:             8dbd9ae1082e4ce945b0f27595c9eb2d4aa09004
 **********************************************************************************************************************************


 Variable memory set to  125000000 words,  buffer space 

 SETTING NELECT         =        16.00000000                                  
 SETTING BASIS          =    6-31G*
 ZSYMEL=NOSYM


Geometry recognized as XYZ



 Recomputing integrals since basis changed


 Using spherical harmonics

 Library entry C      S 6-31G                selected for orbital group  1
 Library entry C      P 6-31G                selected for orbital group  1
 Library entry C      D 6-31G*               selected for orbital group  1
 Library entry H      S 6-31G                selected for orbital group  2


 PROGRAM * SEWARD (Integral evaluation for generally contracted gaussian basis sets)     Author: Roland Lindh, 1990

 Geometry written to block  1 of record 700


 Point group  C1  



 ATOMIC COORDINATES

 NR  ATOM    CHARGE       X              Y              Z

   1  C       6.00    0.000000000    0.000000000    1.258746572
   2  C       6.00    0.000000000    0.000000000   -1.258746572
   3  H       1.00    0.000000000    1.777665365    2.362913546
   4  H       1.00    0.000000000   -1.777665365    2.362913546
   5  H       1.00    0.000000000    1.777665365   -2.362913546
   6  H       1.00    0.000000000   -1.777665365   -2.362913546

 Bond lengths in Bohr (Angstrom)

 1-2  2.517493143  1-3  2.092672659  1-4  2.092672659  2-5  2.092672659  2-6  2.092672659
     ( 1.332200000)     ( 1.107394681)     ( 1.107394681)     ( 1.107394681)     ( 1.107394681)

 Bond angles

  1-2-5  121.84578840   1-2-6  121.84578840   2-1-3  121.84578840   2-1-4  121.84578840

  3-1-4  116.30842319   5-2-6  116.30842319

 NUCLEAR CHARGE:                   16
 NUMBER OF PRIMITIVE AOS:          72
 NUMBER OF SYMMETRY AOS:           70
 NUMBER OF CONTRACTIONS:           36   (   36A   )
 NUMBER OF CORE ORBITALS:           2   (    2A   )
 NUMBER OF VALENCE ORBITALS:       12   (   12A   )


 NUCLEAR REPULSION ENERGY   33.04127322

 EXTRA SYMMETRY OF AOS IN SYMMETRY 1:   1 1 1 2 1 1 2 1 1 1   3 2 1 1 1 1 1 2 1 1   2 1 1 1 3 2 1 1 1 1   1 1 1 1 1 1

 Eigenvalues of metric

         1 0.821E-02 0.189E-01 0.408E-01 0.498E-01 0.769E-01 0.189E+00 0.218E+00 0.226E+00


 Contracted 2-electron integrals neglected if value below      1.0D-11
 AO integral compression algorithm  1   Integral accuracy      1.0D-11

     0.786 MB (compressed) written to integral file ( 37.7%)


 NUMBER OF SORTED TWO-ELECTRON INTEGRALS:     222111.     BUFFER LENGTH:  32768
 NUMBER OF SEGMENTS:   1  SEGMENT LENGTH:     222111      RECORD LENGTH: 524288

 Memory used in sort:       0.78 MW

 SORT1 READ      284735. AND WROTE       98243. INTEGRALS IN      1 RECORDS. CPU TIME:     0.01 SEC, REAL TIME:     0.01 SEC
 SORT2 READ       98243. AND WROTE      222111. INTEGRALS IN      3 RECORDS. CPU TIME:     0.02 SEC, REAL TIME:     0.02 SEC

 FILE SIZES:   FILE 1:    30.9 MBYTE,  FILE 4:     4.2 MBYTE,   TOTAL:     35.1 MBYTE

 OPERATOR DM      FOR CENTER  0  COORDINATES:    0.000000    0.000000    0.000000


 **********************************************************************************************************************************
 DATASETS  * FILE   NREC   LENGTH (MB)   RECORD NAMES
              1      19       30.63       500      610      700      900      950      970     1000      129      960     1100   
                                          VAR    BASINP    GEOM    SYMINP    ZMAT    AOBASIS   BASIS     P2S    ABASIS      S 
                                         1400     1410     1200     1210     1080     1600     1650     1300     1700   
                                           T        V       H0       H01     AOSYM     SMH    MOLCAS    ERIS     OPER   

 PROGRAMS   *        TOTAL       INT
 CPU TIMES  *         0.35      0.26
 REAL TIME  *         0.56 SEC
 DISK USED  *        35.45 MB
 **********************************************************************************************************************************


 PROGRAM * RHF-SCF (CLOSED SHELL)       Authors: W. Meyer, H.-J. Werner


 NUMBER OF ELECTRONS:       8+    8-    SPACE SYMMETRY=1    SPIN SYMMETRY: Singlet 
 CONVERGENCE THRESHOLDS:    1.00E-05 (Density)    1.00E-07 (Energy)
 MAX. NUMBER OF ITERATIONS:       60
 INTERPOLATION TYPE:            DIIS
 INTERPOLATION STEPS:              2 (START)      1 (STEP)
 LEVEL SHIFTS:                  0.00 (CLOSED)  0.00 (OPEN) 



 Orbital guess generated from atomic densities. Full valence occupancy:    8

 Molecular orbital dump at record        2100.2

 Initial occupancy:   8

 ITERATION    DDIFF          GRAD             ENERGY        2-EL.EN.            DIPOLE MOMENTS         DIIS   ORB.
    1      0.000D+00      0.000D+00       -78.00438619    118.084418    0.00000   -0.00000   -0.00000    0    start
    2      0.000D+00      0.850D-02       -78.02591756    116.212175    0.00000    0.00000   -0.00000    1    diag
    3      0.805D-02      0.296D-02       -78.02810368    116.865707   -0.00000    0.00000    0.00000    2    diag
    4      0.271D-02      0.717D-03       -78.02831921    116.763398   -0.00000   -0.00000    0.00000    3    diag
    5      0.108D-02      0.714D-04       -78.02832157    116.766752   -0.00000   -0.00000    0.00000    4    diag
    6      0.153D-03      0.942D-05       -78.02832162    116.766260   -0.00000   -0.00000    0.00000    5    diag
    7      0.192D-04      0.132D-05       -78.02832162    116.766269   -0.00000   -0.00000    0.00000    6    diag
    8      0.210D-05      0.169D-06       -78.02832162    116.766262   -0.00000   -0.00000   -0.00000    0    orth

 Final occupancy:   8

 !RHF STATE  1.1 Energy               -78.028321616709
 Nuclear energy                        33.04127322
 One-electron energy                 -169.45272575
 Two-electron energy                   58.38313091
 Virial quotient                       -1.00221036
 !RHF STATE  1.1 Dipole moment         -0.00000000    -0.00000000    -0.00000000
 Dipole moment /Debye                  -0.00000000    -0.00000000    -0.00000000

 ELECTRON ORBITALS
 =================

  Orbital  Occupation    Energy     Coefficients
    1.1     2.00000   -11.23234     1 1s    0.70419     2 1s    0.70419
    2.1     2.00000   -11.23070     1 1s    0.70457     2 1s   -0.70457
    3.1     2.00000    -1.02458     1 1s    0.30247     2 1s    0.30247
    4.1     2.00000    -0.77941     1 1s    0.25125     2 1s   -0.25125
    5.1     2.00000    -0.62902     1 2py   0.31835     2 2py   0.31835
    6.1     2.00000    -0.58014     1 2pz   0.40348     2 2pz  -0.40348
    7.1     2.00000    -0.49493     1 2py   0.29847     2 2py  -0.29847
    8.1     2.00000    -0.37210     1 2px   0.37480     1 2px   0.30582     2 2px   0.37480     2 2px   0.30582
    9.1     0.00000     0.17975     1 2px   0.34228     1 2px   0.73709     2 2px  -0.34228     2 2px  -0.73709
   10.1     0.00000     0.25985     1 1s   -1.41539     1 2pz  -0.63158     2 1s   -1.41539     2 2pz   0.63158     3 1s    0.99638
                                    4 1s    0.99638     5 1s    0.99638     6 1s    0.99638
   11.1     0.00000     0.28349     1 2py  -0.25620     1 2py  -0.77179     2 2py  -0.25620     2 2py  -0.77179     3 1s    1.04062
                                    4 1s   -1.04062     5 1s    1.04062     6 1s   -1.04062
   12.1     0.00000     0.29975     1 1s    1.80193     2 1s   -1.80193     3 1s   -1.03168     4 1s   -1.03168     5 1s    1.03168
                                    6 1s    1.03168
   13.1     0.00000     0.38898     1 2py   0.25521     1 2py   1.81952     2 2py  -0.25521     2 2py  -1.81952     3 1s   -1.54733
                                    4 1s    1.54733     5 1s    1.54733     6 1s   -1.54733
   14.1     0.00000     0.49150     1 1s   -3.16103     1 2pz   2.97005     2 1s    3.16103     2 2pz   2.97005     3 1s   -0.53956
                                    4 1s   -0.53956     5 1s    0.53956     6 1s    0.53956
   15.1     0.00000     0.66852     1 2pz  -0.55924     1 2pz   1.02955     2 2pz   0.55924     2 2pz  -1.02955
   16.1     0.00000     0.77359     1 2py  -0.40594     1 2py   0.73268     2 2py  -0.40594     2 2py   0.73268     3 1s   -0.39479
                                    4 1s    0.39479     5 1s   -0.39479     6 1s    0.39479
   17.1     0.00000     0.77380     1 2px  -0.73851     1 2px   0.63991     2 2px  -0.73851     2 2px   0.63991
   18.1     0.00000     0.86508     1 1s   -0.86114     1 1s    1.36551     1 2pz   0.35314     2 1s   -0.86114     2 1s    1.36551
                                    2 2pz  -0.35314     3 1s   -0.41147     4 1s   -0.41147     5 1s   -0.41147     6 1s   -0.41147
   19.1     0.00000     0.88909     1 2px  -0.81899     1 2px   1.07649     2 2px   0.81899     2 2px  -1.07649
   20.1     0.00000     0.95840     1 1s   -0.73991     1 2pz   0.58768     1 2pz  -0.40970     2 1s    0.73991     2 2pz   0.58768
                                    2 2pz  -0.40970     3 1s    0.40220     4 1s    0.40220     5 1s   -0.40220     6 1s   -0.40220
   21.1     0.00000     1.09248     1 2py  -0.68379     1 2py   1.08525     2 2py  -0.68379     2 2py   1.08525     3 1s    0.37900
                                    3 1s   -1.03583     4 1s   -0.37900     4 1s    1.03583     5 1s    0.37900     5 1s   -1.03583
                                    6 1s   -0.37900     6 1s    1.03583
   22.1     0.00000     1.14376     1 2py   0.91397     1 2py  -2.67037     2 2py  -0.91397     2 2py   2.67037     3 1s    1.38038
                                    4 1s   -1.38038     5 1s   -1.38038     6 1s    1.38038
   23.1     0.00000     1.18603     1 1s    1.03877     1 1s   -1.70295     1 2pz   0.35428     1 2pz  -0.48770     2 1s    1.03877
                                    2 1s   -1.70295     2 2pz  -0.35428     2 2pz   0.48770     3 1s   -0.43072     3 1s    0.85244
                                    4 1s   -0.43072     4 1s    0.85244     5 1s   -0.43072     5 1s    0.85244     6 1s   -0.43072
                                    6 1s    0.85244
   24.1     0.00000     1.19474     1 1s    0.59104     1 1s   -0.75877     1 2pz   0.63011     1 2pz  -1.13122     2 1s   -0.59104
                                    2 1s    0.75877     2 2pz   0.63011     2 2pz  -1.13122     3 1s   -0.44454     3 1s    0.96639
                                    4 1s   -0.44454     4 1s    0.96639     5 1s    0.44454     5 1s   -0.96639     6 1s    0.44454
                                    6 1s   -0.96639
   25.1     0.00000     1.34386     1 1s   -1.56598     1 1s    5.35272     1 2pz   0.28729     1 2pz  -1.99612     2 1s    1.56598
                                    2 1s   -5.35272     2 2pz   0.28729     2 2pz  -1.99612     3 1s   -0.25435     4 1s   -0.25435
                                    5 1s    0.25435     6 1s    0.25435
   26.1     0.00000     1.46547     1 2py   2.64880     2 2py  -2.64880     3 1s   -0.68462     3 1s   -0.67992     4 1s    0.68462
                                    4 1s    0.67992     5 1s    0.68462     5 1s    0.67992     6 1s   -0.68462     6 1s   -0.67992
   27.1     0.00000     1.74151     1 3d1+  0.61821     2 3d1+ -0.61821
   28.1     0.00000     1.82235     1 3d2-  0.68065     2 3d2-  0.68065
   29.1     0.00000     2.13370     1 3d2-  0.73691     2 3d2- -0.73691
   30.1     0.00000     2.17935     1 1s   -0.57836     1 3d2+  0.71253     2 1s   -0.57836     2 3d2+  0.71253     3 1s    0.35664
                                    4 1s    0.35664     5 1s    0.35664     6 1s    0.35664
   31.1     0.00000     2.28890     1 3d1-  0.68096     2 3d1- -0.68096     3 1s   -0.49126     4 1s    0.49126     5 1s   -0.49126
                                    6 1s    0.49126
   32.1     0.00000     2.41255     1 1s   -0.50836     1 2pz   0.29307     1 2pz  -0.44142     1 3d0   0.69684     2 1s   -0.50836
                                    2 2pz  -0.29307     2 2pz   0.44142     2 3d0   0.69684
   33.1     0.00000     2.59252     1 1s    0.30910     1 1s   -1.30551     1 2pz   0.26698     1 3d2+  0.79034     2 1s   -0.30910
                                    2 1s    1.30551     2 2pz   0.26698     2 3d2+ -0.79034     3 1s    0.41815     4 1s    0.41815
                                    5 1s   -0.41815     6 1s   -0.41815
   34.1     0.00000     2.71468     1 2px  -0.26572     1 3d1+  0.90650     2 2px   0.26572     2 3d1+  0.90650
   35.1     0.00000     3.02628     1 2py   0.47610     1 3d1-  0.96134     2 2py  -0.47610     2 3d1-  0.96134     3 1s   -0.44084
                                    4 1s    0.44084     5 1s    0.44084     6 1s   -0.44084
   36.1     0.00000     3.07000     1 1s    0.33329     1 1s    2.04538     1 2pz  -0.81122     1 2pz  -1.18192     1 3d0   1.11633
                                    2 1s   -0.33329     2 1s   -2.04538     2 2pz  -0.81122     2 2pz  -1.18192     2 3d0  -1.11633


 HOMO      8.1    -0.372096 =     -10.1252eV
 LUMO      9.1     0.179748 =       4.8912eV
 LUMO-HOMO         0.551843 =      15.0164eV


 **********************************************************************************************************************************
 DATASETS  * FILE   NREC   LENGTH (MB)   RECORD NAMES
              1      19       30.63       500      610      700      900      950      970     1000      129      960     1100   
                                          VAR    BASINP    GEOM    SYMINP    ZMAT    AOBASIS   BASIS     P2S    ABASIS      S 
                                         1400     1410     1200     1210     1080     1600     1650     1300     1700   
                                           T        V       H0       H01     AOSYM     SMH    MOLCAS    ERIS     OPER   

              2       4        2.86       700     1000      520     2100   
                                         GEOM     BASIS   MCVARS     RHF  

 PROGRAMS   *        TOTAL    HF-SCF       INT
 CPU TIMES  *         0.46      0.11      0.26
 REAL TIME  *         0.69 SEC
 DISK USED  *        35.45 MB
 **********************************************************************************************************************************


 PROGRAM * MULTI (Direct Multiconfiguration SCF)       Authors: P.J. Knowles, H.-J. Werner (1984)


 Number of closed-shell orbitals:   7 (   7 )
 Number of active  orbitals:        2 (   2 )
 Number of external orbitals:      27 (  27 )

 State symmetry 1

 Number of electrons:     2    Spin symmetry=Singlet   Space symmetry=1
 Number of states:        3
 Number of CSFs:          3   (4 determinants, 4 intermediate states)

 Molecular orbitals read from record     2100.2  Type=RHF/CANONICAL (state 1.1)

 EXTRA SYMMETRY OF MOS IN SYMMETRY 1:   1 1 1 1 1 1 1 2 2 1   1 1 1 1 1 1 2 1 2 1   1 1 1 1 1 1 2 3 3 1   1 1 1 2 1 1

 Wavefunction dump at record             2140.2

 Convergence thresholds  0.10E-01 (gradient)  0.10E-05 (energy)  0.10E-02 (step length)

 Weight factors for state symmetry  1:    0.33333   0.33333   0.33333

 Number of orbital rotations:      257   (    14 Core/Active    189 Core/Virtual   0 Active/Active     54 Active/Virtual)
 Total number of variables:        269

 Micro-Iterations solved by the two-step solver

 ITER. MIC  NCI  NEG     ENERGY(VAR)     ENERGY(PROJ)   ENERGY CHANGE     GRAD(0)  GRAD(ORB)   GRAD(CI)     STEP       TIME

   1    3    3    0     -77.72395512     -77.73037165   -0.00641653    0.13400373 0.00000170 0.00000000  0.63D-01      0.06
   2    2    3    0     -77.73026652     -77.73027067   -0.00000415    0.00318397 0.00000206 0.00000000  0.17D-02      0.10
   3    2    3    0     -77.73027067     -77.73027067   -0.00000000    0.00000241 0.00000000 0.00000000  0.15D-05      0.13

 ** WVFN ****  CONVERGENCE REACHED, FINAL GRADIENT:  0.16D-11



 Results for state 1.1
 =====================

 !MCSCF STATE  1.1 Energy             -78.045582368897
 Nuclear energy                        33.04127322
 Kinetic energy                        77.92735644
 One electron energy                 -169.59652791
 Two electron energy                   58.50967232
 Virial ratio                           2.00151713

 !MCSCF STATE  1.1 Dipole moment        0.00000000     0.00000000    -0.00000000
 Dipole moment /Debye                   0.00000000     0.00000000    -0.00000000

 Results for state 2.1
 =====================

 !MCSCF STATE  2.1 Energy             -77.667312199894
 Nuclear energy                        33.04127322
 Kinetic energy                        78.10505322
 One electron energy                 -169.00979354
 Two electron energy                   58.30120812
 Virial ratio                           1.99439548

 !MCSCF STATE  2.1 Dipole moment        0.00000000     0.00000000    -0.00000000
 Dipole moment /Debye                   0.00000000     0.00000000    -0.00000000

 Results for state 3.1
 =====================

 !MCSCF STATE  3.1 Energy             -77.477917453833
 Nuclear energy                        33.04127322
 Kinetic energy                        78.28275000
 One electron energy                 -168.42305918
 Two electron energy                   57.90386850
 Virial ratio                           1.98971890

 !MCSCF STATE  3.1 Dipole moment        0.00000000     0.00000000    -0.00000000
 Dipole moment /Debye                   0.00000000     0.00000000    -0.00000000

 State-averaged charge density matrix saved on record  2140.2 (density set 1)

 !MCSCF trans         <2.1|DMZ|1.1>    -1.509071529927 au =    -3.835426019032 Debye
 !MCSCF trans         <3.1|DMZ|2.1>    -2.259369804633 au =    -5.742369108060 Debye


 NATURAL ORBITALS (state averaged)
 =================================

  Orbital  Occupation    Energy     Coefficients
    1.1     2.00000   -11.24812     1 1s    0.70421     2 1s    0.70421
    2.1     2.00000   -11.24675     1 1s    0.70453     2 1s   -0.70453
    3.1     2.00000    -1.03991     1 1s    0.31042     2 1s    0.31042
    4.1     2.00000    -0.78715     1 1s    0.29784     2 1s   -0.29784
    5.1     2.00000    -0.64185     1 2py   0.32430     2 2py   0.32430
    6.1     2.00000    -0.59465     1 2pz   0.40490     2 2pz  -0.40490
    7.1     2.00000    -0.50124     1 2py   0.30514     2 2py  -0.30514
    8.1     1.00000     0.03475     1 2px   0.38073     1 2px   0.68940     2 2px  -0.38073     2 2px  -0.68940
    9.1     1.00000    -0.22744     1 2px   0.35942     1 2px   0.31724     2 2px   0.35942     2 2px   0.31724
   10.1    -0.00000     0.25732     1 1s   -1.41183     1 2pz  -0.63668     2 1s   -1.41183     2 2pz   0.63668     3 1s    0.99620
                                    4 1s    0.99620     5 1s    0.99620     6 1s    0.99620
   11.1    -0.00000     0.27465     1 2py  -0.25449     1 2py  -0.76150     2 2py  -0.25449     2 2py  -0.76150     3 1s    1.03220
                                    4 1s   -1.03220     5 1s    1.03220     6 1s   -1.03220
   12.1    -0.00000     0.29652     1 1s    1.82874     2 1s   -1.82874     3 1s   -1.02613     4 1s   -1.02613     5 1s    1.02613
                                    6 1s    1.02613
   13.1    -0.00000     0.38444     1 2py   0.25898     1 2py   1.80487     2 2py  -0.25898     2 2py  -1.80487     3 1s   -1.54054
                                    4 1s    1.54054     5 1s    1.54054     6 1s   -1.54054
   14.1    -0.00000     0.48887     1 1s   -3.13676     1 2pz   2.95285     2 1s    3.13676     2 2pz   2.95285     3 1s   -0.54996
                                    4 1s   -0.54996     5 1s    0.54996     6 1s    0.54996
   15.1    -0.00000     0.65650     1 1s    0.28425     1 2pz  -0.54954     1 2pz   1.00694     2 1s    0.28425     2 2pz   0.54954
                                    2 2pz  -1.00694
   16.1    -0.00000     0.76344     1 2py  -0.41826     1 2py   0.74236     2 2py  -0.41826     2 2py   0.74236     3 1s   -0.38945
                                    4 1s    0.38945     5 1s   -0.38945     6 1s    0.38945
   17.1    -0.00000     0.76801     1 2px  -0.74512     1 2px   0.63469     2 2px  -0.74512     2 2px   0.63469
   18.1    -0.00000     0.86299     1 1s   -0.85401     1 1s    1.38595     1 2pz   0.39635     2 1s   -0.85401     2 1s    1.38595
                                    2 2pz  -0.39635     3 1s   -0.41224     4 1s   -0.41224     5 1s   -0.41224     6 1s   -0.41224
   19.1    -0.00000     0.87151     1 2px  -0.80323     1 2px   1.10744     2 2px   0.80323     2 2px  -1.10744
   20.1    -0.00000     0.93977     1 1s   -0.58260     1 2pz   0.59450     1 2pz  -0.49798     2 1s    0.58260     2 2pz   0.59450
                                    2 2pz  -0.49798     3 1s    0.40064     4 1s    0.40064     5 1s   -0.40064     6 1s   -0.40064
   21.1    -0.00000     1.07731     1 2py  -0.67151     1 2py   1.08560     2 2py  -0.67151     2 2py   1.08560     3 1s    0.38064
                                    3 1s   -1.04474     4 1s   -0.38064     4 1s    1.04474     5 1s    0.38064     5 1s   -1.04474
                                    6 1s   -0.38064     6 1s    1.04474
   22.1    -0.00000     1.13116     1 2py   0.91061     1 2py  -2.67986     2 2py  -0.91061     2 2py   2.67986     3 1s    1.38960
                                    4 1s   -1.38960     5 1s   -1.38960     6 1s    1.38960
   23.1    -0.00000     1.18284     1 1s    1.03372     1 1s   -1.69929     1 2pz   0.35833     1 2pz  -0.49388     2 1s    1.03372
                                    2 1s   -1.69929     2 2pz  -0.35833     2 2pz   0.49388     3 1s   -0.43150     3 1s    0.85232
                                    4 1s   -0.43150     4 1s    0.85232     5 1s   -0.43150     5 1s    0.85232     6 1s   -0.43150
                                    6 1s    0.85232
   24.1    -0.00000     1.19296     1 1s    0.55167     1 1s   -0.62431     1 2pz   0.63914     1 2pz  -1.18264     2 1s   -0.55167
                                    2 1s    0.62431     2 2pz   0.63914     2 2pz  -1.18264     3 1s   -0.44767     3 1s    0.95954
                                    4 1s   -0.44767     4 1s    0.95954     5 1s    0.44767     5 1s   -0.95954     6 1s    0.44767
                                    6 1s   -0.95954
   25.1    -0.00000     1.32378     1 1s   -1.58208     1 1s    5.38067     1 2pz   0.27010     1 2pz  -1.96612     2 1s    1.58208
                                    2 1s   -5.38067     2 2pz   0.27010     2 2pz  -1.96612     3 1s   -0.27960     4 1s   -0.27960
                                    5 1s    0.27960     6 1s    0.27960
   26.1    -0.00000     1.45739     1 2py   2.64803     2 2py  -2.64803     3 1s   -0.68377     3 1s   -0.67919     4 1s    0.68377
                                    4 1s    0.67919     5 1s    0.68377     5 1s    0.67919     6 1s   -0.68377     6 1s   -0.67919
   27.1    -0.00000     1.71579     1 3d1+  0.61793     2 3d1+ -0.61793
   28.1    -0.00000     1.80856     1 3d2-  0.68065     2 3d2-  0.68065
   29.1    -0.00000     2.11065     1 3d2-  0.73691     2 3d2- -0.73691
   30.1    -0.00000     2.16407     1 1s   -0.57461     1 3d2+  0.71219     2 1s   -0.57461     2 3d2+  0.71219     3 1s    0.35847
                                    4 1s    0.35847     5 1s    0.35847     6 1s    0.35847
   31.1    -0.00000     2.27253     1 2py   0.25512     1 3d1-  0.67923     2 2py   0.25512     2 3d1- -0.67923     3 1s   -0.49471
                                    4 1s    0.49471     5 1s   -0.49471     6 1s    0.49471
   32.1    -0.00000     2.39266     1 1s   -0.50637     1 2pz   0.29910     1 2pz  -0.44395     1 3d0   0.69670     2 1s   -0.50637
                                    2 2pz  -0.29910     2 2pz   0.44395     2 3d0   0.69670
   33.1    -0.00000     2.57273     1 1s    0.31017     1 1s   -1.31282     1 2pz   0.26622     1 3d2+  0.78961     2 1s   -0.31017
                                    2 1s    1.31282     2 2pz   0.26622     2 3d2+ -0.78961     3 1s    0.42115     4 1s    0.42115
                                    5 1s   -0.42115     6 1s   -0.42115
   34.1    -0.00000     2.69230     1 2px  -0.26651     1 3d1+  0.90688     2 2px   0.26651     2 3d1+  0.90688
   35.1    -0.00000     3.01345     1 2py   0.47596     1 3d1-  0.96101     2 2py  -0.47596     2 3d1-  0.96101     3 1s   -0.44306
                                    4 1s    0.44306     5 1s    0.44306     6 1s   -0.44306
   36.1    -0.00000     3.05204     1 1s    0.32617     1 1s    2.07087     1 2pz  -0.80368     1 2pz  -1.19538     1 3d0   1.11800
                                    2 1s   -0.32617     2 1s   -2.07087     2 2pz  -0.80368     2 2pz  -1.19538     2 3d0  -1.11800


 Natural orbital dump (state averaged) at molpro section  2140.2    (Orbital set 2)



 **********************************************************************************************************************************
 DATASETS  * FILE   NREC   LENGTH (MB)   RECORD NAMES
              1      20       31.36       500      610      700      900      950      970     1000      129      960     1100   
                                          VAR    BASINP    GEOM    SYMINP    ZMAT    AOBASIS   BASIS     P2S    ABASIS      S 
                                         1400     1410     1200     1210     1080     1600     1650     1300     1700     1380   
                                           T        V       H0       H01     AOSYM     SMH    MOLCAS    ERIS     OPER     JKOP   

              2       5        5.42       700     1000      520     2100     2140   
                                         GEOM     BASIS   MCVARS     RHF     MCSCF   

 PROGRAMS   *        TOTAL     MULTI    HF-SCF       INT
 CPU TIMES  *         0.62      0.16      0.11      0.26
 REAL TIME  *         0.88 SEC
 DISK USED  *        38.54 MB
 **********************************************************************************************************************************
 Molecular orbitals read from record     2140.2  Type=MCSCF/NATURAL (state averaged)
 Occupation numbers read from record     2140.2  Type=MCSCF/NATURAL (state averaged)
 Orbital energies read from record       2140.2  Type=MCSCF/NATURAL (state averaged)
 Redundancy group numbers read from rec  2140.2  Type=MCSCF/NATURAL (state averaged)

 MULTI/6-31G* energy=    -77.477917453833

           MULTI          HF-SCF
    -77.47791745    -78.02832162
 **********************************************************************************************************************************
 Molpro calculation terminated
