
 Primary working directories    : /scratch.local/johan406.molpro_temp/molpro.DP3S2sPi8h
 Secondary working directories  : /scratch.local/johan406.molpro_temp/molpro.DP3S2sPi8h
 Wavefunction directory         : /home/goodpast/johan406/wfu/
 Main file repository           : /scratch.local/johan406.molpro_temp/molpro.DP3S2sPi8h/

 id        : roweumn

 Nodes     nprocs
 cn0117       1

 Using customized tuning parameters: mindgm=1; mindgv=20; mindgc=4; mindgr=1; noblas=0; minvec=7
 default implementation of scratch files=df  


 Variables initialized (934), CPU time= 0.01 sec
                                                                                 !leave this line blank
 
 gprint, orbitals=30
 memory, 125., m
 symmetry, nosym
 nelect=16
 basis=6-31g*
 
 geometry={
 C -0.0 0.0 0.6659
 C 0.0 0.0 -0.6659
 H 0.0 0.9424 1.2514
 H -0.0 -0.9424 1.2514
 H 0.0 0.9424 -1.2514
 H 0.0 -0.9424 -1.2514
 }
 
 hf
 {multi,
 closed 7
 occ 9
 wf,spin=0;STATE,3
 }
 
 Commands  initialized (763), CPU time= 0.01 sec, 617 directives.
 Default parameters read. Elapsed time= 0.08 sec

 Checking input...
 Passed
1


                                         ***  PROGRAM SYSTEM MOLPRO  ***
                                       Copyright, TTI GmbH Stuttgart, 2015
                                    Version 2019.2 linked Oct 25 2019 22:50:27


 **********************************************************************************************************************************
 LABEL *                                                                                 
  64 bit serial version                                                                  DATE: 26-Jan-23          TIME: 20:51:41  
 **********************************************************************************************************************************

 SHA1:             8dbd9ae1082e4ce945b0f27595c9eb2d4aa09004
 **********************************************************************************************************************************


 Variable memory set to  125000000 words,  buffer space 

 SETTING NELECT         =        16.00000000                                  
 SETTING BASIS          =    6-31G*
 ZSYMEL=NOSYM


Geometry recognized as XYZ



 Recomputing integrals since basis changed


 Using spherical harmonics

 Library entry C      S 6-31G                selected for orbital group  1
 Library entry C      P 6-31G                selected for orbital group  1
 Library entry C      D 6-31G*               selected for orbital group  1
 Library entry H      S 6-31G                selected for orbital group  2


 PROGRAM * SEWARD (Integral evaluation for generally contracted gaussian basis sets)     Author: Roland Lindh, 1990

 Geometry written to block  1 of record 700


 Point group  C1  



 ATOMIC COORDINATES

 NR  ATOM    CHARGE       X              Y              Z

   1  C       6.00    0.000000000    0.000000000    1.258368626
   2  C       6.00    0.000000000    0.000000000   -1.258368626
   3  H       1.00    0.000000000    1.780877900    2.364803272
   4  H       1.00    0.000000000   -1.780877900    2.364803272
   5  H       1.00    0.000000000    1.780877900   -2.364803272
   6  H       1.00    0.000000000   -1.780877900   -2.364803272

 Bond lengths in Bohr (Angstrom)

 1-2  2.516737253  1-3  2.096598130  1-4  2.096598130  2-5  2.096598130  2-6  2.096598130
     ( 1.331800000)     ( 1.109471951)     ( 1.109471951)     ( 1.109471951)     ( 1.109471951)

 Bond angles

  1-2-5  121.85210873   1-2-6  121.85210873   2-1-3  121.85210873   2-1-4  121.85210873

  3-1-4  116.29578254   5-2-6  116.29578254

 NUCLEAR CHARGE:                   16
 NUMBER OF PRIMITIVE AOS:          72
 NUMBER OF SYMMETRY AOS:           70
 NUMBER OF CONTRACTIONS:           36   (   36A   )
 NUMBER OF CORE ORBITALS:           2   (    2A   )
 NUMBER OF VALENCE ORBITALS:       12   (   12A   )


 NUCLEAR REPULSION ENERGY   33.01826293

 EXTRA SYMMETRY OF AOS IN SYMMETRY 1:   1 1 1 2 1 1 2 1 1 1   3 2 1 1 1 1 1 2 1 1   2 1 1 1 3 2 1 1 1 1   1 1 1 1 1 1

 Eigenvalues of metric

         1 0.820E-02 0.190E-01 0.410E-01 0.501E-01 0.772E-01 0.188E+00 0.219E+00 0.226E+00


 Contracted 2-electron integrals neglected if value below      1.0D-11
 AO integral compression algorithm  1   Integral accuracy      1.0D-11

     0.786 MB (compressed) written to integral file ( 37.7%)


 NUMBER OF SORTED TWO-ELECTRON INTEGRALS:     222111.     BUFFER LENGTH:  32768
 NUMBER OF SEGMENTS:   1  SEGMENT LENGTH:     222111      RECORD LENGTH: 524288

 Memory used in sort:       0.78 MW

 SORT1 READ      284735. AND WROTE       98243. INTEGRALS IN      1 RECORDS. CPU TIME:     0.00 SEC, REAL TIME:     0.01 SEC
 SORT2 READ       98243. AND WROTE      222111. INTEGRALS IN      3 RECORDS. CPU TIME:     0.02 SEC, REAL TIME:     0.02 SEC

 FILE SIZES:   FILE 1:    30.9 MBYTE,  FILE 4:     4.2 MBYTE,   TOTAL:     35.1 MBYTE

 OPERATOR DM      FOR CENTER  0  COORDINATES:    0.000000    0.000000    0.000000


 **********************************************************************************************************************************
 DATASETS  * FILE   NREC   LENGTH (MB)   RECORD NAMES
              1      19       30.63       500      610      700      900      950      970     1000      129      960     1100   
                                          VAR    BASINP    GEOM    SYMINP    ZMAT    AOBASIS   BASIS     P2S    ABASIS      S 
                                         1400     1410     1200     1210     1080     1600     1650     1300     1700   
                                           T        V       H0       H01     AOSYM     SMH    MOLCAS    ERIS     OPER   

 PROGRAMS   *        TOTAL       INT
 CPU TIMES  *         0.35      0.26
 REAL TIME  *         0.57 SEC
 DISK USED  *        35.45 MB
 **********************************************************************************************************************************


 PROGRAM * RHF-SCF (CLOSED SHELL)       Authors: W. Meyer, H.-J. Werner


 NUMBER OF ELECTRONS:       8+    8-    SPACE SYMMETRY=1    SPIN SYMMETRY: Singlet 
 CONVERGENCE THRESHOLDS:    1.00E-05 (Density)    1.00E-07 (Energy)
 MAX. NUMBER OF ITERATIONS:       60
 INTERPOLATION TYPE:            DIIS
 INTERPOLATION STEPS:              2 (START)      1 (STEP)
 LEVEL SHIFTS:                  0.00 (CLOSED)  0.00 (OPEN) 



 Orbital guess generated from atomic densities. Full valence occupancy:    8

 Molecular orbital dump at record        2100.2

 Initial occupancy:   8

 ITERATION    DDIFF          GRAD             ENERGY        2-EL.EN.            DIPOLE MOMENTS         DIIS   ORB.
    1      0.000D+00      0.000D+00       -78.00406241    118.044053   -0.00000   -0.00000    0.00000    0    start
    2      0.000D+00      0.849D-02       -78.02556909    116.169338    0.00000    0.00000    0.00000    1    diag
    3      0.804D-02      0.296D-02       -78.02775978    116.824464   -0.00000    0.00000   -0.00000    2    diag
    4      0.272D-02      0.717D-03       -78.02797580    116.721913    0.00000    0.00000    0.00000    3    diag
    5      0.108D-02      0.716D-04       -78.02797818    116.725299    0.00000   -0.00000    0.00000    4    diag
    6      0.154D-03      0.951D-05       -78.02797823    116.724803   -0.00000   -0.00000    0.00000    5    diag
    7      0.195D-04      0.133D-05       -78.02797823    116.724812   -0.00000    0.00000   -0.00000    6    diag
    8      0.213D-05      0.171D-06       -78.02797823    116.724804    0.00000    0.00000   -0.00000    0    orth

 Final occupancy:   8

 !RHF STATE  1.1 Energy               -78.027978226910
 Nuclear energy                        33.01826293
 One-electron energy                 -169.40864328
 Two-electron energy                   58.36240213
 Virial quotient                       -1.00233938
 !RHF STATE  1.1 Dipole moment          0.00000000     0.00000000    -0.00000000
 Dipole moment /Debye                   0.00000000     0.00000000    -0.00000000

 ELECTRON ORBITALS
 =================

  Orbital  Occupation    Energy     Coefficients
    1.1     2.00000   -11.23282     1 1s    0.70419     2 1s    0.70419
    2.1     2.00000   -11.23117     1 1s    0.70457     2 1s   -0.70457
    3.1     2.00000    -1.02446     1 1s    0.30249     2 1s    0.30249
    4.1     2.00000    -0.77858     1 1s    0.25185     2 1s   -0.25185
    5.1     2.00000    -0.62841     1 2py   0.31813     2 2py   0.31813
    6.1     2.00000    -0.57996     1 2pz   0.40324     2 2pz  -0.40324
    7.1     2.00000    -0.49424     1 2py   0.29802     2 2py  -0.29802
    8.1     2.00000    -0.37229     1 2px   0.37491     1 2px   0.30568     2 2px   0.37491     2 2px   0.30568
    9.1     0.00000     0.17982     1 2px   0.34230     1 2px   0.73729     2 2px  -0.34230     2 2px  -0.73729
   10.1     0.00000     0.25940     1 1s   -1.41017     1 2pz  -0.63048     2 1s   -1.41017     2 2pz   0.63048     3 1s    0.99346
                                    4 1s    0.99346     5 1s    0.99346     6 1s    0.99346
   11.1     0.00000     0.28275     1 2py  -0.25647     1 2py  -0.76934     2 2py  -0.25647     2 2py  -0.76934     3 1s    1.03671
                                    4 1s   -1.03671     5 1s    1.03671     6 1s   -1.03671
   12.1     0.00000     0.29908     1 1s    1.79325     2 1s   -1.79325     3 1s   -1.02873     4 1s   -1.02873     5 1s    1.02873
                                    6 1s    1.02873
   13.1     0.00000     0.38882     1 2py   0.25572     1 2py   1.81567     2 2py  -0.25572     2 2py  -1.81567     3 1s   -1.54193
                                    4 1s    1.54193     5 1s    1.54193     6 1s   -1.54193
   14.1     0.00000     0.49155     1 1s   -3.17186     1 2pz   2.97092     2 1s    3.17186     2 2pz   2.97092     3 1s   -0.53630
                                    4 1s   -0.53630     5 1s    0.53630     6 1s    0.53630
   15.1     0.00000     0.66844     1 2pz  -0.55938     1 2pz   1.02897     2 2pz   0.55938     2 2pz  -1.02897
   16.1     0.00000     0.77357     1 2px  -0.73838     1 2px   0.63994     2 2px  -0.73838     2 2px   0.63994
   17.1     0.00000     0.77434     1 2py  -0.40643     1 2py   0.73025     2 2py  -0.40643     2 2py   0.73025     3 1s   -0.39533
                                    4 1s    0.39533     5 1s   -0.39533     6 1s    0.39533
   18.1     0.00000     0.86528     1 1s   -0.85930     1 1s    1.35902     1 2pz   0.35398     2 1s   -0.85930     2 1s    1.35902
                                    2 2pz  -0.35398     3 1s   -0.41250     4 1s   -0.41250     5 1s   -0.41250     6 1s   -0.41250
   19.1     0.00000     0.88899     1 2px  -0.81902     1 2px   1.07667     2 2px   0.81902     2 2px  -1.07667
   20.1     0.00000     0.95867     1 1s   -0.73161     1 2pz   0.58655     1 2pz  -0.40571     2 1s    0.73161     2 2pz   0.58655
                                    2 2pz  -0.40571     3 1s    0.40344     4 1s    0.40344     5 1s   -0.40344     6 1s   -0.40344
   21.1     0.00000     1.09096     1 2py  -0.68338     1 2py   1.08418     2 2py  -0.68338     2 2py   1.08418     3 1s    0.37882
                                    3 1s   -1.03405     4 1s   -0.37882     4 1s    1.03405     5 1s    0.37882     5 1s   -1.03405
                                    6 1s   -0.37882     6 1s    1.03405
   22.1     0.00000     1.14256     1 2py   0.91295     1 2py  -2.65347     2 2py  -0.91295     2 2py   2.65347     3 1s    1.37254
                                    4 1s   -1.37254     5 1s   -1.37254     6 1s    1.37254
   23.1     0.00000     1.18411     1 1s    1.03900     1 1s   -1.70146     1 2pz   0.35352     1 2pz  -0.48715     2 1s    1.03900
                                    2 1s   -1.70146     2 2pz  -0.35352     2 2pz   0.48715     3 1s   -0.43006     3 1s    0.85150
                                    4 1s   -0.43006     4 1s    0.85150     5 1s   -0.43006     5 1s    0.85150     6 1s   -0.43006
                                    6 1s    0.85150
   24.1     0.00000     1.19298     1 1s    0.59391     1 1s   -0.77144     1 2pz   0.63065     1 2pz  -1.12594     2 1s   -0.59391
                                    2 1s    0.77144     2 2pz   0.63065     2 2pz  -1.12594     3 1s   -0.44286     3 1s    0.96564
                                    4 1s   -0.44286     4 1s    0.96564     5 1s    0.44286     5 1s   -0.96564     6 1s    0.44286
                                    6 1s   -0.96564
   25.1     0.00000     1.34424     1 1s   -1.56468     1 1s    5.35104     1 2pz   0.28840     1 2pz  -2.00044     2 1s    1.56468
                                    2 1s   -5.35104     2 2pz   0.28840     2 2pz  -2.00044     3 1s   -0.25010     4 1s   -0.25010
                                    5 1s    0.25010     6 1s    0.25010
   26.1     0.00000     1.46507     1 2py   2.65414     2 2py  -2.65414     3 1s   -0.68375     3 1s   -0.67979     4 1s    0.68375
                                    4 1s    0.67979     5 1s    0.68375     5 1s    0.67979     6 1s   -0.68375     6 1s   -0.67979
   27.1     0.00000     1.74166     1 3d1+  0.61816     2 3d1+ -0.61816
   28.1     0.00000     1.82237     1 3d2-  0.68061     2 3d2-  0.68061
   29.1     0.00000     2.13407     1 3d2-  0.73696     2 3d2- -0.73696
   30.1     0.00000     2.17746     1 1s   -0.57642     1 3d2+  0.71235     2 1s   -0.57642     2 3d2+  0.71235     3 1s    0.35539
                                    4 1s    0.35539     5 1s    0.35539     6 1s    0.35539
   31.1     0.00000     2.28603     1 3d1-  0.68024     2 3d1- -0.68024     3 1s   -0.48950     4 1s    0.48950     5 1s   -0.48950
                                    6 1s    0.48950
   32.1     0.00000     2.41290     1 1s   -0.50837     1 2pz   0.29364     1 2pz  -0.44112     1 3d0   0.69722     2 1s   -0.50837
                                    2 2pz  -0.29364     2 2pz   0.44112     2 3d0   0.69722
   33.1     0.00000     2.59032     1 1s    0.31011     1 1s   -1.30279     1 2pz   0.26668     1 3d2+  0.78979     2 1s   -0.31011
                                    2 1s    1.30279     2 2pz   0.26668     2 3d2+ -0.78979     3 1s    0.41645     4 1s    0.41645
                                    5 1s   -0.41645     6 1s   -0.41645
   34.1     0.00000     2.71511     1 2px  -0.26580     1 3d1+  0.90676     2 2px   0.26580     2 3d1+  0.90676
   35.1     0.00000     3.02380     1 2py   0.47013     1 3d1-  0.96076     2 2py  -0.47013     2 3d1-  0.96076     3 1s   -0.43839
                                    4 1s    0.43839     5 1s    0.43839     6 1s   -0.43839
   36.1     0.00000     3.07052     1 1s    0.33447     1 1s    2.04667     1 2pz  -0.81222     1 2pz  -1.18208     1 3d0   1.11662
                                    2 1s   -0.33447     2 1s   -2.04667     2 2pz  -0.81222     2 2pz  -1.18208     2 3d0  -1.11662


 HOMO      8.1    -0.372288 =     -10.1305eV
 LUMO      9.1     0.179823 =       4.8932eV
 LUMO-HOMO         0.552111 =      15.0237eV


 **********************************************************************************************************************************
 DATASETS  * FILE   NREC   LENGTH (MB)   RECORD NAMES
              1      19       30.63       500      610      700      900      950      970     1000      129      960     1100   
                                          VAR    BASINP    GEOM    SYMINP    ZMAT    AOBASIS   BASIS     P2S    ABASIS      S 
                                         1400     1410     1200     1210     1080     1600     1650     1300     1700   
                                           T        V       H0       H01     AOSYM     SMH    MOLCAS    ERIS     OPER   

              2       4        2.86       700     1000      520     2100   
                                         GEOM     BASIS   MCVARS     RHF  

 PROGRAMS   *        TOTAL    HF-SCF       INT
 CPU TIMES  *         0.45      0.10      0.26
 REAL TIME  *         0.69 SEC
 DISK USED  *        35.45 MB
 **********************************************************************************************************************************


 PROGRAM * MULTI (Direct Multiconfiguration SCF)       Authors: P.J. Knowles, H.-J. Werner (1984)


 Number of closed-shell orbitals:   7 (   7 )
 Number of active  orbitals:        2 (   2 )
 Number of external orbitals:      27 (  27 )

 State symmetry 1

 Number of electrons:     2    Spin symmetry=Singlet   Space symmetry=1
 Number of states:        3
 Number of CSFs:          3   (4 determinants, 4 intermediate states)

 Molecular orbitals read from record     2100.2  Type=RHF/CANONICAL (state 1.1)

 EXTRA SYMMETRY OF MOS IN SYMMETRY 1:   1 1 1 1 1 1 1 2 2 1   1 1 1 1 1 2 1 1 2 1   1 1 1 1 1 1 2 3 3 1   1 1 1 2 1 1

 Wavefunction dump at record             2140.2

 Convergence thresholds  0.10E-01 (gradient)  0.10E-05 (energy)  0.10E-02 (step length)

 Weight factors for state symmetry  1:    0.33333   0.33333   0.33333

 Number of orbital rotations:      257   (    14 Core/Active    189 Core/Virtual   0 Active/Active     54 Active/Virtual)
 Total number of variables:        269

 Micro-Iterations solved by the two-step solver

 ITER. MIC  NCI  NEG     ENERGY(VAR)     ENERGY(PROJ)   ENERGY CHANGE     GRAD(0)  GRAD(ORB)   GRAD(CI)     STEP       TIME

   1    3    3    0     -77.72339753     -77.72982538   -0.00642786    0.13409409 0.00000171 0.00000000  0.64D-01      0.06
   2    2    3    0     -77.72971981     -77.72972399   -0.00000418    0.00319327 0.00000207 0.00000000  0.17D-02      0.10
   3    2    3    0     -77.72972399     -77.72972399   -0.00000000    0.00000243 0.00000000 0.00000000  0.15D-05      0.13

 ** WVFN ****  CONVERGENCE REACHED, FINAL GRADIENT:  0.16D-11



 Results for state 1.1
 =====================

 !MCSCF STATE  1.1 Energy             -78.045212308542
 Nuclear energy                        33.01826293
 Kinetic energy                        77.91717553
 One electron energy                 -169.55320957
 Two electron energy                   58.48973433
 Virial ratio                           2.00164324

 !MCSCF STATE  1.1 Dipole moment        0.00000000    -0.00000000    -0.00000000
 Dipole moment /Debye                   0.00000000    -0.00000000    -0.00000000

 Results for state 2.1
 =====================

 !MCSCF STATE  2.1 Energy             -77.666784148942
 Nuclear energy                        33.01826293
 Kinetic energy                        78.09471498
 One electron energy                 -168.96560895
 Two electron energy                   58.28056188
 Virial ratio                           1.99452036

 !MCSCF STATE  2.1 Dipole moment        0.00000000    -0.00000000    -0.00000000
 Dipole moment /Debye                   0.00000000    -0.00000000    -0.00000000

 Results for state 3.1
 =====================

 !MCSCF STATE  3.1 Energy             -77.477175517549
 Nuclear energy                        33.01826293
 Kinetic energy                        78.27225443
 One electron energy                 -168.37800834
 Two electron energy                   57.88256989
 Virial ratio                           1.98984214

 !MCSCF STATE  3.1 Dipole moment        0.00000000    -0.00000000    -0.00000000
 Dipole moment /Debye                   0.00000000    -0.00000000    -0.00000000

 State-averaged charge density matrix saved on record  2140.2 (density set 1)

 !MCSCF trans         <2.1|DMZ|1.1>    -1.508971380502 au =    -3.835171481256 Debye
 !MCSCF trans         <3.1|DMZ|2.1>    -2.258431743874 au =    -5.739984951595 Debye


 NATURAL ORBITALS (state averaged)
 =================================

  Orbital  Occupation    Energy     Coefficients
    1.1     2.00000   -11.24859     1 1s    0.70421     2 1s    0.70421
    2.1     2.00000   -11.24722     1 1s    0.70453     2 1s   -0.70453
    3.1     2.00000    -1.03982     1 1s    0.31044     2 1s    0.31044
    4.1     2.00000    -0.78631     1 1s    0.29853     2 1s   -0.29853
    5.1     2.00000    -0.64124     1 2py   0.32410     2 2py   0.32410
    6.1     2.00000    -0.59442     1 2pz   0.40464     2 2pz  -0.40464
    7.1     2.00000    -0.50053     1 2py   0.30470     2 2py  -0.30470
    8.1     1.00000     0.03481     1 2px   0.38078     1 2px   0.68955     2 2px  -0.38078     2 2px  -0.68955
    9.1     1.00000    -0.22758     1 2px   0.35953     1 2px   0.31710     2 2px   0.35953     2 2px   0.31710
   10.1    -0.00000     0.25688     1 1s   -1.40664     1 2pz  -0.63553     2 1s   -1.40664     2 2pz   0.63553     3 1s    0.99330
                                    4 1s    0.99330     5 1s    0.99330     6 1s    0.99330
   11.1    -0.00000     0.27388     1 2py  -0.25476     1 2py  -0.75901     2 2py  -0.25476     2 2py  -0.75901     3 1s    1.02831
                                    4 1s   -1.02831     5 1s    1.02831     6 1s   -1.02831
   12.1    -0.00000     0.29584     1 1s    1.82024     2 1s   -1.82024     3 1s   -1.02318     4 1s   -1.02318     5 1s    1.02318
                                    6 1s    1.02318
   13.1    -0.00000     0.38426     1 2py   0.25950     1 2py   1.80100     2 2py  -0.25950     2 2py  -1.80100     3 1s   -1.53514
                                    4 1s    1.53514     5 1s    1.53514     6 1s   -1.53514
   14.1    -0.00000     0.48893     1 1s   -3.14749     1 2pz   2.95379     2 1s    3.14749     2 2pz   2.95379     3 1s   -0.54676
                                    4 1s   -0.54676     5 1s    0.54676     6 1s    0.54676
   15.1    -0.00000     0.65638     1 1s    0.28601     1 2pz  -0.54957     1 2pz   1.00644     2 1s    0.28601     2 2pz   0.54957
                                    2 2pz  -1.00644
   16.1    -0.00000     0.76422     1 2py  -0.41881     1 2py   0.74010     2 2py  -0.41881     2 2py   0.74010     3 1s   -0.38994
                                    4 1s    0.38994     5 1s   -0.38994     6 1s    0.38994
   17.1    -0.00000     0.76780     1 2px  -0.74498     1 2px   0.63472     2 2px  -0.74498     2 2px   0.63472
   18.1    -0.00000     0.86323     1 1s   -0.85215     1 1s    1.37923     1 2pz   0.39692     2 1s   -0.85215     2 1s    1.37923
                                    2 2pz  -0.39692     3 1s   -0.41321     4 1s   -0.41321     5 1s   -0.41321     6 1s   -0.41321
   19.1    -0.00000     0.87142     1 2px  -0.80325     1 2px   1.10766     2 2px   0.80325     2 2px  -1.10766
   20.1    -0.00000     0.94006     1 1s   -0.57442     1 2pz   0.59354     1 2pz  -0.49427     2 1s    0.57442     2 2pz   0.59354
                                    2 2pz  -0.49427     3 1s    0.40176     4 1s    0.40176     5 1s   -0.40176     6 1s   -0.40176
   21.1    -0.00000     1.07581     1 2py  -0.67105     1 2py   1.08444     2 2py  -0.67105     2 2py   1.08444     3 1s    0.38052
                                    3 1s   -1.04295     4 1s   -0.38052     4 1s    1.04295     5 1s    0.38052     5 1s   -1.04295
                                    6 1s   -0.38052     6 1s    1.04295
   22.1    -0.00000     1.12996     1 2py   0.90958     1 2py  -2.66327     2 2py  -0.90958     2 2py   2.66327     3 1s    1.38184
                                    4 1s   -1.38184     5 1s   -1.38184     6 1s    1.38184
   23.1    -0.00000     1.18092     1 1s    1.03394     1 1s   -1.69782     1 2pz   0.35760     1 2pz  -0.49337     2 1s    1.03394
                                    2 1s   -1.69782     2 2pz  -0.35760     2 2pz   0.49337     3 1s   -0.43086     3 1s    0.85139
                                    4 1s   -0.43086     4 1s    0.85139     5 1s   -0.43086     5 1s    0.85139     6 1s   -0.43086
                                    6 1s    0.85139
   24.1    -0.00000     1.19123     1 1s    0.55558     1 1s   -0.64009     1 2pz   0.63939     1 2pz  -1.17624     2 1s   -0.55558
                                    2 1s    0.64009     2 2pz   0.63939     2 2pz  -1.17624     3 1s   -0.44605     3 1s    0.95907
                                    4 1s   -0.44605     4 1s    0.95907     5 1s    0.44605     5 1s   -0.95907     6 1s    0.44605
                                    6 1s   -0.95907
   25.1    -0.00000     1.32415     1 1s   -1.58048     1 1s    5.37875     1 2pz   0.27163     1 2pz  -1.97136     2 1s    1.58048
                                    2 1s   -5.37875     2 2pz   0.27163     2 2pz  -1.97136     3 1s   -0.27464     4 1s   -0.27464
                                    5 1s    0.27464     6 1s    0.27464
   26.1    -0.00000     1.45703     1 2py   2.65312     2 2py  -2.65312     3 1s   -0.68293     3 1s   -0.67895     4 1s    0.68293
                                    4 1s    0.67895     5 1s    0.68293     5 1s    0.67895     6 1s   -0.68293     6 1s   -0.67895
   27.1    -0.00000     1.71594     1 3d1+  0.61787     2 3d1+ -0.61787
   28.1    -0.00000     1.80859     1 3d2-  0.68061     2 3d2-  0.68061
   29.1    -0.00000     2.11103     1 3d2-  0.73696     2 3d2- -0.73696
   30.1    -0.00000     2.16219     1 1s   -0.57269     1 3d2+  0.71202     2 1s   -0.57269     2 3d2+  0.71202     3 1s    0.35722
                                    4 1s    0.35722     5 1s    0.35722     6 1s    0.35722
   31.1    -0.00000     2.26966     1 2py   0.25331     1 3d1-  0.67852     2 2py   0.25331     2 3d1- -0.67852     3 1s   -0.49294
                                    4 1s    0.49294     5 1s   -0.49294     6 1s    0.49294
   32.1    -0.00000     2.39302     1 1s   -0.50637     1 2pz   0.29967     1 2pz  -0.44364     1 3d0   0.69708     2 1s   -0.50637
                                    2 2pz  -0.29967     2 2pz   0.44364     2 3d0   0.69708
   33.1    -0.00000     2.57052     1 1s    0.31120     1 1s   -1.31017     1 2pz   0.26595     1 3d2+  0.78905     2 1s   -0.31120
                                    2 1s    1.31017     2 2pz   0.26595     2 3d2+ -0.78905     3 1s    0.41945     4 1s    0.41945
                                    5 1s   -0.41945     6 1s   -0.41945
   34.1    -0.00000     2.69274     1 2px  -0.26659     1 3d1+  0.90714     2 2px   0.26659     2 3d1+  0.90714
   35.1    -0.00000     3.01098     1 2py   0.46997     1 3d1-  0.96043     2 2py  -0.46997     2 3d1-  0.96043     3 1s   -0.44060
                                    4 1s    0.44060     5 1s    0.44060     6 1s   -0.44060
   36.1    -0.00000     3.05256     1 1s    0.32735     1 1s    2.07214     1 2pz  -0.80468     1 2pz  -1.19555     1 3d0   1.11829
                                    2 1s   -0.32735     2 1s   -2.07214     2 2pz  -0.80468     2 2pz  -1.19555     2 3d0  -1.11829


 EXTRA SYMMETRY OF MOS IN SYMMETRY 1:   1 1 1 1 1 1 1 2 2 1   1 1 1 1 1 1 2 1 2 1   1 1 1 1 1 1 2 3 3 1   1 1 1 2 1 1

 Natural orbital dump (state averaged) at molpro section  2140.2    (Orbital set 2)



 **********************************************************************************************************************************
 DATASETS  * FILE   NREC   LENGTH (MB)   RECORD NAMES
              1      20       31.36       500      610      700      900      950      970     1000      129      960     1100   
                                          VAR    BASINP    GEOM    SYMINP    ZMAT    AOBASIS   BASIS     P2S    ABASIS      S 
                                         1400     1410     1200     1210     1080     1600     1650     1300     1700     1380   
                                           T        V       H0       H01     AOSYM     SMH    MOLCAS    ERIS     OPER     JKOP   

              2       5        5.42       700     1000      520     2100     2140   
                                         GEOM     BASIS   MCVARS     RHF     MCSCF   

 PROGRAMS   *        TOTAL     MULTI    HF-SCF       INT
 CPU TIMES  *         0.62      0.17      0.10      0.26
 REAL TIME  *         0.89 SEC
 DISK USED  *        38.54 MB
 **********************************************************************************************************************************
 Molecular orbitals read from record     2140.2  Type=MCSCF/NATURAL (state averaged)
 Occupation numbers read from record     2140.2  Type=MCSCF/NATURAL (state averaged)
 Orbital energies read from record       2140.2  Type=MCSCF/NATURAL (state averaged)
 Redundancy group numbers read from rec  2140.2  Type=MCSCF/NATURAL (state averaged)

 MULTI/6-31G* energy=    -77.477175517549

           MULTI          HF-SCF
    -77.47717552    -78.02797823
 **********************************************************************************************************************************
 Molpro calculation terminated
