
 Primary working directories    : /scratch.local/johan406.molpro_temp/molpro.FqzyVYR2mG
 Secondary working directories  : /scratch.local/johan406.molpro_temp/molpro.FqzyVYR2mG
 Wavefunction directory         : /home/goodpast/johan406/wfu/
 Main file repository           : /scratch.local/johan406.molpro_temp/molpro.FqzyVYR2mG/

 id        : roweumn

 Nodes     nprocs
 cn0117       1

 Using customized tuning parameters: mindgm=1; mindgv=20; mindgc=4; mindgr=1; noblas=0; minvec=7
 default implementation of scratch files=df  


 Variables initialized (934), CPU time= 0.00 sec
                                                                                 !leave this line blank
 
 gprint, orbitals=30
 memory, 125., m
 symmetry, nosym
 nelect=16
 basis=6-31g*
 
 geometry={
 C -0.0 0.0 0.6637
 C 0.0 0.0 -0.6637
 H 0.0 0.9613 1.2629
 H -0.0 -0.9613 1.2629
 H 0.0 0.9613 -1.2629
 H 0.0 -0.9613 -1.2629
 }
 
 hf
 {multi,
 closed 7
 occ 9
 wf,spin=0;STATE,3
 }
 
 Commands  initialized (763), CPU time= 0.02 sec, 617 directives.
 Default parameters read. Elapsed time= 0.08 sec

 Checking input...
 Passed
1


                                         ***  PROGRAM SYSTEM MOLPRO  ***
                                       Copyright, TTI GmbH Stuttgart, 2015
                                    Version 2019.2 linked Oct 25 2019 22:50:27


 **********************************************************************************************************************************
 LABEL *                                                                                 
  64 bit serial version                                                                  DATE: 26-Jan-23          TIME: 20:52:44  
 **********************************************************************************************************************************

 SHA1:             8dbd9ae1082e4ce945b0f27595c9eb2d4aa09004
 **********************************************************************************************************************************


 Variable memory set to  125000000 words,  buffer space 

 SETTING NELECT         =        16.00000000                                  
 SETTING BASIS          =    6-31G*
 ZSYMEL=NOSYM


Geometry recognized as XYZ



 Recomputing integrals since basis changed


 Using spherical harmonics

 Library entry C      S 6-31G                selected for orbital group  1
 Library entry C      P 6-31G                selected for orbital group  1
 Library entry C      D 6-31G*               selected for orbital group  1
 Library entry H      S 6-31G                selected for orbital group  2


 PROGRAM * SEWARD (Integral evaluation for generally contracted gaussian basis sets)     Author: Roland Lindh, 1990

 Geometry written to block  1 of record 700


 Point group  C1  



 ATOMIC COORDINATES

 NR  ATOM    CHARGE       X              Y              Z

   1  C       6.00    0.000000000    0.000000000    1.254211229
   2  C       6.00    0.000000000    0.000000000   -1.254211229
   3  H       1.00    0.000000000    1.816593724    2.386535123
   4  H       1.00    0.000000000   -1.816593724    2.386535123
   5  H       1.00    0.000000000    1.816593724   -2.386535123
   6  H       1.00    0.000000000   -1.816593724   -2.386535123

 Bond lengths in Bohr (Angstrom)

 1-2  2.508422458  1-3  2.140600420  1-4  2.140600420  2-5  2.140600420  2-6  2.140600420
     ( 1.327400000)     ( 1.132756960)     ( 1.132756960)     ( 1.132756960)     ( 1.132756960)

 Bond angles

  1-2-5  121.93621911   1-2-6  121.93621911   2-1-3  121.93621911   2-1-4  121.93621911

  3-1-4  116.12756178   5-2-6  116.12756178

 NUCLEAR CHARGE:                   16
 NUMBER OF PRIMITIVE AOS:          72
 NUMBER OF SYMMETRY AOS:           70
 NUMBER OF CONTRACTIONS:           36   (   36A   )
 NUMBER OF CORE ORBITALS:           2   (    2A   )
 NUMBER OF VALENCE ORBITALS:       12   (   12A   )


 NUCLEAR REPULSION ENERGY   32.76493144

 EXTRA SYMMETRY OF AOS IN SYMMETRY 1:   1 1 1 2 1 1 2 1 1 1   3 2 1 1 1 1 1 2 1 1   2 1 1 1 3 2 1 1 1 1   1 1 1 1 1 1

 Eigenvalues of metric

         1 0.811E-02 0.203E-01 0.433E-01 0.530E-01 0.817E-01 0.186E+00 0.224E+00 0.226E+00


 Contracted 2-electron integrals neglected if value below      1.0D-11
 AO integral compression algorithm  1   Integral accuracy      1.0D-11

     0.786 MB (compressed) written to integral file ( 37.6%)


 NUMBER OF SORTED TWO-ELECTRON INTEGRALS:     222111.     BUFFER LENGTH:  32768
 NUMBER OF SEGMENTS:   1  SEGMENT LENGTH:     222111      RECORD LENGTH: 524288

 Memory used in sort:       0.78 MW

 SORT1 READ      284735. AND WROTE       98215. INTEGRALS IN      1 RECORDS. CPU TIME:     0.00 SEC, REAL TIME:     0.01 SEC
 SORT2 READ       98215. AND WROTE      222111. INTEGRALS IN      3 RECORDS. CPU TIME:     0.02 SEC, REAL TIME:     0.02 SEC

 FILE SIZES:   FILE 1:    30.9 MBYTE,  FILE 4:     4.2 MBYTE,   TOTAL:     35.1 MBYTE

 OPERATOR DM      FOR CENTER  0  COORDINATES:    0.000000    0.000000    0.000000


 **********************************************************************************************************************************
 DATASETS  * FILE   NREC   LENGTH (MB)   RECORD NAMES
              1      19       30.63       500      610      700      900      950      970     1000      129      960     1100   
                                          VAR    BASINP    GEOM    SYMINP    ZMAT    AOBASIS   BASIS     P2S    ABASIS      S 
                                         1400     1410     1200     1210     1080     1600     1650     1300     1700   
                                           T        V       H0       H01     AOSYM     SMH    MOLCAS    ERIS     OPER   

 PROGRAMS   *        TOTAL       INT
 CPU TIMES  *         0.36      0.26
 REAL TIME  *         0.56 SEC
 DISK USED  *        35.45 MB
 **********************************************************************************************************************************


 PROGRAM * RHF-SCF (CLOSED SHELL)       Authors: W. Meyer, H.-J. Werner


 NUMBER OF ELECTRONS:       8+    8-    SPACE SYMMETRY=1    SPIN SYMMETRY: Singlet 
 CONVERGENCE THRESHOLDS:    1.00E-05 (Density)    1.00E-07 (Energy)
 MAX. NUMBER OF ITERATIONS:       60
 INTERPOLATION TYPE:            DIIS
 INTERPOLATION STEPS:              2 (START)      1 (STEP)
 LEVEL SHIFTS:                  0.00 (CLOSED)  0.00 (OPEN) 



 Orbital guess generated from atomic densities. Full valence occupancy:    8

 Molecular orbital dump at record        2100.2

 Initial occupancy:   8

 ITERATION    DDIFF          GRAD             ENERGY        2-EL.EN.            DIPOLE MOMENTS         DIIS   ORB.
    1      0.000D+00      0.000D+00       -77.99903377    117.597318   -0.00000   -0.00000    0.00000    0    start
    2      0.000D+00      0.843D-02       -78.02028572    115.693186    0.00000    0.00000    0.00000    1    diag
    3      0.794D-02      0.300D-02       -78.02253318    116.366744   -0.00000    0.00000    0.00000    2    diag
    4      0.279D-02      0.722D-03       -78.02275529    116.261429   -0.00000   -0.00000   -0.00000    3    diag
    5      0.109D-02      0.749D-04       -78.02275795    116.265184   -0.00000   -0.00000    0.00000    4    diag
    6      0.161D-03      0.106D-04       -78.02275801    116.264643   -0.00000   -0.00000    0.00000    5    diag
    7      0.224D-04      0.146D-05       -78.02275801    116.264653   -0.00000    0.00000   -0.00000    6    diag
    8      0.243D-05      0.194D-06       -78.02275801    116.264645   -0.00000   -0.00000    0.00000    0    orth

 Final occupancy:   8

 !RHF STATE  1.1 Energy               -78.022758009816
 Nuclear energy                        32.76493144
 One-electron energy                 -168.92001179
 Two-electron energy                   58.13232234
 Virial quotient                       -1.00372229
 !RHF STATE  1.1 Dipole moment         -0.00000000    -0.00000000     0.00000000
 Dipole moment /Debye                  -0.00000000    -0.00000000     0.00000000

 ELECTRON ORBITALS
 =================

  Orbital  Occupation    Energy     Coefficients
    1.1     2.00000   -11.23812     1 1s    0.70420     2 1s    0.70420
    2.1     2.00000   -11.23643     1 1s    0.70459     2 1s   -0.70459
    3.1     2.00000    -1.02320     1 1s    0.30275     2 1s    0.30275
    4.1     2.00000    -0.76947     1 1s    0.25842     2 1s   -0.25842
    5.1     2.00000    -0.62159     1 2py   0.31578     2 2py   0.31578
    6.1     2.00000    -0.57786     1 2pz   0.40044     2 2pz  -0.40044
    7.1     2.00000    -0.48655     1 2py   0.29296     2 2py  -0.29296
    8.1     2.00000    -0.37446     1 2px   0.37611     1 2px   0.30405     2 2px   0.37611     2 2px   0.30405
    9.1     0.00000     0.18064     1 2px   0.34262     1 2px   0.73940     2 2px  -0.34262     2 2px  -0.73940
   10.1     0.00000     0.25420     1 1s   -1.35333     1 2pz  -0.61824     2 1s   -1.35333     2 2pz   0.61824     3 1s    0.96170
                                    4 1s    0.96170     5 1s    0.96170     6 1s    0.96170
   11.1     0.00000     0.27432     1 2py  -0.25942     1 2py  -0.74211     2 2py  -0.25942     2 2py  -0.74211     3 1s    0.99414
                                    4 1s   -0.99414     5 1s    0.99414     6 1s   -0.99414
   12.1     0.00000     0.29132     1 1s    1.69823     2 1s   -1.69823     3 1s   -0.99594     4 1s   -0.99594     5 1s    0.99594
                                    6 1s    0.99594
   13.1     0.00000     0.38697     1 2py   0.26141     1 2py   1.77302     2 2py  -0.26141     2 2py  -1.77302     3 1s   -1.48291
                                    4 1s    1.48291     5 1s    1.48291     6 1s   -1.48291
   14.1     0.00000     0.49230     1 1s   -3.28951     1 2pz   2.98143     2 1s    3.28951     2 2pz   2.98143     3 1s   -0.50218
                                    4 1s   -0.50218     5 1s    0.50218     6 1s    0.50218
   15.1     0.00000     0.66747     1 1s    0.26882     1 2pz  -0.56043     1 2pz   1.02299     2 1s    0.26882     2 2pz   0.56043
                                    2 2pz  -1.02299
   16.1     0.00000     0.77099     1 2px  -0.73681     1 2px   0.64025     2 2px  -0.73681     2 2px   0.64025
   17.1     0.00000     0.78284     1 2py  -0.41196     1 2py   0.70398     2 2py  -0.41196     2 2py   0.70398     3 1s   -0.40129
                                    4 1s    0.40129     5 1s   -0.40129     6 1s    0.40129
   18.1     0.00000     0.86789     1 1s   -0.83813     1 1s    1.28813     1 2pz   0.36396     2 1s   -0.83813     2 1s    1.28813
                                    2 2pz  -0.36396     3 1s   -0.42381     4 1s   -0.42381     5 1s   -0.42381     6 1s   -0.42381
   19.1     0.00000     0.88790     1 2px  -0.81926     1 2px   1.07879     2 2px   0.81926     2 2px  -1.07879
   20.1     0.00000     0.96148     1 1s   -0.63505     1 2pz   0.57248     1 2pz  -0.36284     2 1s    0.63505     2 2pz   0.57248
                                    2 2pz  -0.36284     3 1s    0.41790     4 1s    0.41790     5 1s   -0.41790     6 1s   -0.41790
   21.1     0.00000     1.07451     1 2py  -0.67855     1 2py   1.07188     2 2py  -0.67855     2 2py   1.07188     3 1s    0.37684
                                    3 1s   -1.01446     4 1s   -0.37684     4 1s    1.01446     5 1s    0.37684     5 1s   -1.01446
                                    6 1s   -0.37684     6 1s    1.01446
   22.1     0.00000     1.12860     1 2py   0.89984     1 2py  -2.47434     2 2py  -0.89984     2 2py   2.47434     3 1s    1.29084
                                    4 1s   -1.29084     5 1s   -1.29084     6 1s    1.29084
   23.1     0.00000     1.16342     1 1s    1.04196     1 1s   -1.68536     1 2pz   0.34522     1 2pz  -0.48125     2 1s    1.04196
                                    2 1s   -1.68536     2 2pz  -0.34522     2 2pz   0.48125     3 1s   -0.42253     3 1s    0.84094
                                    4 1s   -0.42253     4 1s    0.84094     5 1s   -0.42253     5 1s    0.84094     6 1s   -0.42253
                                    6 1s    0.84094
   24.1     0.00000     1.17420     1 1s    0.61881     1 1s   -0.88920     1 2pz   0.63900     1 2pz  -1.07489     2 1s   -0.61881
                                    2 1s    0.88920     2 2pz   0.63900     2 2pz  -1.07489     3 1s   -0.42356     3 1s    0.95409
                                    4 1s   -0.42356     4 1s    0.95409     5 1s    0.42356     5 1s   -0.95409     6 1s    0.42356
                                    6 1s   -0.95409
   25.1     0.00000     1.34858     1 1s   -1.55258     1 1s    5.33437     1 2pz   0.29787     1 2pz  -2.04198     2 1s    1.55258
                                    2 1s   -5.33437     2 2pz   0.29787     2 2pz  -2.04198
   26.1     0.00000     1.46135     1 2py   2.69869     2 2py  -2.69869     3 1s   -0.67380     3 1s   -0.67204     4 1s    0.67380
                                    4 1s    0.67204     5 1s    0.67380     5 1s    0.67204     6 1s   -0.67380     6 1s   -0.67204
   27.1     0.00000     1.74328     1 3d1+  0.61756     2 3d1+ -0.61756
   28.1     0.00000     1.82252     1 3d2-  0.68019     2 3d2-  0.68019
   29.1     0.00000     2.13812     1 3d2-  0.73750     2 3d2- -0.73750
   30.1     0.00000     2.15641     1 1s   -0.55518     1 3d2+  0.70988     2 1s   -0.55518     2 3d2+  0.70988     3 1s    0.34123
                                    4 1s    0.34123     5 1s    0.34123     6 1s    0.34123
   31.1     0.00000     2.25443     1 3d1-  0.67252     2 3d1- -0.67252     3 1s   -0.47038     4 1s    0.47038     5 1s   -0.47038
                                    6 1s    0.47038
   32.1     0.00000     2.41679     1 1s   -0.50840     1 2pz   0.29907     1 2pz  -0.43837     1 3d0   0.70093     2 1s   -0.50840
                                    2 2pz  -0.29907     2 2pz   0.43837     2 3d0   0.70093
   33.1     0.00000     2.56572     1 1s    0.31974     1 1s   -1.27000     1 2pz   0.26201     1 3d2+  0.78377     2 1s   -0.31974
                                    2 1s    1.27000     2 2pz   0.26201     2 3d2+ -0.78377     3 1s    0.39789     4 1s    0.39789
                                    5 1s   -0.39789     6 1s   -0.39789
   34.1     0.00000     2.71973     1 2px  -0.26666     1 3d1+  0.90958     2 2px   0.26666     2 3d1+  0.90958
   35.1     0.00000     2.99698     1 2py   0.40366     1 3d1-  0.95478     2 2py  -0.40366     2 3d1-  0.95478     3 1s   -0.41164
                                    4 1s    0.41164     5 1s    0.41164     6 1s   -0.41164
   36.1     0.00000     3.07614     1 1s    0.34752     1 1s    2.06080     1 2pz  -0.82343     1 2pz  -1.18398     1 3d0   1.11981
                                    2 1s   -0.34752     2 1s   -2.06080     2 2pz  -0.82343     2 2pz  -1.18398     2 3d0  -1.11981


 HOMO      8.1    -0.374459 =     -10.1896eV
 LUMO      9.1     0.180636 =       4.9154eV
 LUMO-HOMO         0.555096 =      15.1049eV


 **********************************************************************************************************************************
 DATASETS  * FILE   NREC   LENGTH (MB)   RECORD NAMES
              1      19       30.63       500      610      700      900      950      970     1000      129      960     1100   
                                          VAR    BASINP    GEOM    SYMINP    ZMAT    AOBASIS   BASIS     P2S    ABASIS      S 
                                         1400     1410     1200     1210     1080     1600     1650     1300     1700   
                                           T        V       H0       H01     AOSYM     SMH    MOLCAS    ERIS     OPER   

              2       4        2.86       700     1000      520     2100   
                                         GEOM     BASIS   MCVARS     RHF  

 PROGRAMS   *        TOTAL    HF-SCF       INT
 CPU TIMES  *         0.46      0.10      0.26
 REAL TIME  *         0.69 SEC
 DISK USED  *        35.45 MB
 **********************************************************************************************************************************


 PROGRAM * MULTI (Direct Multiconfiguration SCF)       Authors: P.J. Knowles, H.-J. Werner (1984)


 Number of closed-shell orbitals:   7 (   7 )
 Number of active  orbitals:        2 (   2 )
 Number of external orbitals:      27 (  27 )

 State symmetry 1

 Number of electrons:     2    Spin symmetry=Singlet   Space symmetry=1
 Number of states:        3
 Number of CSFs:          3   (4 determinants, 4 intermediate states)

 Molecular orbitals read from record     2100.2  Type=RHF/CANONICAL (state 1.1)

 EXTRA SYMMETRY OF MOS IN SYMMETRY 1:   1 1 1 1 1 1 1 2 2 1   1 1 1 1 1 2 1 1 2 1   1 1 1 1 1 1 2 3 3 1   1 1 1 2 1 1

 Wavefunction dump at record             2140.2

 Convergence thresholds  0.10E-01 (gradient)  0.10E-05 (energy)  0.10E-02 (step length)

 Weight factors for state symmetry  1:    0.33333   0.33333   0.33333

 Number of orbital rotations:      257   (    14 Core/Active    189 Core/Virtual   0 Active/Active     54 Active/Virtual)
 Total number of variables:        269

 Micro-Iterations solved by the two-step solver

 ITER. MIC  NCI  NEG     ENERGY(VAR)     ENERGY(PROJ)   ENERGY CHANGE     GRAD(0)  GRAD(ORB)   GRAD(CI)     STEP       TIME

   1    3    3    0     -77.71579210     -77.72234644   -0.00655433    0.13509233 0.00000184 0.00000000  0.64D-01      0.07
   2    2    3    0     -77.72223587     -77.72224034   -0.00000448    0.00329793 0.00000223 0.00000000  0.18D-02      0.10
   3    2    3    0     -77.72224034     -77.72224034   -0.00000000    0.00000263 0.00000000 0.00000000  0.16D-05      0.14

 ** WVFN ****  CONVERGENCE REACHED, FINAL GRADIENT:  0.19D-11



 Results for state 1.1
 =====================

 !MCSCF STATE  1.1 Energy             -78.039702628404
 Nuclear energy                        32.76493144
 Kinetic energy                        77.80669672
 One electron energy                 -169.07306556
 Two electron energy                   58.26843148
 Virial ratio                           2.00299468

 !MCSCF STATE  1.1 Dipole moment        0.00000000    -0.00000000     0.00000000
 Dipole moment /Debye                   0.00000000    -0.00000000     0.00000000

 Results for state 2.1
 =====================

 !MCSCF STATE  2.1 Energy             -77.659497069215
 Nuclear energy                        32.76493144
 Kinetic energy                        77.98253938
 One electron energy                 -168.47603013
 Two electron energy                   58.05160162
 Virial ratio                           1.99585750

 !MCSCF STATE  2.1 Dipole moment        0.00000000    -0.00000000     0.00000000
 Dipole moment /Debye                   0.00000000    -0.00000000     0.00000000

 Results for state 3.1
 =====================

 !MCSCF STATE  3.1 Energy             -77.467521335660
 Nuclear energy                        32.76493144
 Kinetic energy                        78.15838203
 One electron energy                 -167.87899470
 Two electron energy                   57.64654192
 Virial ratio                           1.99116076

 !MCSCF STATE  3.1 Dipole moment        0.00000000    -0.00000000    -0.00000000
 Dipole moment /Debye                   0.00000000    -0.00000000    -0.00000000

 State-averaged charge density matrix saved on record  2140.2 (density set 1)

 !MCSCF trans         <2.1|DMZ|1.1>    -1.507772900120 au =    -3.832125447488 Debye
 !MCSCF trans         <3.1|DMZ|2.1>    -2.248099760870 au =    -5.713725390232 Debye


 NATURAL ORBITALS (state averaged)
 =================================

  Orbital  Occupation    Energy     Coefficients
    1.1     2.00000   -11.25389     1 1s    0.70422     2 1s    0.70422
    2.1     2.00000   -11.25249     1 1s    0.70455     2 1s   -0.70455
    3.1     2.00000    -1.03897     1 1s    0.31064     2 1s    0.31064
    4.1     2.00000    -0.77713     1 1s    0.30598     2 1s   -0.30598
    5.1     2.00000    -0.63440     1 2py   0.32194     2 2py   0.32194
    6.1     2.00000    -0.59184     1 2pz   0.40164     2 2pz  -0.40164
    7.1     2.00000    -0.49260     1 2py   0.29976     2 2py  -0.29976
    8.1     1.00000    -0.22915     1 2px   0.36073     1 2px   0.31549     2 2px   0.36073     2 2px   0.31549
    9.1     1.00000     0.03554     1 2px   0.38145     1 2px   0.69115     2 2px  -0.38145     2 2px  -0.69115
   10.1    -0.00000     0.25186     1 1s   -1.35015     1 2pz  -0.62276     2 1s   -1.35015     2 2pz   0.62276     3 1s    0.96173
                                    4 1s    0.96173     5 1s    0.96173     6 1s    0.96173
   11.1    -0.00000     0.26519     1 2py  -0.25766     1 2py  -0.73139     2 2py  -0.25766     2 2py  -0.73139     3 1s    0.98591
                                    4 1s   -0.98591     5 1s    0.98591     6 1s   -0.98591
   12.1    -0.00000     0.28801     1 1s    1.72710     2 1s   -1.72710     3 1s   -0.99044     4 1s   -0.99044     5 1s    0.99044
                                    6 1s    0.99044
   13.1    -0.00000     0.38213     1 2py   0.26534     1 2py   1.75815     2 2py  -0.26534     2 2py  -1.75815     3 1s   -1.47614
                                    4 1s    1.47614     5 1s    1.47614     6 1s   -1.47614
   14.1    -0.00000     0.48978     1 1s   -3.26411     1 2pz   2.96499     2 1s    3.26411     2 2pz   2.96499     3 1s   -0.51322
                                    4 1s   -0.51322     5 1s    0.51322     6 1s    0.51322
   15.1    -0.00000     0.65502     1 1s    0.30517     1 2pz  -0.54952     1 2pz   1.00130     2 1s    0.30517     2 2pz   0.54952
                                    2 2pz  -1.00130
   16.1    -0.00000     0.76540     1 2px  -0.74342     1 2px   0.63506     2 2px  -0.74342     2 2px   0.63506
   17.1    -0.00000     0.77299     1 2py  -0.42517     1 2py   0.71575     2 2py  -0.42517     2 2py   0.71575     3 1s   -0.39535
                                    4 1s    0.39535     5 1s   -0.39535     6 1s    0.39535
   18.1    -0.00000     0.86636     1 1s   -0.83082     1 1s    1.30578     1 2pz   0.40383     2 1s   -0.83082     2 1s    1.30578
                                    2 2pz  -0.40383     3 1s   -0.42391     4 1s   -0.42391     5 1s   -0.42391     6 1s   -0.42391
   19.1    -0.00000     0.87038     1 2px  -0.80335     1 2px   1.11013     2 2px   0.80335     2 2px  -1.11013
   20.1    -0.00000     0.94319     1 1s   -0.47996     1 2pz   0.58164     1 2pz  -0.45479     2 1s    0.47996     2 2pz   0.58164
                                    2 2pz  -0.45479     3 1s    0.41474     4 1s    0.41474     5 1s   -0.41474     6 1s   -0.41474
   21.1    -0.00000     1.05964     1 2py  -0.66564     1 2py   1.07107     2 2py  -0.66564     2 2py   1.07107     3 1s    0.37930
                                    3 1s   -1.02333     4 1s   -0.37930     4 1s    1.02333     5 1s    0.37930     5 1s   -1.02333
                                    6 1s   -0.37930     6 1s    1.02333
   22.1    -0.00000     1.11610     1 2py   0.89643     1 2py  -2.48749     2 2py  -0.89643     2 2py   2.48749     3 1s    1.30097
                                    4 1s   -1.30097     5 1s   -1.30097     6 1s    1.30097
   23.1    -0.00000     1.16027     1 1s    1.03680     1 1s   -1.68199     1 2pz   0.34963     1 2pz  -0.48796     2 1s    1.03680
                                    2 1s   -1.68199     2 2pz  -0.34963     2 2pz   0.48796     3 1s   -0.42347     3 1s    0.84104
                                    4 1s   -0.42347     4 1s    0.84104     5 1s   -0.42347     5 1s    0.84104     6 1s   -0.42347
                                    6 1s    0.84104
   24.1    -0.00000     1.17267     1 1s    0.58908     1 1s   -0.78221     1 2pz   0.64483     1 2pz  -1.11586     2 1s   -0.58908
                                    2 1s    0.78221     2 2pz   0.64483     2 2pz  -1.11586     3 1s   -0.42766     3 1s    0.94994
                                    4 1s   -0.42766     4 1s    0.94994     5 1s    0.42766     5 1s   -0.94994     6 1s    0.42766
                                    6 1s   -0.94994
   25.1    -0.00000     1.32844     1 1s   -1.56564     1 1s    5.35924     1 2pz   0.28469     1 2pz  -2.02041     2 1s    1.56564
                                    2 1s   -5.35924     2 2pz   0.28469     2 2pz  -2.02041
   26.1    -0.00000     1.45363     1 2py   2.69517     2 2py  -2.69517     3 1s   -0.67330     3 1s   -0.67003     4 1s    0.67330
                                    4 1s    0.67003     5 1s    0.67330     5 1s    0.67003     6 1s   -0.67330     6 1s   -0.67003
   27.1    -0.00000     1.71759     1 3d1+  0.61726     2 3d1+ -0.61726
   28.1    -0.00000     1.80884     1 3d2-  0.68019     2 3d2-  0.68019
   29.1    -0.00000     2.11516     1 3d2-  0.73750     2 3d2- -0.73750
   30.1    -0.00000     2.14128     1 1s   -0.55170     1 3d2+  0.70959     2 1s   -0.55170     2 3d2+  0.70959     3 1s    0.34297
                                    4 1s    0.34297     5 1s    0.34297     6 1s    0.34297
   31.1    -0.00000     2.23799     1 3d1-  0.67083     2 3d1- -0.67083     3 1s   -0.47384     4 1s    0.47384     5 1s   -0.47384
                                    6 1s    0.47384
   32.1    -0.00000     2.39711     1 1s   -0.50636     1 2pz   0.30514     1 2pz  -0.44078     1 3d0   0.70080     2 1s   -0.50636
                                    2 2pz  -0.30514     2 2pz   0.44078     2 3d0   0.70080
   33.1    -0.00000     2.54592     1 1s    0.32098     1 1s   -1.27831     1 2pz   0.26159     1 3d2+  0.78305     2 1s   -0.32098
                                    2 1s    1.27831     2 2pz   0.26159     2 3d2+ -0.78305     3 1s    0.40084     4 1s    0.40084
                                    5 1s   -0.40084     6 1s   -0.40084
   34.1    -0.00000     2.69751     1 2px  -0.26747     1 3d1+  0.90997     2 2px   0.26747     2 3d1+  0.90997
   35.1    -0.00000     2.98418     1 2py   0.40330     1 3d1-  0.95449     2 2py  -0.40330     2 3d1-  0.95449     3 1s   -0.41377
                                    4 1s    0.41377     5 1s    0.41377     6 1s   -0.41377
   36.1    -0.00000     3.05826     1 1s    0.34039     1 1s    2.08617     1 2pz  -0.81588     1 2pz  -1.19747     1 3d0   1.12151
                                    2 1s   -0.34039     2 1s   -2.08617     2 2pz  -0.81588     2 2pz  -1.19747     2 3d0  -1.12151


 Natural orbital dump (state averaged) at molpro section  2140.2    (Orbital set 2)



 **********************************************************************************************************************************
 DATASETS  * FILE   NREC   LENGTH (MB)   RECORD NAMES
              1      20       31.36       500      610      700      900      950      970     1000      129      960     1100   
                                          VAR    BASINP    GEOM    SYMINP    ZMAT    AOBASIS   BASIS     P2S    ABASIS      S 
                                         1400     1410     1200     1210     1080     1600     1650     1300     1700     1380   
                                           T        V       H0       H01     AOSYM     SMH    MOLCAS    ERIS     OPER     JKOP   

              2       5        5.42       700     1000      520     2100     2140   
                                         GEOM     BASIS   MCVARS     RHF     MCSCF   

 PROGRAMS   *        TOTAL     MULTI    HF-SCF       INT
 CPU TIMES  *         0.63      0.17      0.10      0.26
 REAL TIME  *         0.88 SEC
 DISK USED  *        38.54 MB
 **********************************************************************************************************************************
 Molecular orbitals read from record     2140.2  Type=MCSCF/NATURAL (state averaged)
 Occupation numbers read from record     2140.2  Type=MCSCF/NATURAL (state averaged)
 Orbital energies read from record       2140.2  Type=MCSCF/NATURAL (state averaged)
 Redundancy group numbers read from rec  2140.2  Type=MCSCF/NATURAL (state averaged)

 MULTI/6-31G* energy=    -77.467521335660

           MULTI          HF-SCF
    -77.46752134    -78.02275801
 **********************************************************************************************************************************
 Molpro calculation terminated
