
 Primary working directories    : /scratch.local/johan406.molpro_temp/molpro.DORbPBK0yc
 Secondary working directories  : /scratch.local/johan406.molpro_temp/molpro.DORbPBK0yc
 Wavefunction directory         : /home/goodpast/johan406/wfu/
 Main file repository           : /scratch.local/johan406.molpro_temp/molpro.DORbPBK0yc/

 id        : roweumn

 Nodes     nprocs
 cn0117       1

 Using customized tuning parameters: mindgm=1; mindgv=20; mindgc=4; mindgr=1; noblas=0; minvec=7
 default implementation of scratch files=df  


 Variables initialized (934), CPU time= 0.01 sec
                                                                                 !leave this line blank
 
 gprint, orbitals=30
 memory, 125., m
 symmetry, nosym
 nelect=16
 basis=6-31g*
 
 geometry={
 C -0.0 0.0 0.6631
 C 0.0 0.0 -0.6631
 H 0.0 0.9665 1.266
 H -0.0 -0.9665 1.266
 H 0.0 0.9665 -1.266
 H 0.0 -0.9665 -1.266
 }
 
 hf
 {multi,
 closed 7
 occ 9
 wf,spin=0;STATE,3
 }
 
 Commands  initialized (763), CPU time= 0.01 sec, 617 directives.
 Default parameters read. Elapsed time= 0.08 sec

 Checking input...
 Passed
1


                                         ***  PROGRAM SYSTEM MOLPRO  ***
                                       Copyright, TTI GmbH Stuttgart, 2015
                                    Version 2019.2 linked Oct 25 2019 22:50:27


 **********************************************************************************************************************************
 LABEL *                                                                                 
  64 bit serial version                                                                  DATE: 26-Jan-23          TIME: 20:53:01  
 **********************************************************************************************************************************

 SHA1:             8dbd9ae1082e4ce945b0f27595c9eb2d4aa09004
 **********************************************************************************************************************************


 Variable memory set to  125000000 words,  buffer space 

 SETTING NELECT         =        16.00000000                                  
 SETTING BASIS          =    6-31G*
 ZSYMEL=NOSYM


Geometry recognized as XYZ



 Recomputing integrals since basis changed


 Using spherical harmonics

 Library entry C      S 6-31G                selected for orbital group  1
 Library entry C      P 6-31G                selected for orbital group  1
 Library entry C      D 6-31G*               selected for orbital group  1
 Library entry H      S 6-31G                selected for orbital group  2


 PROGRAM * SEWARD (Integral evaluation for generally contracted gaussian basis sets)     Author: Roland Lindh, 1990

 Geometry written to block  1 of record 700


 Point group  C1  



 ATOMIC COORDINATES

 NR  ATOM    CHARGE       X              Y              Z

   1  C       6.00    0.000000000    0.000000000    1.253077393
   2  C       6.00    0.000000000    0.000000000   -1.253077393
   3  H       1.00    0.000000000    1.826420299    2.392393274
   4  H       1.00    0.000000000   -1.826420299    2.392393274
   5  H       1.00    0.000000000    1.826420299   -2.392393274
   6  H       1.00    0.000000000   -1.826420299   -2.392393274

 Bond lengths in Bohr (Angstrom)

 1-2  2.506154786  1-3  2.152638331  1-4  2.152638331  2-5  2.152638331  2-6  2.152638331
     ( 1.326200000)     ( 1.139127148)     ( 1.139127148)     ( 1.139127148)     ( 1.139127148)

 Bond angles

  1-2-5  121.95579957   1-2-6  121.95579957   2-1-3  121.95579957   2-1-4  121.95579957

  3-1-4  116.08840087   5-2-6  116.08840087

 NUCLEAR CHARGE:                   16
 NUMBER OF PRIMITIVE AOS:          72
 NUMBER OF SYMMETRY AOS:           70
 NUMBER OF CONTRACTIONS:           36   (   36A   )
 NUMBER OF CORE ORBITALS:           2   (    2A   )
 NUMBER OF VALENCE ORBITALS:       12   (   12A   )


 NUCLEAR REPULSION ENERGY   32.69758520

 EXTRA SYMMETRY OF AOS IN SYMMETRY 1:   1 1 1 2 1 1 2 1 1 1   3 2 1 1 1 1 1 2 1 1   2 1 1 1 3 2 1 1 1 1   1 1 1 1 1 1

 Eigenvalues of metric

         1 0.809E-02 0.207E-01 0.440E-01 0.538E-01 0.830E-01 0.185E+00 0.226E+00 0.226E+00


 Contracted 2-electron integrals neglected if value below      1.0D-11
 AO integral compression algorithm  1   Integral accuracy      1.0D-11

     0.786 MB (compressed) written to integral file ( 37.6%)


 NUMBER OF SORTED TWO-ELECTRON INTEGRALS:     222111.     BUFFER LENGTH:  32768
 NUMBER OF SEGMENTS:   1  SEGMENT LENGTH:     222111      RECORD LENGTH: 524288

 Memory used in sort:       0.78 MW

 SORT1 READ      284735. AND WROTE       98215. INTEGRALS IN      1 RECORDS. CPU TIME:     0.01 SEC, REAL TIME:     0.00 SEC
 SORT2 READ       98215. AND WROTE      222111. INTEGRALS IN      3 RECORDS. CPU TIME:     0.02 SEC, REAL TIME:     0.03 SEC

 FILE SIZES:   FILE 1:    30.9 MBYTE,  FILE 4:     4.2 MBYTE,   TOTAL:     35.1 MBYTE

 OPERATOR DM      FOR CENTER  0  COORDINATES:    0.000000    0.000000    0.000000


 **********************************************************************************************************************************
 DATASETS  * FILE   NREC   LENGTH (MB)   RECORD NAMES
              1      19       30.63       500      610      700      900      950      970     1000      129      960     1100   
                                          VAR    BASINP    GEOM    SYMINP    ZMAT    AOBASIS   BASIS     P2S    ABASIS      S 
                                         1400     1410     1200     1210     1080     1600     1650     1300     1700   
                                           T        V       H0       H01     AOSYM     SMH    MOLCAS    ERIS     OPER   

 PROGRAMS   *        TOTAL       INT
 CPU TIMES  *         0.34      0.25
 REAL TIME  *         0.57 SEC
 DISK USED  *        35.45 MB
 **********************************************************************************************************************************


 PROGRAM * RHF-SCF (CLOSED SHELL)       Authors: W. Meyer, H.-J. Werner


 NUMBER OF ELECTRONS:       8+    8-    SPACE SYMMETRY=1    SPIN SYMMETRY: Singlet 
 CONVERGENCE THRESHOLDS:    1.00E-05 (Density)    1.00E-07 (Energy)
 MAX. NUMBER OF ITERATIONS:       60
 INTERPOLATION TYPE:            DIIS
 INTERPOLATION STEPS:              2 (START)      1 (STEP)
 LEVEL SHIFTS:                  0.00 (CLOSED)  0.00 (OPEN) 



 Orbital guess generated from atomic densities. Full valence occupancy:    8

 Molecular orbital dump at record        2100.2

 Initial occupancy:   8

 ITERATION    DDIFF          GRAD             ENERGY        2-EL.EN.            DIPOLE MOMENTS         DIIS   ORB.
    1      0.000D+00      0.000D+00       -77.99723640    117.478188    0.00000   -0.00000   -0.00000    0    start
    2      0.000D+00      0.842D-02       -78.01842620    115.565277   -0.00000   -0.00000   -0.00000    1    diag
    3      0.791D-02      0.301D-02       -78.02069104    116.244110    0.00000   -0.00000   -0.00000    2    diag
    4      0.281D-02      0.723D-03       -78.02091502    116.138026    0.00000   -0.00000   -0.00000    3    diag
    5      0.110D-02      0.759D-04       -78.02091777    116.141887   -0.00000   -0.00000   -0.00000    4    diag
    6      0.164D-03      0.109D-04       -78.02091783    116.141333    0.00000    0.00000   -0.00000    5    diag
    7      0.233D-04      0.150D-05       -78.02091783    116.141344   -0.00000   -0.00000   -0.00000    6    diag
    8      0.252D-05      0.201D-06       -78.02091783    116.141335   -0.00000   -0.00000   -0.00000    0    orth

 Final occupancy:   8

 !RHF STATE  1.1 Energy               -78.020917830766
 Nuclear energy                        32.69758520
 One-electron energy                 -168.78917054
 Two-electron energy                   58.07066751
 Virial quotient                       -1.00407974
 !RHF STATE  1.1 Dipole moment         -0.00000000    -0.00000000    -0.00000000
 Dipole moment /Debye                  -0.00000000    -0.00000000    -0.00000000

 ELECTRON ORBITALS
 =================

  Orbital  Occupation    Energy     Coefficients
    1.1     2.00000   -11.23955     1 1s    0.70420     2 1s    0.70420
    2.1     2.00000   -11.23786     1 1s    0.70460     2 1s   -0.70460
    3.1     2.00000    -1.02292     1 1s    0.30282     2 1s    0.30282
    4.1     2.00000    -0.76701     1 1s    0.26018     2 1s   -0.26018
    5.1     2.00000    -0.61977     1 2py   0.31515     2 2py   0.31515
    6.1     2.00000    -0.57726     1 2pz   0.39967     2 2pz  -0.39967
    7.1     2.00000    -0.48449     1 2py   0.29159     2 2py  -0.29159
    8.1     2.00000    -0.37506     1 2px   0.37645     1 2px   0.30360     2 2px   0.37645     2 2px   0.30360
    9.1     0.00000     0.18086     1 2px   0.34273     1 2px   0.73995     2 2px  -0.34273     2 2px  -0.73995
   10.1     0.00000     0.25273     1 1s   -1.33818     1 2pz  -0.61478     2 1s   -1.33818     2 2pz   0.61478     3 1s    0.95317
                                    4 1s    0.95317     5 1s    0.95317     6 1s    0.95317
   11.1     0.00000     0.27199     1 2py  -0.26022     1 2py  -0.73485     2 2py  -0.26022     2 2py  -0.73485     3 1s    0.98294
                                    4 1s   -0.98294     5 1s    0.98294     6 1s   -0.98294
   12.1     0.00000     0.28914     1 1s    1.67305     2 1s   -1.67305     3 1s   -0.98706     4 1s   -0.98706     5 1s    0.98706
                                    6 1s    0.98706
   13.1     0.00000     0.38644     1 2py   0.26296     1 2py   1.76173     2 2py  -0.26296     2 2py  -1.76173     3 1s   -1.46736
                                    4 1s    1.46736     5 1s    1.46736     6 1s   -1.46736
   14.1     0.00000     0.49252     1 1s   -3.32059     1 2pz   2.98422     2 1s    3.32059     2 2pz   2.98422     3 1s   -0.49332
                                    4 1s   -0.49332     5 1s    0.49332     6 1s    0.49332
   15.1     0.00000     0.66715     1 1s    0.27434     1 2pz  -0.56054     1 2pz   1.02147     2 1s    0.27434     2 2pz   0.56054
                                    2 2pz  -1.02147
   16.1     0.00000     0.77029     1 2px  -0.73638     1 2px   0.64034     2 2px  -0.73638     2 2px   0.64034
   17.1     0.00000     0.78523     1 2py  -0.41351     1 2py   0.69728     2 2py  -0.41351     2 2py   0.69728     3 1s   -0.40291
                                    4 1s    0.40291     5 1s   -0.40291     6 1s    0.40291
   18.1     0.00000     0.86869     1 1s   -0.83216     1 1s    1.26891     1 2pz   0.36635     2 1s   -0.83216     2 1s    1.26891
                                    2 2pz  -0.36635     3 1s   -0.42683     4 1s   -0.42683     5 1s   -0.42683     6 1s   -0.42683
   19.1     0.00000     0.88759     1 2px  -0.81932     1 2px   1.07939     2 2px   0.81932     2 2px  -1.07939
   20.1     0.00000     0.96223     1 1s   -0.60837     1 2pz   0.56815     1 2pz  -0.35088     2 1s    0.60837     2 2pz   0.56815
                                    2 2pz  -0.35088     3 1s    0.42202     4 1s    0.42202     5 1s   -0.42202     6 1s   -0.42202
   21.1     0.00000     1.07020     1 2py  -0.67721     1 2py   1.06855     2 2py  -0.67721     2 2py   1.06855     3 1s    0.37633
                                    3 1s   -1.00926     4 1s   -0.37633     4 1s    1.00926     5 1s    0.37633     5 1s   -1.00926
                                    6 1s   -0.37633     6 1s    1.00926
   22.1     0.00000     1.12467     1 2py   0.89584     1 2py  -2.42901     2 2py  -0.89584     2 2py   2.42901     3 1s    1.27052
                                    4 1s   -1.27052     5 1s   -1.27052     6 1s    1.27052
   23.1     0.00000     1.15799     1 1s    1.04293     1 1s   -1.68119     1 2pz   0.34301     1 2pz  -0.47968     2 1s    1.04293
                                    2 1s   -1.68119     2 2pz  -0.34301     2 2pz   0.47968     3 1s   -0.42039     3 1s    0.83804
                                    4 1s   -0.42039     4 1s    0.83804     5 1s   -0.42039     5 1s    0.83804     6 1s   -0.42039
                                    6 1s    0.83804
   24.1     0.00000     1.16933     1 1s    0.62360     1 1s   -0.91462     1 2pz   0.64196     1 2pz  -1.06320     2 1s   -0.62360
                                    2 1s    0.91462     2 2pz   0.64196     2 2pz  -1.06320     3 1s   -0.41809     3 1s    0.95006
                                    4 1s   -0.41809     4 1s    0.95006     5 1s    0.41809     5 1s   -0.95006     6 1s    0.41809
                                    6 1s   -0.95006
   25.1     0.00000     1.34981     1 1s   -1.55001     1 1s    5.33109     1 2pz   0.29966     1 2pz  -2.05178     2 1s    1.55001
                                    2 1s   -5.33109     2 2pz   0.29966     2 2pz  -2.05178
   26.1     0.00000     1.46070     1 2py   2.70685     2 2py  -2.70685     3 1s   -0.67114     3 1s   -0.66831     4 1s    0.67114
                                    4 1s    0.66831     5 1s    0.67114     5 1s    0.66831     6 1s   -0.67114     6 1s   -0.66831
   27.1     0.00000     1.74372     1 3d1+  0.61740     2 3d1+ -0.61740
   28.1     0.00000     1.82253     1 3d2-  0.68007     2 3d2-  0.68007
   29.1     0.00000     2.13919     1 3d2-  0.73764     2 3d2- -0.73764
   30.1     0.00000     2.15072     1 1s   -0.54947     1 3d2+  0.70908     2 1s   -0.54947     2 3d2+  0.70908     3 1s    0.33734
                                    4 1s    0.33734     5 1s    0.33734     6 1s    0.33734
   31.1     0.00000     2.24593     1 3d1-  0.67049     2 3d1- -0.67049     3 1s   -0.46534     4 1s    0.46534     5 1s   -0.46534
                                    6 1s    0.46534
   32.1     0.00000     2.41790     1 1s   -0.50842     1 2pz   0.30029     1 2pz  -0.43778     1 3d0   0.70180     2 1s   -0.50842
                                    2 2pz  -0.30029     2 2pz   0.43778     2 3d0   0.70180
   33.1     0.00000     2.55916     1 1s    0.32191     1 1s   -1.26117     1 2pz   0.26090     1 3d2+  0.78221     2 1s   -0.32191
                                    2 1s    1.26117     2 2pz   0.26090     2 3d2+ -0.78221     3 1s    0.39301     4 1s    0.39301
                                    5 1s   -0.39301     6 1s   -0.39301
   34.1     0.00000     2.72097     1 2px  -0.26690     1 3d1+  0.91036     2 2px   0.26690     2 3d1+  0.91036
   35.1     0.00000     2.98981     1 2py   0.38572     1 3d1-  0.95330     2 2py  -0.38572     2 3d1-  0.95330     3 1s   -0.40448
                                    4 1s    0.40448     5 1s    0.40448     6 1s   -0.40448
   36.1     0.00000     3.07766     1 1s    0.35114     1 1s    2.06442     1 2pz  -0.82655     1 2pz  -1.18437     1 3d0   1.12068
                                    2 1s   -0.35114     2 1s   -2.06442     2 2pz  -0.82655     2 2pz  -1.18437     2 3d0  -1.12068


 HOMO      8.1    -0.375061 =     -10.2059eV
 LUMO      9.1     0.180858 =       4.9214eV
 LUMO-HOMO         0.555919 =      15.1273eV


 **********************************************************************************************************************************
 DATASETS  * FILE   NREC   LENGTH (MB)   RECORD NAMES
              1      19       30.63       500      610      700      900      950      970     1000      129      960     1100   
                                          VAR    BASINP    GEOM    SYMINP    ZMAT    AOBASIS   BASIS     P2S    ABASIS      S 
                                         1400     1410     1200     1210     1080     1600     1650     1300     1700   
                                           T        V       H0       H01     AOSYM     SMH    MOLCAS    ERIS     OPER   

              2       4        2.86       700     1000      520     2100   
                                         GEOM     BASIS   MCVARS     RHF  

 PROGRAMS   *        TOTAL    HF-SCF       INT
 CPU TIMES  *         0.44      0.10      0.25
 REAL TIME  *         0.69 SEC
 DISK USED  *        35.45 MB
 **********************************************************************************************************************************


 PROGRAM * MULTI (Direct Multiconfiguration SCF)       Authors: P.J. Knowles, H.-J. Werner (1984)


 Number of closed-shell orbitals:   7 (   7 )
 Number of active  orbitals:        2 (   2 )
 Number of external orbitals:      27 (  27 )

 State symmetry 1

 Number of electrons:     2    Spin symmetry=Singlet   Space symmetry=1
 Number of states:        3
 Number of CSFs:          3   (4 determinants, 4 intermediate states)

 Molecular orbitals read from record     2100.2  Type=RHF/CANONICAL (state 1.1)

 EXTRA SYMMETRY OF MOS IN SYMMETRY 1:   1 1 1 1 1 1 1 2 2 1   1 1 1 1 1 2 1 1 2 1   1 1 1 1 1 1 2 3 3 1   1 1 1 2 1 1

 Wavefunction dump at record             2140.2

 Convergence thresholds  0.10E-01 (gradient)  0.10E-05 (energy)  0.10E-02 (step length)

 Weight factors for state symmetry  1:    0.33333   0.33333   0.33333

 Number of orbital rotations:      257   (    14 Core/Active    189 Core/Virtual   0 Active/Active     54 Active/Virtual)
 Total number of variables:        269

 Micro-Iterations solved by the two-step solver

 ITER. MIC  NCI  NEG     ENERGY(VAR)     ENERGY(PROJ)   ENERGY CHANGE     GRAD(0)  GRAD(ORB)   GRAD(CI)     STEP       TIME

   1    3    3    0     -77.71329417     -77.71988318   -0.00658902    0.13536395 0.00000188 0.00000000  0.64D-01      0.06
   2    2    3    0     -77.71977121     -77.71977578   -0.00000456    0.00332682 0.00000228 0.00000000  0.18D-02      0.09
   3    2    3    0     -77.71977578     -77.71977578   -0.00000000    0.00000269 0.00000000 0.00000000  0.17D-05      0.12

 ** WVFN ****  CONVERGENCE REACHED, FINAL GRADIENT:  0.20D-11



 Results for state 1.1
 =====================

 !MCSCF STATE  1.1 Energy             -78.037784854204
 Nuclear energy                        32.69758520
 Kinetic energy                        77.77772230
 One electron energy                 -168.94453170
 Two electron energy                   58.20916164
 Virial ratio                           2.00334366

 !MCSCF STATE  1.1 Dipole moment        0.00000000     0.00000000    -0.00000000
 Dipole moment /Debye                   0.00000000     0.00000000    -0.00000000

 Results for state 2.1
 =====================

 !MCSCF STATE  2.1 Energy             -77.657083851017
 Nuclear energy                        32.69758520
 Kinetic energy                        77.95312027
 One electron energy                 -168.34494642
 Two electron energy                   57.99027737
 Virial ratio                           1.99620238

 !MCSCF STATE  2.1 Dipole moment        0.00000000     0.00000000     0.00000000
 Dipole moment /Debye                   0.00000000     0.00000000     0.00000000

 Results for state 3.1
 =====================

 !MCSCF STATE  3.1 Energy             -77.464458631792
 Nuclear energy                        32.69758520
 Kinetic energy                        78.12851824
 One electron energy                 -167.74536115
 Two electron energy                   57.58331731
 Virial ratio                           1.99150042

 !MCSCF STATE  3.1 Dipole moment        0.00000000     0.00000000     0.00000000
 Dipole moment /Debye                   0.00000000     0.00000000     0.00000000

 State-averaged charge density matrix saved on record  2140.2 (density set 1)

 !MCSCF trans         <2.1|DMZ|1.1>    -1.507422804783 au =    -3.831235652181 Debye
 !MCSCF trans         <3.1|DMZ|2.1>    -2.245285758052 au =    -5.706573376950 Debye


 NATURAL ORBITALS (state averaged)
 =================================

  Orbital  Occupation    Energy     Coefficients
    1.1     2.00000   -11.25533     1 1s    0.70422     2 1s    0.70422
    2.1     2.00000   -11.25392     1 1s    0.70456     2 1s   -0.70456
    3.1     2.00000    -1.03879     1 1s    0.31069     2 1s    0.31069
    4.1     2.00000    -0.77464     1 1s    0.30798     2 1s   -0.30798
    5.1     2.00000    -0.63257     1 2py   0.32137     2 2py   0.32137
    6.1     2.00000    -0.59110     1 2pz   0.40082     2 2pz  -0.40082
    7.1     2.00000    -0.49047     1 2py   0.29842     2 2py  -0.29842
    8.1     1.00000     0.03574     1 2px   0.38166     1 2px   0.69156     2 2px  -0.38166     2 2px  -0.69156
    9.1     1.00000    -0.22958     1 2px   0.36107     1 2px   0.31504     2 2px   0.36107     2 2px   0.31504
   10.1    -0.00000     0.25043     1 1s   -1.33510     1 2pz  -0.61916     2 1s   -1.33510     2 2pz   0.61916     3 1s    0.95326
                                    4 1s    0.95326     5 1s    0.95326     6 1s    0.95326
   11.1    -0.00000     0.26279     1 2py  -0.25843     1 2py  -0.72403     2 2py  -0.25843     2 2py  -0.72403     3 1s    0.97476
                                    4 1s   -0.97476     5 1s    0.97476     6 1s   -0.97476
   12.1    -0.00000     0.28581     1 1s    1.70242     2 1s   -1.70242     3 1s   -0.98158     4 1s   -0.98158     5 1s    0.98158
                                    6 1s    0.98158
   13.1    -0.00000     0.38153     1 2py   0.26694     1 2py   1.74680     2 2py  -0.26694     2 2py  -1.74680     3 1s   -1.46059
                                    4 1s    1.46059     5 1s    1.46059     6 1s   -1.46059
   14.1    -0.00000     0.49002     1 1s   -3.29495     1 2pz   2.96795     2 1s    3.29495     2 2pz   2.96795     3 1s   -0.50450
                                    4 1s   -0.50450     5 1s    0.50450     6 1s    0.50450
   15.1    -0.00000     0.65460     1 1s    0.31006     1 2pz  -0.54936     1 2pz   1.00003     2 1s    0.31006     2 2pz   0.54936
                                    2 2pz  -1.00003
   16.1    -0.00000     0.76474     1 2px  -0.74299     1 2px   0.63516     2 2px  -0.74299     2 2px   0.63516
   17.1    -0.00000     0.77545     1 2py  -0.42696     1 2py   0.70960     2 2py  -0.42696     2 2py   0.70960     3 1s   -0.39681
                                    4 1s    0.39681     5 1s   -0.39681     6 1s    0.39681
   18.1    -0.00000     0.86729     1 1s   -0.82482     1 1s    1.28592     1 2pz   0.40537     2 1s   -0.82482     2 1s    1.28592
                                    2 2pz  -0.40537     3 1s   -0.42679     4 1s   -0.42679     5 1s   -0.42679     6 1s   -0.42679
   19.1    -0.00000     0.87009     1 2px  -0.80337     1 2px   1.11082     2 2px   0.80337     2 2px  -1.11082
   20.1    -0.00000     0.94404     1 1s   -0.45409     1 2pz   0.57800     1 2pz  -0.44384     2 1s    0.45409     2 2pz   0.57800
                                    2 2pz  -0.44384     3 1s    0.41842     4 1s    0.41842     5 1s   -0.41842     6 1s   -0.41842
   21.1    -0.00000     1.05541     1 2py  -0.66411     1 2py   1.06744     2 2py  -0.66411     2 2py   1.06744     3 1s    0.37901
                                    3 1s   -1.01813     4 1s   -0.37901     4 1s    1.01813     5 1s    0.37901     5 1s   -1.01813
                                    6 1s   -0.37901     6 1s    1.01813
   22.1    -0.00000     1.11220     1 2py   0.89244     1 2py  -2.44303     2 2py  -0.89244     2 2py   2.44303     3 1s    1.28084
                                    4 1s   -1.28084     5 1s   -1.28084     6 1s    1.28084
   23.1    -0.00000     1.15486     1 1s    1.03775     1 1s   -1.67791     1 2pz   0.34752     1 2pz  -0.48653     2 1s    1.03775
                                    2 1s   -1.67791     2 2pz  -0.34752     2 2pz   0.48653     3 1s   -0.42137     3 1s    0.83820
                                    4 1s   -0.42137     4 1s    0.83820     5 1s   -0.42137     5 1s    0.83820     6 1s   -0.42137
                                    6 1s    0.83820
   24.1    -0.00000     1.16784     1 1s    0.59549     1 1s   -0.81179     1 2pz   0.64703     1 2pz  -1.10246     2 1s   -0.59549
                                    2 1s    0.81179     2 2pz   0.64703     2 2pz  -1.10246     3 1s   -0.42254     3 1s    0.94644
                                    4 1s   -0.42254     4 1s    0.94644     5 1s    0.42254     5 1s   -0.94644     6 1s    0.42254
                                    6 1s   -0.94644
   25.1    -0.00000     1.32967     1 1s   -1.56249     1 1s    5.35521     1 2pz   0.28717     1 2pz  -2.03163     2 1s    1.56249
                                    2 1s   -5.35521     2 2pz   0.28717     2 2pz  -2.03163
   26.1    -0.00000     1.45306     1 2py   2.70275     2 2py  -2.70275     3 1s   -0.67073     3 1s   -0.66603     4 1s    0.67073
                                    4 1s    0.66603     5 1s    0.67073     5 1s    0.66603     6 1s   -0.67073     6 1s   -0.66603
   27.1    -0.00000     1.71803     1 3d1+  0.61709     2 3d1+ -0.61709
   28.1    -0.00000     1.80887     1 3d2-  0.68007     2 3d2-  0.68007
   29.1    -0.00000     2.11625     1 3d2-  0.73764     2 3d2- -0.73764
   30.1    -0.00000     2.13563     1 1s   -0.54604     1 3d2+  0.70880     2 1s   -0.54604     2 3d2+  0.70880     3 1s    0.33905
                                    4 1s    0.33905     5 1s    0.33905     6 1s    0.33905
   31.1    -0.00000     2.22947     1 3d1-  0.66881     2 3d1- -0.66881     3 1s   -0.46880     4 1s    0.46880     5 1s   -0.46880
                                    6 1s    0.46880
   32.1    -0.00000     2.39828     1 1s   -0.50637     1 2pz   0.30636     1 2pz  -0.44017     1 3d0   0.70166     2 1s   -0.50637
                                    2 2pz  -0.30636     2 2pz   0.44017     2 3d0   0.70166
   33.1    -0.00000     2.53936     1 1s    0.32318     1 1s   -1.26973     1 2pz   0.26057     1 3d2+  0.78149     2 1s   -0.32318
                                    2 1s    1.26973     2 2pz   0.26057     2 3d2+ -0.78149     3 1s    0.39595     4 1s    0.39595
                                    5 1s   -0.39595     6 1s   -0.39595
   34.1    -0.00000     2.69880     1 2px  -0.26771     1 3d1+  0.91074     2 2px   0.26771     2 3d1+  0.91074
   35.1    -0.00000     2.97701     1 2py   0.38529     1 3d1-  0.95303     2 2py  -0.38529     2 3d1-  0.95303     3 1s   -0.40660
                                    4 1s    0.40660     5 1s    0.40660     6 1s   -0.40660
   36.1    -0.00000     3.05981     1 1s    0.34400     1 1s    2.08977     1 2pz  -0.81900     1 2pz  -1.19787     1 3d0   1.12238
                                    2 1s   -0.34400     2 1s   -2.08977     2 2pz  -0.81900     2 2pz  -1.19787     2 3d0  -1.12238


 Natural orbital dump (state averaged) at molpro section  2140.2    (Orbital set 2)



 **********************************************************************************************************************************
 DATASETS  * FILE   NREC   LENGTH (MB)   RECORD NAMES
              1      20       31.36       500      610      700      900      950      970     1000      129      960     1100   
                                          VAR    BASINP    GEOM    SYMINP    ZMAT    AOBASIS   BASIS     P2S    ABASIS      S 
                                         1400     1410     1200     1210     1080     1600     1650     1300     1700     1380   
                                           T        V       H0       H01     AOSYM     SMH    MOLCAS    ERIS     OPER     JKOP   

              2       5        5.42       700     1000      520     2100     2140   
                                         GEOM     BASIS   MCVARS     RHF     MCSCF   

 PROGRAMS   *        TOTAL     MULTI    HF-SCF       INT
 CPU TIMES  *         0.61      0.16      0.10      0.25
 REAL TIME  *         0.88 SEC
 DISK USED  *        38.54 MB
 **********************************************************************************************************************************
 Molecular orbitals read from record     2140.2  Type=MCSCF/NATURAL (state averaged)
 Occupation numbers read from record     2140.2  Type=MCSCF/NATURAL (state averaged)
 Orbital energies read from record       2140.2  Type=MCSCF/NATURAL (state averaged)
 Redundancy group numbers read from rec  2140.2  Type=MCSCF/NATURAL (state averaged)

 MULTI/6-31G* energy=    -77.464458631792

           MULTI          HF-SCF
    -77.46445863    -78.02091783
 **********************************************************************************************************************************
 Molpro calculation terminated
