
 Primary working directories    : /scratch.local/johan406.molpro_temp/molpro.sNP8H0T8Qn
 Secondary working directories  : /scratch.local/johan406.molpro_temp/molpro.sNP8H0T8Qn
 Wavefunction directory         : /home/goodpast/johan406/wfu/
 Main file repository           : /scratch.local/johan406.molpro_temp/molpro.sNP8H0T8Qn/

 id        : roweumn

 Nodes     nprocs
 cn0117       1

 Using customized tuning parameters: mindgm=1; mindgv=20; mindgc=4; mindgr=1; noblas=0; minvec=7
 default implementation of scratch files=df  


 Variables initialized (934), CPU time= 0.00 sec
                                                                                 !leave this line blank
 
 gprint, orbitals=30
 memory, 125., m
 symmetry, nosym
 nelect=16
 basis=6-31g*
 
 geometry={
 C -0.0 0.0 0.6597
 C 0.0 0.0 -0.6597
 H 0.0 0.9957 1.2837
 H -0.0 -0.9957 1.2837
 H 0.0 0.9957 -1.2837
 H 0.0 -0.9957 -1.2837
 }
 
 hf
 {multi,
 closed 7
 occ 9
 wf,spin=0;STATE,3
 }
 
 Commands  initialized (763), CPU time= 0.01 sec, 617 directives.
 Default parameters read. Elapsed time= 0.08 sec

 Checking input...
 Passed
1


                                         ***  PROGRAM SYSTEM MOLPRO  ***
                                       Copyright, TTI GmbH Stuttgart, 2015
                                    Version 2019.2 linked Oct 25 2019 22:50:27


 **********************************************************************************************************************************
 LABEL *                                                                                 
  64 bit serial version                                                                  DATE: 26-Jan-23          TIME: 20:54:40  
 **********************************************************************************************************************************

 SHA1:             8dbd9ae1082e4ce945b0f27595c9eb2d4aa09004
 **********************************************************************************************************************************


 Variable memory set to  125000000 words,  buffer space 

 SETTING NELECT         =        16.00000000                                  
 SETTING BASIS          =    6-31G*
 ZSYMEL=NOSYM


Geometry recognized as XYZ



 Recomputing integrals since basis changed


 Using spherical harmonics

 Library entry C      S 6-31G                selected for orbital group  1
 Library entry C      P 6-31G                selected for orbital group  1
 Library entry C      D 6-31G*               selected for orbital group  1
 Library entry H      S 6-31G                selected for orbital group  2


 PROGRAM * SEWARD (Integral evaluation for generally contracted gaussian basis sets)     Author: Roland Lindh, 1990

 Geometry written to block  1 of record 700


 Point group  C1  



 ATOMIC COORDINATES

 NR  ATOM    CHARGE       X              Y              Z

   1  C       6.00    0.000000000    0.000000000    1.246652324
   2  C       6.00    0.000000000    0.000000000   -1.246652324
   3  H       1.00    0.000000000    1.881600302    2.425841426
   4  H       1.00    0.000000000   -1.881600302    2.425841426
   5  H       1.00    0.000000000    1.881600302   -2.425841426
   6  H       1.00    0.000000000   -1.881600302   -2.425841426

 Bond lengths in Bohr (Angstrom)

 1-2  2.493304649  1-3  2.220564486  1-4  2.220564486  2-5  2.220564486  2-6  2.220564486
     ( 1.319400000)     ( 1.175072121)     ( 1.175072121)     ( 1.175072121)     ( 1.175072121)

 Bond angles

  1-2-5  122.07515775   1-2-6  122.07515775   2-1-3  122.07515775   2-1-4  122.07515775

  3-1-4  115.84968450   5-2-6  115.84968450

 NUCLEAR CHARGE:                   16
 NUMBER OF PRIMITIVE AOS:          72
 NUMBER OF SYMMETRY AOS:           70
 NUMBER OF CONTRACTIONS:           36   (   36A   )
 NUMBER OF CORE ORBITALS:           2   (    2A   )
 NUMBER OF VALENCE ORBITALS:       12   (   12A   )


 NUCLEAR REPULSION ENERGY   32.33228144

 EXTRA SYMMETRY OF AOS IN SYMMETRY 1:   1 1 1 2 1 1 2 1 1 1   3 2 1 1 1 1 1 2 1 1   2 1 1 1 3 2 1 1 1 1   1 1 1 1 1 1

 Eigenvalues of metric

         1 0.795E-02 0.228E-01 0.477E-01 0.585E-01 0.901E-01 0.181E+00 0.225E+00 0.233E+00


 Contracted 2-electron integrals neglected if value below      1.0D-11
 AO integral compression algorithm  1   Integral accuracy      1.0D-11

     0.786 MB (compressed) written to integral file ( 37.3%)


 NUMBER OF SORTED TWO-ELECTRON INTEGRALS:     222111.     BUFFER LENGTH:  32768
 NUMBER OF SEGMENTS:   1  SEGMENT LENGTH:     222111      RECORD LENGTH: 524288

 Memory used in sort:       0.78 MW

 SORT1 READ      284735. AND WROTE       98183. INTEGRALS IN      1 RECORDS. CPU TIME:     0.01 SEC, REAL TIME:     0.01 SEC
 SORT2 READ       98183. AND WROTE      222111. INTEGRALS IN      3 RECORDS. CPU TIME:     0.02 SEC, REAL TIME:     0.02 SEC

 FILE SIZES:   FILE 1:    30.9 MBYTE,  FILE 4:     4.2 MBYTE,   TOTAL:     35.1 MBYTE

 OPERATOR DM      FOR CENTER  0  COORDINATES:    0.000000    0.000000    0.000000


 **********************************************************************************************************************************
 DATASETS  * FILE   NREC   LENGTH (MB)   RECORD NAMES
              1      19       30.63       500      610      700      900      950      970     1000      129      960     1100   
                                          VAR    BASINP    GEOM    SYMINP    ZMAT    AOBASIS   BASIS     P2S    ABASIS      S 
                                         1400     1410     1200     1210     1080     1600     1650     1300     1700   
                                           T        V       H0       H01     AOSYM     SMH    MOLCAS    ERIS     OPER   

 PROGRAMS   *        TOTAL       INT
 CPU TIMES  *         0.35      0.25
 REAL TIME  *         0.56 SEC
 DISK USED  *        35.45 MB
 **********************************************************************************************************************************


 PROGRAM * RHF-SCF (CLOSED SHELL)       Authors: W. Meyer, H.-J. Werner


 NUMBER OF ELECTRONS:       8+    8-    SPACE SYMMETRY=1    SPIN SYMMETRY: Singlet 
 CONVERGENCE THRESHOLDS:    1.00E-05 (Density)    1.00E-07 (Energy)
 MAX. NUMBER OF ITERATIONS:       60
 INTERPOLATION TYPE:            DIIS
 INTERPOLATION STEPS:              2 (START)      1 (STEP)
 LEVEL SHIFTS:                  0.00 (CLOSED)  0.00 (OPEN) 



 Orbital guess generated from atomic densities. Full valence occupancy:    8

 Molecular orbital dump at record        2100.2

 Initial occupancy:   8

 ITERATION    DDIFF          GRAD             ENERGY        2-EL.EN.            DIPOLE MOMENTS         DIIS   ORB.
    1      0.000D+00      0.000D+00       -77.98408737    116.829523    0.00000   -0.00000    0.00000    0    start
    2      0.000D+00      0.835D-02       -78.00498887    114.860772    0.00000    0.00000   -0.00000    1    diag
    3      0.780D-02      0.309D-02       -78.00736901    115.571484   -0.00000   -0.00000    0.00000    2    diag
    4      0.292D-02      0.732D-03       -78.00760546    115.460975   -0.00000   -0.00000   -0.00000    3    diag
    5      0.112D-02      0.824D-04       -78.00760881    115.465472   -0.00000   -0.00000    0.00000    4    diag
    6      0.180D-03      0.126D-04       -78.00760890    115.464844   -0.00000    0.00000    0.00000    5    diag
    7      0.279D-04      0.174D-05       -78.00760890    115.464859    0.00000    0.00000    0.00000    6    diag
    8      0.308D-05      0.236D-06       -78.00760890    115.464849   -0.00000    0.00000   -0.00000    0    orth

 Final occupancy:   8

 !RHF STATE  1.1 Energy               -78.007608898549
 Nuclear energy                        32.33228144
 One-electron energy                 -168.07231488
 Two-electron energy                   57.73242454
 Virial quotient                       -1.00593856
 !RHF STATE  1.1 Dipole moment         -0.00000000     0.00000000    -0.00000000
 Dipole moment /Debye                  -0.00000000     0.00000000    -0.00000000

 ELECTRON ORBITALS
 =================

  Orbital  Occupation    Energy     Coefficients
    1.1     2.00000   -11.24757     1 1s    0.70421     2 1s    0.70421
    2.1     2.00000   -11.24582     1 1s    0.70463     2 1s   -0.70463
    3.1     2.00000    -1.02177     1 1s    0.30326     2 1s    0.30326
    4.1     2.00000    -0.75345     1 1s    0.26974     2 1s   -0.26974
    5.1     2.00000    -0.60970     1 2py   0.31175     2 2py   0.31175
    6.1     2.00000    -0.57376     1 2pz   0.39533     2 2pz  -0.39533
    7.1     2.00000    -0.47312     1 2py   0.28386     2 2py  -0.28386
    8.1     2.00000    -0.37854     1 2px   0.37845     1 2px   0.30097     2 2px   0.37845     2 2px   0.30097
    9.1     0.00000     0.18210     1 2px   0.34347     1 2px   0.74294     2 2px  -0.34347     2 2px  -0.74294
   10.1     0.00000     0.24418     1 1s   -1.25638     1 2pz  -0.59502     2 1s   -1.25638     2 2pz   0.59502     3 1s    0.90688
                                    4 1s    0.90688     5 1s    0.90688     6 1s    0.90688
   11.1     0.00000     0.25865     1 2py   0.26456     1 2py   0.69496     2 2py   0.26456     2 2py   0.69496     3 1s   -0.92276
                                    4 1s    0.92276     5 1s   -0.92276     6 1s    0.92276
   12.1     0.00000     0.27640     1 1s    1.53744     2 1s   -1.53744     3 1s   -0.93787     4 1s   -0.93787     5 1s    0.93787
                                    6 1s    0.93787
   13.1     0.00000     0.38335     1 2py   0.27176     1 2py   1.70022     2 2py  -0.27176     2 2py  -1.70022     3 1s   -1.38361
                                    4 1s    1.38361     5 1s    1.38361     6 1s   -1.38361
   14.1     0.00000     0.49400     1 1s   -3.48935     1 2pz   3.00165     2 1s    3.48935     2 2pz   3.00165     3 1s   -0.44814
                                    4 1s   -0.44814     5 1s    0.44814     6 1s    0.44814
   15.1     0.00000     0.66498     1 1s    0.30333     1 2pz  -0.55984     1 2pz   1.01414     2 1s    0.30333     2 2pz   0.55984
                                    2 2pz  -1.01414
   16.1     0.00000     0.76626     1 2px  -0.73389     1 2px   0.64087     2 2px  -0.73389     2 2px   0.64087
   17.1     0.00000     0.79899     1 2py  -0.42272     1 2py   0.66262     2 2py  -0.42272     2 2py   0.66262     3 1s   -0.41168
                                    4 1s    0.41168     5 1s   -0.41168     6 1s    0.41168
   18.1     0.00000     0.87402     1 1s   -0.79719     1 1s    1.16376     1 2pz   0.37920     2 1s   -0.79719     2 1s    1.16376
                                    2 2pz  -0.37920     3 1s   -0.44328     4 1s   -0.44328     5 1s   -0.44328     6 1s   -0.44328
   19.1     0.00000     0.88587     1 2px  -0.81960     1 2px   1.08294     2 2px   0.81960     2 2px  -1.08294
   20.1     0.00000     0.96619     1 1s   -0.45185     1 2pz   0.53895     1 2pz  -0.28369     2 1s    0.45185     2 2pz   0.53895
                                    2 2pz  -0.28369     3 1s    0.44671     4 1s    0.44671     5 1s   -0.44671     6 1s   -0.44671
   21.1     0.00000     1.04734     1 2py  -0.66913     1 2py   1.04932     2 2py  -0.66913     2 2py   1.04932     3 1s    0.37388
                                    3 1s   -0.98102     4 1s   -0.37388     4 1s    0.98102     5 1s    0.37388     5 1s   -0.98102
                                    6 1s   -0.37388     6 1s    0.98102
   22.1     0.00000     1.10200     1 2py   0.87127     1 2py  -2.20176     2 2py  -0.87127     2 2py   2.20176     3 1s   -0.27489
                                    3 1s    1.17051     4 1s    0.27489     4 1s   -1.17051     5 1s    0.27489     5 1s   -1.17051
                                    6 1s   -0.27489     6 1s    1.17051
   23.1     0.00000     1.12928     1 1s    1.04935     1 1s   -1.65897     1 2pz   0.33124     1 2pz  -0.47135     2 1s    1.04935
                                    2 1s   -1.65897     2 2pz  -0.33124     2 2pz   0.47135     3 1s   -0.40795     3 1s    0.82160
                                    4 1s   -0.40795     4 1s    0.82160     5 1s   -0.40795     5 1s    0.82160     6 1s   -0.40795
                                    6 1s    0.82160
   24.1     0.00000     1.14422     1 1s    0.64053     1 1s   -1.02561     1 2pz   0.66339     1 2pz  -1.00753     2 1s   -0.64053
                                    2 1s    1.02561     2 2pz   0.66339     2 2pz  -1.00753     3 1s   -0.38482     3 1s    0.92109
                                    4 1s   -0.38482     4 1s    0.92109     5 1s    0.38482     5 1s   -0.92109     6 1s    0.38482
                                    6 1s   -0.92109
   25.1     0.00000     1.35690     1 1s   -1.53909     1 1s    5.31940     1 2pz   0.30600     1 2pz  -2.09886     2 1s    1.53909
                                    2 1s   -5.31940     2 2pz   0.30600     2 2pz  -2.09886
   26.1     0.00000     1.45862     1 2py  -0.28036     1 2py   2.72327     2 2py   0.28036     2 2py  -2.72327     3 1s   -0.65668
                                    3 1s   -0.63583     4 1s    0.65668     4 1s    0.63583     5 1s    0.65668     5 1s    0.63583
                                    6 1s   -0.65668     6 1s   -0.63583
   27.1     0.00000     1.74610     1 3d1+  0.61650     2 3d1+ -0.61650
   28.1     0.00000     1.82225     1 3d2-  0.67941     2 3d2-  0.67941
   29.1     0.00000     2.11913     1 1s   -0.51826     1 3d2+  0.70407     2 1s   -0.51826     2 3d2+  0.70407     3 1s    0.31567
                                    4 1s    0.31567     5 1s    0.31567     6 1s    0.31567
   30.1     0.00000     2.14495     1 3d2-  0.73849     2 3d2- -0.73849
   31.1     0.00000     2.19931     1 3d1-  0.65970     2 3d1- -0.65970     3 1s   -0.43823     4 1s    0.43823     5 1s   -0.43823
                                    6 1s    0.43823
   32.1     0.00000     2.42427     1 1s   -0.50875     1 2pz   0.30566     1 2pz  -0.43562     1 3d0   0.70602     2 1s   -0.50875
                                    2 2pz  -0.30566     2 2pz   0.43562     2 3d0   0.70602
   33.1     0.00000     2.52303     1 1s    0.33049     1 1s   -1.20885     1 2pz   0.25321     1 3d2+  0.77410     2 1s   -0.33049
                                    2 1s    1.20885     2 2pz   0.25321     2 3d2+ -0.77410     3 1s    0.36666     4 1s    0.36666
                                    5 1s   -0.36666     6 1s   -0.36666
   34.1     0.00000     2.72790     1 2px  -0.26819     1 3d1+  0.91481     2 2px   0.26819     2 3d1+  0.91481
   35.1     0.00000     2.95166     1 2py   0.28629     1 3d1-  0.94643     2 2py  -0.28629     2 3d1-  0.94643     3 1s   -0.36551
                                    4 1s    0.36551     5 1s    0.36551     6 1s   -0.36551
   36.1     0.00000     3.08624     1 1s    0.37203     1 1s    2.08394     1 2pz  -0.84467     1 2pz  -1.18629     1 3d0   1.12561
                                    2 1s   -0.37203     2 1s   -2.08394     2 2pz  -0.84467     2 2pz  -1.18629     2 3d0  -1.12561


 HOMO      8.1    -0.378538 =     -10.3006eV
 LUMO      9.1     0.182096 =       4.9551eV
 LUMO-HOMO         0.560635 =      15.2556eV


 **********************************************************************************************************************************
 DATASETS  * FILE   NREC   LENGTH (MB)   RECORD NAMES
              1      19       30.63       500      610      700      900      950      970     1000      129      960     1100   
                                          VAR    BASINP    GEOM    SYMINP    ZMAT    AOBASIS   BASIS     P2S    ABASIS      S 
                                         1400     1410     1200     1210     1080     1600     1650     1300     1700   
                                           T        V       H0       H01     AOSYM     SMH    MOLCAS    ERIS     OPER   

              2       4        2.86       700     1000      520     2100   
                                         GEOM     BASIS   MCVARS     RHF  

 PROGRAMS   *        TOTAL    HF-SCF       INT
 CPU TIMES  *         0.46      0.11      0.25
 REAL TIME  *         0.69 SEC
 DISK USED  *        35.45 MB
 **********************************************************************************************************************************


 PROGRAM * MULTI (Direct Multiconfiguration SCF)       Authors: P.J. Knowles, H.-J. Werner (1984)


 Number of closed-shell orbitals:   7 (   7 )
 Number of active  orbitals:        2 (   2 )
 Number of external orbitals:      27 (  27 )

 State symmetry 1

 Number of electrons:     2    Spin symmetry=Singlet   Space symmetry=1
 Number of states:        3
 Number of CSFs:          3   (4 determinants, 4 intermediate states)

 Molecular orbitals read from record     2100.2  Type=RHF/CANONICAL (state 1.1)

 EXTRA SYMMETRY OF MOS IN SYMMETRY 1:   1 1 1 1 1 1 1 2 2 1   1 1 1 1 1 2 1 1 2 1   1 1 1 1 1 1 2 3 1 3   1 1 1 2 1 1

 Wavefunction dump at record             2140.2

 Convergence thresholds  0.10E-01 (gradient)  0.10E-05 (energy)  0.10E-02 (step length)

 Weight factors for state symmetry  1:    0.33333   0.33333   0.33333

 Number of orbital rotations:      257   (    14 Core/Active    189 Core/Virtual   0 Active/Active     54 Active/Virtual)
 Total number of variables:        269

 Micro-Iterations solved by the two-step solver

 ITER. MIC  NCI  NEG     ENERGY(VAR)     ENERGY(PROJ)   ENERGY CHANGE     GRAD(0)  GRAD(ORB)   GRAD(CI)     STEP       TIME

   1    3    3    0     -77.69621627     -77.70300357   -0.00678729    0.13690606 0.00000211 0.00000000  0.65D-01      0.06
   2    2    3    0     -77.70288349     -77.70288855   -0.00000507    0.00349314 0.00000255 0.00000000  0.19D-02      0.09
   3    2    3    0     -77.70288856     -77.70288856   -0.00000000    0.00000304 0.00000000 0.00000000  0.19D-05      0.13

 ** WVFN ****  CONVERGENCE REACHED, FINAL GRADIENT:  0.26D-11



 Results for state 1.1
 =====================

 !MCSCF STATE  1.1 Energy             -78.024046531506
 Nuclear energy                        32.33228144
 Kinetic energy                        77.62385872
 One electron energy                 -168.24070088
 Two electron energy                   57.88437292
 Virial ratio                           2.00515547

 !MCSCF STATE  1.1 Dipole moment        0.00000000    -0.00000000    -0.00000000
 Dipole moment /Debye                   0.00000000    -0.00000000    -0.00000000

 Results for state 2.1
 =====================

 !MCSCF STATE  2.1 Energy             -77.640471694532
 Nuclear energy                        32.33228144
 Kinetic energy                        77.79684254
 One electron energy                 -167.62686760
 Two electron energy                   57.65411447
 Virial ratio                           1.99799001

 !MCSCF STATE  2.1 Dipole moment        0.00000000    -0.00000000    -0.00000000
 Dipole moment /Debye                   0.00000000    -0.00000000    -0.00000000

 Results for state 3.1
 =====================

 !MCSCF STATE  3.1 Energy             -77.444147444775
 Nuclear energy                        32.33228144
 Kinetic energy                        77.96982637
 One electron energy                 -167.01303432
 Two electron energy                   57.23660544
 Virial ratio                           1.99325792

 !MCSCF STATE  3.1 Dipole moment        0.00000000    -0.00000000    -0.00000000
 Dipole moment /Debye                   0.00000000    -0.00000000    -0.00000000

 State-averaged charge density matrix saved on record  2140.2 (density set 1)

 !MCSCF trans         <2.1|DMZ|1.1>    -1.505262066464 au =    -3.825743962882 Debye
 !MCSCF trans         <3.1|DMZ|2.1>    -2.229414293291 au =    -5.666234779541 Debye


 NATURAL ORBITALS (state averaged)
 =================================

  Orbital  Occupation    Energy     Coefficients
    1.1     2.00000   -11.26332     1 1s    0.70422     2 1s    0.70422
    2.1     2.00000   -11.26185     1 1s    0.70459     2 1s   -0.70459
    3.1     2.00000    -1.03823     1 1s    0.31102     2 1s    0.31102
    4.1     2.00000    -0.76095     1 1s    0.31887     2 1s   -0.31887
    5.1     2.00000    -0.62247     1 2py   0.31828     2 2py   0.31828
    6.1     2.00000    -0.58684     1 2pz   0.39620     2 2pz  -0.39620
    7.1     2.00000    -0.47872     1 2py   0.29086     2 2py  -0.29086
    8.1     1.00000     0.03685     1 2px   0.38294     1 2px   0.69373     2 2px  -0.38294     2 2px  -0.69373
    9.1     1.00000    -0.23209     1 2px   0.36305     1 2px   0.31244     2 2px   0.36305     2 2px   0.31244
   10.1    -0.00000     0.24214     1 1s   -1.25387     1 2pz  -0.59859     2 1s   -1.25387     2 2pz   0.59859     3 1s    0.90725
                                    4 1s    0.90725     5 1s    0.90725     6 1s    0.90725
   11.1    -0.00000     0.24908     1 2py   0.26266     1 2py   0.68364     2 2py   0.26266     2 2py   0.68364     3 1s   -0.91494
                                    4 1s    0.91494     5 1s   -0.91494     6 1s    0.91494
   12.1    -0.00000     0.27298     1 1s    1.56935     2 1s   -1.56935     3 1s   -0.93261     4 1s   -0.93261     5 1s    0.93261
                                    6 1s    0.93261
   13.1    -0.00000     0.37802     1 2py   0.27596     1 2py   1.68494     2 2py  -0.27596     2 2py  -1.68494     3 1s   -1.37685
                                    4 1s    1.37685     5 1s    1.37685     6 1s   -1.37685
   14.1    -0.00000     0.49165     1 1s   -3.46256     1 2pz   2.98621     2 1s    3.46256     2 2pz   2.98621     3 1s   -0.45986
                                    4 1s   -0.45986     5 1s    0.45986     6 1s    0.45986
   15.1    -0.00000     0.65198     1 1s    0.33560     1 2pz  -0.54729     1 2pz   0.99425     2 1s    0.33560     2 2pz   0.54729
                                    2 2pz  -0.99425
   16.1    -0.00000     0.76102     1 2px  -0.74052     1 2px   0.63574     2 2px  -0.74052     2 2px   0.63574
   17.1    -0.00000     0.78961     1 2py  -0.43773     1 2py   0.67835     2 2py  -0.43773     2 2py   0.67835     3 1s   -0.40454
                                    4 1s    0.40454     5 1s   -0.40454     6 1s    0.40454
   18.1    -0.00000     0.86848     1 2px  -0.80343     1 2px   1.11490     2 2px   0.80343     2 2px  -1.11490
   19.1    -0.00000     0.87330     1 1s   -0.78980     1 1s    1.17741     1 2pz   0.41335     2 1s   -0.78980     2 1s    1.17741
                                    2 2pz  -0.41335     3 1s   -0.44258     4 1s   -0.44258     5 1s   -0.44258     6 1s   -0.44258
   20.1    -0.00000     0.94869     1 1s   -0.30436     1 2pz   0.55363     1 2pz  -0.38318     2 1s    0.30436     2 2pz   0.55363
                                    2 2pz  -0.38318     3 1s    0.44038     4 1s    0.44038     5 1s   -0.44038     6 1s   -0.44038
   21.1    -0.00000     1.03297     1 2py  -0.65481     1 2py   1.04625     2 2py  -0.65481     2 2py   1.04625     3 1s    0.37799
                                    3 1s   -0.98996     4 1s   -0.37799     4 1s    0.98996     5 1s    0.37799     5 1s   -0.98996
                                    6 1s   -0.37799     6 1s    0.98996
   22.1    -0.00000     1.08980     1 2py   0.86808     1 2py  -2.22011     2 2py  -0.86808     2 2py   2.22011     3 1s   -0.27415
                                    3 1s    1.18172     4 1s    0.27415     4 1s   -1.18172     5 1s    0.27415     5 1s   -1.18172
                                    6 1s   -0.27415     6 1s    1.18172
   23.1    -0.00000     1.12622     1 1s    1.04415     1 1s   -1.65634     1 2pz   0.33631     1 2pz  -0.47912     2 1s    1.04415
                                    2 1s   -1.65634     2 2pz  -0.33631     2 2pz   0.47912     3 1s   -0.40902     3 1s    0.82210
                                    4 1s   -0.40902     4 1s    0.82210     5 1s   -0.40902     5 1s    0.82210     6 1s   -0.40902
                                    6 1s    0.82210
   24.1    -0.00000     1.14278     1 1s    0.61858     1 1s   -0.93472     1 2pz   0.66415     1 2pz  -1.04137     2 1s   -0.61858
                                    2 1s    0.93472     2 2pz   0.66415     2 2pz  -1.04137     3 1s   -0.39220     3 1s    0.92042
                                    4 1s   -0.39220     4 1s    0.92042     5 1s    0.39220     5 1s   -0.92042     6 1s    0.39220
                                    6 1s   -0.92042
   25.1    -0.00000     1.33683     1 1s   -1.54924     1 1s    5.33984     1 2pz   0.29610     1 2pz  -2.08401     2 1s    1.54924
                                    2 1s   -5.33984     2 2pz   0.29610     2 2pz  -2.08401
   26.1    -0.00000     1.45137     1 2py  -0.28156     1 2py   2.71674     2 2py   0.28156     2 2py  -2.71674     3 1s   -0.65680
                                    3 1s   -0.63239     4 1s    0.65680     4 1s    0.63239     5 1s    0.65680     5 1s    0.63239
                                    6 1s   -0.65680     6 1s   -0.63239
   27.1    -0.00000     1.72048     1 3d1+  0.61617     2 3d1+ -0.61617
   28.1    -0.00000     1.80877     1 3d2-  0.67941     2 3d2-  0.67941
   29.1    -0.00000     2.10430     1 1s   -0.51515     1 3d2+  0.70382     2 1s   -0.51515     2 3d2+  0.70382     3 1s    0.31722
                                    4 1s    0.31722     5 1s    0.31722     6 1s    0.31722
   30.1    -0.00000     2.12216     1 3d2-  0.73849     2 3d2- -0.73849
   31.1    -0.00000     2.18278     1 3d1-  0.65806     2 3d1- -0.65806     3 1s   -0.44171     4 1s    0.44171     5 1s   -0.44171
                                    6 1s    0.44171
   32.1    -0.00000     2.40497     1 1s   -0.50664     1 2pz   0.31174     1 2pz  -0.43793     1 3d0   0.70587     2 1s   -0.50664
                                    2 2pz  -0.31174     2 2pz   0.43793     2 3d0   0.70587
   33.1    -0.00000     2.50326     1 1s    0.33197     1 1s   -1.21875     1 2pz   0.25337     1 3d2+  0.77339     2 1s   -0.33197
                                    2 1s    1.21875     2 2pz   0.25337     2 3d2+ -0.77339     3 1s    0.36953     4 1s    0.36953
                                    5 1s   -0.36953     6 1s   -0.36953
   34.1    -0.00000     2.70598     1 2px  -0.26903     1 3d1+  0.91519     2 2px   0.26903     2 3d1+  0.91519
   35.1    -0.00000     2.93892     1 2py   0.28551     1 3d1-  0.94622     2 2py  -0.28551     2 3d1-  0.94622     3 1s   -0.36750
                                    4 1s    0.36750     5 1s    0.36750     6 1s   -0.36750
   36.1    -0.00000     3.06854     1 1s    0.36488     1 1s    2.10920     1 2pz  -0.83708     1 2pz  -1.19985     1 3d0   1.12734
                                    2 1s   -0.36488     2 1s   -2.10920     2 2pz  -0.83708     2 2pz  -1.19985     2 3d0  -1.12734


 EXTRA SYMMETRY OF MOS IN SYMMETRY 1:   1 1 1 1 1 1 1 2 2 1   1 1 1 1 1 2 1 2 1 1   1 1 1 1 1 1 2 3 1 3   1 1 1 2 1 1

 Natural orbital dump (state averaged) at molpro section  2140.2    (Orbital set 2)



 **********************************************************************************************************************************
 DATASETS  * FILE   NREC   LENGTH (MB)   RECORD NAMES
              1      20       31.36       500      610      700      900      950      970     1000      129      960     1100   
                                          VAR    BASINP    GEOM    SYMINP    ZMAT    AOBASIS   BASIS     P2S    ABASIS      S 
                                         1400     1410     1200     1210     1080     1600     1650     1300     1700     1380   
                                           T        V       H0       H01     AOSYM     SMH    MOLCAS    ERIS     OPER     JKOP   

              2       5        5.42       700     1000      520     2100     2140   
                                         GEOM     BASIS   MCVARS     RHF     MCSCF   

 PROGRAMS   *        TOTAL     MULTI    HF-SCF       INT
 CPU TIMES  *         0.63      0.16      0.11      0.25
 REAL TIME  *         0.88 SEC
 DISK USED  *        38.54 MB
 **********************************************************************************************************************************
 Molecular orbitals read from record     2140.2  Type=MCSCF/NATURAL (state averaged)
 Occupation numbers read from record     2140.2  Type=MCSCF/NATURAL (state averaged)
 Orbital energies read from record       2140.2  Type=MCSCF/NATURAL (state averaged)
 Redundancy group numbers read from rec  2140.2  Type=MCSCF/NATURAL (state averaged)

 MULTI/6-31G* energy=    -77.444147444775

           MULTI          HF-SCF
    -77.44414744    -78.00760890
 **********************************************************************************************************************************
 Molpro calculation terminated
