
 Primary working directories    : /scratch.local/johan406.molpro_temp/molpro.DR0OqaUXTs
 Secondary working directories  : /scratch.local/johan406.molpro_temp/molpro.DR0OqaUXTs
 Wavefunction directory         : /home/goodpast/johan406/wfu/
 Main file repository           : /scratch.local/johan406.molpro_temp/molpro.DR0OqaUXTs/

 id        : roweumn

 Nodes     nprocs
 cn0117       1

 Using customized tuning parameters: mindgm=1; mindgv=20; mindgc=4; mindgr=1; noblas=0; minvec=7
 default implementation of scratch files=df  


 Variables initialized (934), CPU time= 0.00 sec
                                                                                 !leave this line blank
 
 gprint, orbitals=30
 memory, 125., m
 symmetry, nosym
 nelect=16
 basis=6-31g*
 
 geometry={
 C -0.0 0.0 0.6593
 C 0.0 0.0 -0.6593
 H 0.0 0.9992 1.2857
 H -0.0 -0.9992 1.2857
 H 0.0 0.9992 -1.2857
 H 0.0 -0.9992 -1.2857
 }
 
 hf
 {multi,
 closed 7
 occ 9
 wf,spin=0;STATE,3
 }
 
 Commands  initialized (763), CPU time= 0.01 sec, 617 directives.
 Default parameters read. Elapsed time= 0.08 sec

 Checking input...
 Passed
1


                                         ***  PROGRAM SYSTEM MOLPRO  ***
                                       Copyright, TTI GmbH Stuttgart, 2015
                                    Version 2019.2 linked Oct 25 2019 22:50:27


 **********************************************************************************************************************************
 LABEL *                                                                                 
  64 bit serial version                                                                  DATE: 26-Jan-23          TIME: 20:54:51  
 **********************************************************************************************************************************

 SHA1:             8dbd9ae1082e4ce945b0f27595c9eb2d4aa09004
 **********************************************************************************************************************************


 Variable memory set to  125000000 words,  buffer space 

 SETTING NELECT         =        16.00000000                                  
 SETTING BASIS          =    6-31G*
 ZSYMEL=NOSYM


Geometry recognized as XYZ



 Recomputing integrals since basis changed


 Using spherical harmonics

 Library entry C      S 6-31G                selected for orbital group  1
 Library entry C      P 6-31G                selected for orbital group  1
 Library entry C      D 6-31G*               selected for orbital group  1
 Library entry H      S 6-31G                selected for orbital group  2


 PROGRAM * SEWARD (Integral evaluation for generally contracted gaussian basis sets)     Author: Roland Lindh, 1990

 Geometry written to block  1 of record 700


 Point group  C1  



 ATOMIC COORDINATES

 NR  ATOM    CHARGE       X              Y              Z

   1  C       6.00    0.000000000    0.000000000    1.245896434
   2  C       6.00    0.000000000    0.000000000   -1.245896434
   3  H       1.00    0.000000000    1.888214344    2.429620878
   4  H       1.00    0.000000000   -1.888214344    2.429620878
   5  H       1.00    0.000000000    1.888214344   -2.429620878
   6  H       1.00    0.000000000   -1.888214344   -2.429620878

 Bond lengths in Bohr (Angstrom)

 1-2  2.491792868  1-3  2.228577342  1-4  2.228577342  2-5  2.228577342  2-6  2.228577342
     ( 1.318600000)     ( 1.179312342)     ( 1.179312342)     ( 1.179312342)     ( 1.179312342)

 Bond angles

  1-2-5  122.08366171   1-2-6  122.08366171   2-1-3  122.08366171   2-1-4  122.08366171

  3-1-4  115.83267658   5-2-6  115.83267658

 NUCLEAR CHARGE:                   16
 NUMBER OF PRIMITIVE AOS:          72
 NUMBER OF SYMMETRY AOS:           70
 NUMBER OF CONTRACTIONS:           36   (   36A   )
 NUMBER OF CORE ORBITALS:           2   (    2A   )
 NUMBER OF VALENCE ORBITALS:       12   (   12A   )


 NUCLEAR REPULSION ENERGY   32.29089679

 EXTRA SYMMETRY OF AOS IN SYMMETRY 1:   1 1 1 2 1 1 2 1 1 1   3 2 1 1 1 1 1 2 1 1   2 1 1 1 3 2 1 1 1 1   1 1 1 1 1 1

 Eigenvalues of metric

         1 0.793E-02 0.231E-01 0.481E-01 0.591E-01 0.909E-01 0.180E+00 0.225E+00 0.234E+00


 Contracted 2-electron integrals neglected if value below      1.0D-11
 AO integral compression algorithm  1   Integral accuracy      1.0D-11

     0.786 MB (compressed) written to integral file ( 37.3%)


 NUMBER OF SORTED TWO-ELECTRON INTEGRALS:     222111.     BUFFER LENGTH:  32768
 NUMBER OF SEGMENTS:   1  SEGMENT LENGTH:     222111      RECORD LENGTH: 524288

 Memory used in sort:       0.78 MW

 SORT1 READ      284735. AND WROTE       98179. INTEGRALS IN      1 RECORDS. CPU TIME:     0.00 SEC, REAL TIME:     0.01 SEC
 SORT2 READ       98179. AND WROTE      222111. INTEGRALS IN      3 RECORDS. CPU TIME:     0.02 SEC, REAL TIME:     0.02 SEC

 FILE SIZES:   FILE 1:    30.9 MBYTE,  FILE 4:     4.2 MBYTE,   TOTAL:     35.1 MBYTE

 OPERATOR DM      FOR CENTER  0  COORDINATES:    0.000000    0.000000    0.000000


 **********************************************************************************************************************************
 DATASETS  * FILE   NREC   LENGTH (MB)   RECORD NAMES
              1      19       30.63       500      610      700      900      950      970     1000      129      960     1100   
                                          VAR    BASINP    GEOM    SYMINP    ZMAT    AOBASIS   BASIS     P2S    ABASIS      S 
                                         1400     1410     1200     1210     1080     1600     1650     1300     1700   
                                           T        V       H0       H01     AOSYM     SMH    MOLCAS    ERIS     OPER   

 PROGRAMS   *        TOTAL       INT
 CPU TIMES  *         0.35      0.25
 REAL TIME  *         0.56 SEC
 DISK USED  *        35.45 MB
 **********************************************************************************************************************************


 PROGRAM * RHF-SCF (CLOSED SHELL)       Authors: W. Meyer, H.-J. Werner


 NUMBER OF ELECTRONS:       8+    8-    SPACE SYMMETRY=1    SPIN SYMMETRY: Singlet 
 CONVERGENCE THRESHOLDS:    1.00E-05 (Density)    1.00E-07 (Energy)
 MAX. NUMBER OF ITERATIONS:       60
 INTERPOLATION TYPE:            DIIS
 INTERPOLATION STEPS:              2 (START)      1 (STEP)
 LEVEL SHIFTS:                  0.00 (CLOSED)  0.00 (OPEN) 



 Orbital guess generated from atomic densities. Full valence occupancy:    8

 Molecular orbital dump at record        2100.2

 Initial occupancy:   8

 ITERATION    DDIFF          GRAD             ENERGY        2-EL.EN.            DIPOLE MOMENTS         DIIS   ORB.
    1      0.000D+00      0.000D+00       -77.98222807    116.755935   -0.00000    0.00000    0.00000    0    start
    2      0.000D+00      0.834D-02       -78.00310186    114.779884    0.00000    0.00000   -0.00000    1    diag
    3      0.778D-02      0.310D-02       -78.00549746    115.494592   -0.00000   -0.00000    0.00000    2    diag
    4      0.294D-02      0.734D-03       -78.00573557    115.383555   -0.00000   -0.00000    0.00000    3    diag
    5      0.113D-02      0.832D-04       -78.00573900    115.388130    0.00000    0.00000   -0.00000    4    diag
    6      0.182D-03      0.129D-04       -78.00573909    115.387493    0.00000    0.00000    0.00000    5    diag
    7      0.285D-04      0.177D-05       -78.00573909    115.387509   -0.00000    0.00000   -0.00000    6    diag
    8      0.314D-05      0.240D-06       -78.00573909    115.387499    0.00000    0.00000    0.00000    0    orth

 Final occupancy:   8

 !RHF STATE  1.1 Energy               -78.005739091385
 Nuclear energy                        32.29089679
 One-electron energy                 -167.99038522
 Two-electron energy                   57.69374934
 Virial quotient                       -1.00614081
 !RHF STATE  1.1 Dipole moment          0.00000000     0.00000000     0.00000000
 Dipole moment /Debye                   0.00000000     0.00000000     0.00000000

 ELECTRON ORBITALS
 =================

  Orbital  Occupation    Energy     Coefficients
    1.1     2.00000   -11.24850     1 1s    0.70421     2 1s    0.70421
    2.1     2.00000   -11.24675     1 1s    0.70463     2 1s   -0.70463
    3.1     2.00000    -1.02169     1 1s    0.30331     2 1s    0.30331
    4.1     2.00000    -0.75187     1 1s    0.27084     2 1s   -0.27084
    5.1     2.00000    -0.60856     1 2py   0.31136     2 2py   0.31136
    6.1     2.00000    -0.57331     1 2pz   0.39482     2 2pz  -0.39482
    7.1     2.00000    -0.47182     1 2py   0.28295     2 2py  -0.28295
    8.1     2.00000    -0.37895     1 2px   0.37869     1 2px   0.30065     2 2px   0.37869     2 2px   0.30065
    9.1     0.00000     0.18224     1 2px   0.34357     1 2px   0.74327     2 2px  -0.34357     2 2px  -0.74327
   10.1     0.00000     0.24313     1 1s   -1.24703     1 2pz  -0.59257     2 1s   -1.24703     2 2pz   0.59257     3 1s    0.90153
                                    4 1s    0.90153     5 1s    0.90153     6 1s    0.90153
   11.1     0.00000     0.25707     1 2py   0.26505     1 2py   0.69046     2 2py   0.26505     2 2py   0.69046     3 1s   -0.91605
                                    4 1s    0.91605     5 1s   -0.91605     6 1s    0.91605
   12.1     0.00000     0.27485     1 1s    1.52222     2 1s   -1.52222     3 1s   -0.93219     4 1s   -0.93219     5 1s    0.93219
                                    6 1s    0.93219
   13.1     0.00000     0.38297     1 2py   0.27278     1 2py   1.69334     2 2py  -0.27278     2 2py  -1.69334     3 1s   -1.37423
                                    4 1s    1.37423     5 1s    1.37423     6 1s   -1.37423
   14.1     0.00000     0.49418     1 1s   -3.50834     1 2pz   3.00350     2 1s    3.50834     2 2pz   3.00350     3 1s   -0.44310
                                    4 1s   -0.44310     5 1s    0.44310     6 1s    0.44310
   15.1     0.00000     0.66469     1 1s    0.30635     1 2pz  -0.55962     1 2pz   1.01338     2 1s    0.30635     2 2pz   0.55962
                                    2 2pz  -1.01338
   16.1     0.00000     0.76578     1 2px  -0.73360     1 2px   0.64094     2 2px  -0.73360     2 2px   0.64094
   17.1     0.00000     0.80070     1 2py  -0.42385     1 2py   0.65899     2 2py  -0.42385     2 2py   0.65899     3 1s   -0.41269
                                    4 1s    0.41269     5 1s   -0.41269     6 1s    0.41269
   18.1     0.00000     0.87470     1 1s   -0.79294     1 1s    1.15142     1 2pz   0.38021     2 1s   -0.79294     2 1s    1.15142
                                    2 2pz  -0.38021     3 1s   -0.44516     4 1s   -0.44516     5 1s   -0.44516     6 1s   -0.44516
   19.1     0.00000     0.88567     1 2px  -0.81963     1 2px   1.08338     2 2px   0.81963     2 2px  -1.08338
   20.1     0.00000     0.96664     1 1s   -0.43319     1 2pz   0.53495     1 2pz  -0.27526     2 1s    0.43319     2 2pz   0.53495
                                    2 2pz  -0.27526     3 1s    0.44975     4 1s    0.44975     5 1s   -0.44975     6 1s   -0.44975
   21.1     0.00000     1.04480     1 2py  -0.66816     1 2py   1.04709     2 2py  -0.66816     2 2py   1.04709     3 1s    0.37364
                                    3 1s   -0.97783     4 1s   -0.37364     4 1s    0.97783     5 1s    0.37364     5 1s   -0.97783
                                    6 1s   -0.37364     6 1s    0.97783
   22.1     0.00000     1.09931     1 2py   0.86826     1 2py  -2.17824     2 2py  -0.86826     2 2py   2.17824     3 1s   -0.27860
                                    3 1s    1.16030     4 1s    0.27860     4 1s   -1.16030     5 1s    0.27860     5 1s   -1.16030
                                    6 1s   -0.27860     6 1s    1.16030
   23.1     0.00000     1.12609     1 1s    1.05025     1 1s   -1.65651     1 2pz   0.32992     1 2pz  -0.47039     2 1s    1.05025
                                    2 1s   -1.65651     2 2pz  -0.32992     2 2pz   0.47039     3 1s   -0.40640     3 1s    0.81962
                                    4 1s   -0.40640     4 1s    0.81962     5 1s   -0.40640     5 1s    0.81962     6 1s   -0.40640
                                    6 1s    0.81962
   24.1     0.00000     1.14151     1 1s    0.64150     1 1s   -1.03540     1 2pz   0.66638     1 2pz  -1.00194     2 1s   -0.64150
                                    2 1s    1.03540     2 2pz   0.66638     2 2pz  -1.00194     3 1s   -0.38059     3 1s    0.91700
                                    4 1s   -0.38059     4 1s    0.91700     5 1s    0.38059     5 1s   -0.91700     6 1s    0.38059
                                    6 1s   -0.91700
   25.1     0.00000     1.35775     1 1s   -1.53818     1 1s    5.31907     1 2pz   0.30636     1 2pz  -2.10384     2 1s    1.53818
                                    2 1s   -5.31907     2 2pz   0.30636     2 2pz  -2.10384
   26.1     0.00000     1.45865     1 2py  -0.28858     1 2py   2.72267     2 2py   0.28858     2 2py  -2.72267     3 1s   -0.65513
                                    3 1s   -0.63109     4 1s    0.65513     4 1s    0.63109     5 1s    0.65513     5 1s    0.63109
                                    6 1s   -0.65513     6 1s   -0.63109
   27.1     0.00000     1.74638     1 3d1+  0.61640     2 3d1+ -0.61640
   28.1     0.00000     1.82218     1 3d2-  0.67933     2 3d2-  0.67933
   29.1     0.00000     2.11550     1 1s   -0.51462     1 3d2+  0.70345     2 1s   -0.51462     2 3d2+  0.70345     3 1s    0.31315
                                    4 1s    0.31315     5 1s    0.31315     6 1s    0.31315
   30.1     0.00000     2.14560     1 3d2-  0.73859     2 3d2- -0.73859
   31.1     0.00000     2.19393     1 3d1-  0.65850     2 3d1- -0.65850     3 1s   -0.43516     4 1s    0.43516     5 1s   -0.43516
                                    6 1s    0.43516
   32.1     0.00000     2.42505     1 1s   -0.50883     1 2pz   0.30614     1 2pz  -0.43545     1 3d0   0.70645     2 1s   -0.50883
                                    2 2pz  -0.30614     2 2pz   0.43545     2 3d0   0.70645
   33.1     0.00000     2.51896     1 1s    0.33116     1 1s   -1.20300     1 2pz   0.25257     1 3d2+  0.77323     2 1s   -0.33116
                                    2 1s    1.20300     2 2pz   0.25257     2 3d2+ -0.77323     3 1s    0.36372     4 1s    0.36372
                                    5 1s   -0.36372     6 1s   -0.36372
   34.1     0.00000     2.72870     1 2px  -0.26834     1 3d1+  0.91534     2 2px   0.26834     2 3d1+  0.91534
   35.1     0.00000     2.94729     1 2py   0.27479     1 3d1-  0.94575     2 2py  -0.27479     2 3d1-  0.94575     3 1s   -0.36102
                                    4 1s    0.36102     5 1s    0.36102     6 1s   -0.36102
   36.1     0.00000     3.08725     1 1s    0.37454     1 1s    2.08601     1 2pz  -0.84686     1 2pz  -1.18638     1 3d0   1.12618
                                    2 1s   -0.37454     2 1s   -2.08601     2 2pz  -0.84686     2 2pz  -1.18638     2 3d0  -1.12618


 HOMO      8.1    -0.378954 =     -10.3119eV
 LUMO      9.1     0.182243 =       4.9591eV
 LUMO-HOMO         0.561197 =      15.2709eV


 **********************************************************************************************************************************
 DATASETS  * FILE   NREC   LENGTH (MB)   RECORD NAMES
              1      19       30.63       500      610      700      900      950      970     1000      129      960     1100   
                                          VAR    BASINP    GEOM    SYMINP    ZMAT    AOBASIS   BASIS     P2S    ABASIS      S 
                                         1400     1410     1200     1210     1080     1600     1650     1300     1700   
                                           T        V       H0       H01     AOSYM     SMH    MOLCAS    ERIS     OPER   

              2       4        2.86       700     1000      520     2100   
                                         GEOM     BASIS   MCVARS     RHF  

 PROGRAMS   *        TOTAL    HF-SCF       INT
 CPU TIMES  *         0.45      0.10      0.25
 REAL TIME  *         0.69 SEC
 DISK USED  *        35.45 MB
 **********************************************************************************************************************************


 PROGRAM * MULTI (Direct Multiconfiguration SCF)       Authors: P.J. Knowles, H.-J. Werner (1984)


 Number of closed-shell orbitals:   7 (   7 )
 Number of active  orbitals:        2 (   2 )
 Number of external orbitals:      27 (  27 )

 State symmetry 1

 Number of electrons:     2    Spin symmetry=Singlet   Space symmetry=1
 Number of states:        3
 Number of CSFs:          3   (4 determinants, 4 intermediate states)

 Molecular orbitals read from record     2100.2  Type=RHF/CANONICAL (state 1.1)

 EXTRA SYMMETRY OF MOS IN SYMMETRY 1:   1 1 1 1 1 1 1 2 2 1   1 1 1 1 1 2 1 1 2 1   1 1 1 1 1 1 2 3 1 3   1 1 1 2 1 1

 Wavefunction dump at record             2140.2

 Convergence thresholds  0.10E-01 (gradient)  0.10E-05 (energy)  0.10E-02 (step length)

 Weight factors for state symmetry  1:    0.33333   0.33333   0.33333

 Number of orbital rotations:      257   (    14 Core/Active    189 Core/Virtual   0 Active/Active     54 Active/Virtual)
 Total number of variables:        269

 Micro-Iterations solved by the two-step solver

 ITER. MIC  NCI  NEG     ENERGY(VAR)     ENERGY(PROJ)   ENERGY CHANGE     GRAD(0)  GRAD(ORB)   GRAD(CI)     STEP       TIME

   1    3    3    0     -77.69389681     -77.70070749   -0.00681068    0.13708619 0.00000213 0.00000000  0.65D-01      0.07
   2    2    3    0     -77.70058644     -77.70059156   -0.00000513    0.00351293 0.00000259 0.00000000  0.19D-02      0.10
   3    2    3    0     -77.70059157     -77.70059157   -0.00000000    0.00000308 0.00000000 0.00000000  0.19D-05      0.13

 ** WVFN ****  CONVERGENCE REACHED, FINAL GRADIENT:  0.27D-11



 Results for state 1.1
 =====================

 !MCSCF STATE  1.1 Energy             -78.022127287612
 Nuclear energy                        32.29089679
 Kinetic energy                        77.60675465
 One electron energy                 -168.16029058
 Two electron energy                   57.84726650
 Virial ratio                           2.00535227

 !MCSCF STATE  1.1 Dipole moment        0.00000000    -0.00000000     0.00000000
 Dipole moment /Debye                   0.00000000    -0.00000000     0.00000000

 Results for state 2.1
 =====================

 !MCSCF STATE  2.1 Energy             -77.638205375623
 Nuclear energy                        32.29089679
 Kinetic energy                        77.77947181
 One electron energy                 -167.54479702
 Two electron energy                   57.61569485
 Virial ratio                           1.99818376

 !MCSCF STATE  2.1 Dipole moment        0.00000000    -0.00000000     0.00000000
 Dipole moment /Debye                   0.00000000    -0.00000000     0.00000000

 Results for state 3.1
 =====================

 !MCSCF STATE  3.1 Energy             -77.441442035884
 Nuclear energy                        32.29089679
 Kinetic energy                        77.95218896
 One electron energy                 -166.92930346
 Two electron energy                   57.19696463
 Virial ratio                           1.99344795

 !MCSCF STATE  3.1 Dipole moment        0.00000000    -0.00000000     0.00000000
 Dipole moment /Debye                   0.00000000    -0.00000000     0.00000000

 State-averaged charge density matrix saved on record  2140.2 (density set 1)

 !MCSCF trans         <2.1|DMZ|1.1>    -1.504990963171 au =    -3.825054932175 Debye
 !MCSCF trans         <3.1|DMZ|2.1>    -2.227551522880 au =    -5.661500399520 Debye


 NATURAL ORBITALS (state averaged)
 =================================

  Orbital  Occupation    Energy     Coefficients
    1.1     2.00000   -11.26424     1 1s    0.70422     2 1s    0.70422
    2.1     2.00000   -11.26277     1 1s    0.70459     2 1s   -0.70459
    3.1     2.00000    -1.03821     1 1s    0.31106     2 1s    0.31106
    4.1     2.00000    -0.75936     1 1s    0.32013     2 1s   -0.32013
    5.1     2.00000    -0.62132     1 2py   0.31792     2 2py   0.31792
    6.1     2.00000    -0.58629     1 2pz   0.39566     2 2pz  -0.39566
    7.1     2.00000    -0.47737     1 2py   0.28997     2 2py  -0.28997
    8.1     1.00000     0.03698     1 2px   0.38310     1 2px   0.69397     2 2px  -0.38310     2 2px  -0.69397
    9.1     1.00000    -0.23239     1 2px   0.36328     1 2px   0.31213     2 2px   0.36328     2 2px   0.31213
   10.1    -0.00000     0.24112     1 1s   -1.24459     1 2pz  -0.59604     2 1s   -1.24459     2 2pz   0.59604     3 1s    0.90193
                                    4 1s    0.90193     5 1s    0.90193     6 1s    0.90193
   11.1    -0.00000     0.24745     1 2py   0.26314     1 2py   0.67909     2 2py   0.26314     2 2py   0.67909     3 1s   -0.90829
                                    4 1s    0.90829     5 1s   -0.90829     6 1s    0.90829
   12.1    -0.00000     0.27143     1 1s    1.55441     2 1s   -1.55441     3 1s   -0.92695     4 1s   -0.92695     5 1s    0.92695
                                    6 1s    0.92695
   13.1    -0.00000     0.37759     1 2py   0.27701     1 2py   1.67801     2 2py  -0.27701     2 2py  -1.67801     3 1s   -1.36747
                                    4 1s    1.36747     5 1s    1.36747     6 1s   -1.36747
   14.1    -0.00000     0.49184     1 1s   -3.48144     1 2pz   2.98815     2 1s    3.48144     2 2pz   2.98815     3 1s   -0.45486
                                    4 1s   -0.45486     5 1s    0.45486     6 1s    0.45486
   15.1    -0.00000     0.65164     1 1s    0.33824     1 2pz  -0.54694     1 2pz   0.99368     2 1s    0.33824     2 2pz   0.54694
                                    2 2pz  -0.99368
   16.1    -0.00000     0.76058     1 2px  -0.74022     1 2px   0.63581     2 2px  -0.74022     2 2px   0.63581
   17.1    -0.00000     0.79136     1 2py  -0.43907     1 2py   0.67516     2 2py  -0.43907     2 2py   0.67516     3 1s   -0.40541
                                    4 1s    0.40541     5 1s   -0.40541     6 1s    0.40541
   18.1    -0.00000     0.86829     1 2px  -0.80343     1 2px   1.11540     2 2px   0.80343     2 2px  -1.11540
   19.1    -0.00000     0.87406     1 1s   -0.78556     1 1s    1.16471     1 2pz   0.41380     2 1s   -0.78556     2 1s    1.16471
                                    2 2pz  -0.41380     3 1s   -0.44441     4 1s   -0.44441     5 1s   -0.44441     6 1s   -0.44441
   20.1    -0.00000     0.94923     1 1s   -0.28678     1 2pz   0.55032     1 2pz  -0.37560     2 1s    0.28678     2 2pz   0.55032
                                    2 2pz  -0.37560     3 1s    0.44308     4 1s    0.44308     5 1s   -0.44308     6 1s   -0.44308
   21.1    -0.00000     1.03049     1 2py  -0.65367     1 2py   1.04377     2 2py  -0.65367     2 2py   1.04377     3 1s    0.37794
                                    3 1s   -0.98679     4 1s   -0.37794     4 1s    0.98679     5 1s    0.37794     5 1s   -0.98679
                                    6 1s   -0.37794     6 1s    0.98679
   22.1    -0.00000     1.08715     1 2py   0.86510     1 2py  -2.19702     2 2py  -0.86510     2 2py   2.19702     3 1s   -0.27778
                                    3 1s    1.17159     4 1s    0.27778     4 1s   -1.17159     5 1s    0.27778     5 1s   -1.17159
                                    6 1s   -0.27778     6 1s    1.17159
   23.1    -0.00000     1.12303     1 1s    1.04505     1 1s   -1.65398     1 2pz   0.33506     1 2pz  -0.47828     2 1s    1.04505
                                    2 1s   -1.65398     2 2pz  -0.33506     2 2pz   0.47828     3 1s   -0.40748     3 1s    0.82016
                                    4 1s   -0.40748     4 1s    0.82016     5 1s   -0.40748     5 1s    0.82016     6 1s   -0.40748
                                    6 1s    0.82016
   24.1    -0.00000     1.14005     1 1s    0.62005     1 1s   -0.94499     1 2pz   0.66663     1 2pz  -1.03552     2 1s   -0.62005
                                    2 1s    0.94499     2 2pz   0.66663     2 2pz  -1.03552     3 1s   -0.38843     3 1s    0.91672
                                    4 1s   -0.38843     4 1s    0.91672     5 1s    0.38843     5 1s   -0.91672     6 1s    0.38843
                                    6 1s   -0.91672
   25.1    -0.00000     1.33769     1 1s   -1.54814     1 1s    5.33915     1 2pz   0.29667     1 2pz  -2.08941     2 1s    1.54814
                                    2 1s   -5.33915     2 2pz   0.29667     2 2pz  -2.08941
   26.1    -0.00000     1.45145     1 2py  -0.28961     1 2py   2.71594     2 2py   0.28961     2 2py  -2.71594     3 1s   -0.65531
                                    3 1s   -0.62755     4 1s    0.65531     4 1s    0.62755     5 1s    0.65531     5 1s    0.62755
                                    6 1s   -0.65531     6 1s   -0.62755
   27.1    -0.00000     1.72076     1 3d1+  0.61607     2 3d1+ -0.61607
   28.1    -0.00000     1.80872     1 3d2-  0.67933     2 3d2-  0.67933
   29.1    -0.00000     2.10070     1 1s   -0.51154     1 3d2+  0.70320     2 1s   -0.51154     2 3d2+  0.70320     3 1s    0.31469
                                    4 1s    0.31469     5 1s    0.31469     6 1s    0.31469
   30.1    -0.00000     2.12283     1 3d2-  0.73859     2 3d2- -0.73859
   31.1    -0.00000     2.17739     1 3d1-  0.65687     2 3d1- -0.65687     3 1s   -0.43864     4 1s    0.43864     5 1s   -0.43864
                                    6 1s    0.43864
   32.1    -0.00000     2.40579     1 1s   -0.50671     1 2pz   0.31222     1 2pz  -0.43775     1 3d0   0.70630     2 1s   -0.50671
                                    2 2pz  -0.31222     2 2pz   0.43775     2 3d0   0.70630
   33.1    -0.00000     2.49919     1 1s    0.33267     1 1s   -1.21306     1 2pz   0.25278     1 3d2+  0.77252     2 1s   -0.33267
                                    2 1s    1.21306     2 2pz   0.25278     2 3d2+ -0.77252     3 1s    0.36658     4 1s    0.36658
                                    5 1s   -0.36658     6 1s   -0.36658
   34.1    -0.00000     2.70682     1 2px  -0.26918     1 3d1+  0.91572     2 2px   0.26918     2 3d1+  0.91572
   35.1    -0.00000     2.93456     1 2py   0.27396     1 3d1-  0.94555     2 2py  -0.27396     2 3d1-  0.94555     3 1s   -0.36299
                                    4 1s    0.36299     5 1s    0.36299     6 1s   -0.36299
   36.1    -0.00000     3.06957     1 1s    0.36740     1 1s    2.11127     1 2pz  -0.83927     1 2pz  -1.19994     1 3d0   1.12792
                                    2 1s   -0.36740     2 1s   -2.11127     2 2pz  -0.83927     2 2pz  -1.19994     2 3d0  -1.12792


 EXTRA SYMMETRY OF MOS IN SYMMETRY 1:   1 1 1 1 1 1 1 2 2 1   1 1 1 1 1 2 1 2 1 1   1 1 1 1 1 1 2 3 1 3   1 1 1 2 1 1

 Natural orbital dump (state averaged) at molpro section  2140.2    (Orbital set 2)



 **********************************************************************************************************************************
 DATASETS  * FILE   NREC   LENGTH (MB)   RECORD NAMES
              1      20       31.36       500      610      700      900      950      970     1000      129      960     1100   
                                          VAR    BASINP    GEOM    SYMINP    ZMAT    AOBASIS   BASIS     P2S    ABASIS      S 
                                         1400     1410     1200     1210     1080     1600     1650     1300     1700     1380   
                                           T        V       H0       H01     AOSYM     SMH    MOLCAS    ERIS     OPER     JKOP   

              2       5        5.42       700     1000      520     2100     2140   
                                         GEOM     BASIS   MCVARS     RHF     MCSCF   

 PROGRAMS   *        TOTAL     MULTI    HF-SCF       INT
 CPU TIMES  *         0.62      0.17      0.10      0.25
 REAL TIME  *         0.88 SEC
 DISK USED  *        38.54 MB
 **********************************************************************************************************************************
 Molecular orbitals read from record     2140.2  Type=MCSCF/NATURAL (state averaged)
 Occupation numbers read from record     2140.2  Type=MCSCF/NATURAL (state averaged)
 Orbital energies read from record       2140.2  Type=MCSCF/NATURAL (state averaged)
 Redundancy group numbers read from rec  2140.2  Type=MCSCF/NATURAL (state averaged)

 MULTI/6-31G* energy=    -77.441442035884

           MULTI          HF-SCF
    -77.44144204    -78.00573909
 **********************************************************************************************************************************
 Molpro calculation terminated
