
 Primary working directories    : /scratch.local/johan406.molpro_temp/molpro.A1XTLcMKij
 Secondary working directories  : /scratch.local/johan406.molpro_temp/molpro.A1XTLcMKij
 Wavefunction directory         : /home/goodpast/johan406/wfu/
 Main file repository           : /scratch.local/johan406.molpro_temp/molpro.A1XTLcMKij/

 id        : roweumn

 Nodes     nprocs
 cn0117       1

 Using customized tuning parameters: mindgm=1; mindgv=20; mindgc=4; mindgr=1; noblas=0; minvec=7
 default implementation of scratch files=df  


 Variables initialized (934), CPU time= 0.00 sec
                                                                                 !leave this line blank
 
 gprint, orbitals=30
 memory, 125., m
 symmetry, nosym
 nelect=16
 basis=6-31g*
 
 geometry={
 C -0.0 0.0 0.6501
 C 0.0 0.0 -0.6501
 H 0.0 1.0783 1.3336
 H -0.0 -1.0783 1.3336
 H 0.0 1.0783 -1.3336
 H 0.0 -1.0783 -1.3336
 }
 
 hf
 {multi,
 closed 7
 occ 9
 wf,spin=0;STATE,3
 }
 
 Commands  initialized (763), CPU time= 0.00 sec, 617 directives.
 Default parameters read. Elapsed time= 0.07 sec

 Checking input...
 Passed
1


                                         ***  PROGRAM SYSTEM MOLPRO  ***
                                       Copyright, TTI GmbH Stuttgart, 2015
                                    Version 2019.2 linked Oct 25 2019 22:50:27


 **********************************************************************************************************************************
 LABEL *                                                                                 
  64 bit serial version                                                                  DATE: 26-Jan-23          TIME: 20:59:18  
 **********************************************************************************************************************************

 SHA1:             8dbd9ae1082e4ce945b0f27595c9eb2d4aa09004
 **********************************************************************************************************************************


 Variable memory set to  125000000 words,  buffer space 

 SETTING NELECT         =        16.00000000                                  
 SETTING BASIS          =    6-31G*
 ZSYMEL=NOSYM


Geometry recognized as XYZ



 Recomputing integrals since basis changed


 Using spherical harmonics

 Library entry C      S 6-31G                selected for orbital group  1
 Library entry C      P 6-31G                selected for orbital group  1
 Library entry C      D 6-31G*               selected for orbital group  1
 Library entry H      S 6-31G                selected for orbital group  2


 PROGRAM * SEWARD (Integral evaluation for generally contracted gaussian basis sets)     Author: Roland Lindh, 1990

 Geometry written to block  1 of record 700


 Point group  C1  



 ATOMIC COORDINATES

 NR  ATOM    CHARGE       X              Y              Z

   1  C       6.00    0.000000000    0.000000000    1.228510954
   2  C       6.00    0.000000000    0.000000000   -1.228510954
   3  H       1.00    0.000000000    2.037691680    2.520138760
   4  H       1.00    0.000000000   -2.037691680    2.520138760
   5  H       1.00    0.000000000    2.037691680   -2.520138760
   6  H       1.00    0.000000000   -2.037691680   -2.520138760

 Bond lengths in Bohr (Angstrom)

 1-2  2.457021907  1-3  2.412569123  1-4  2.412569123  2-5  2.412569123  2-6  2.412569123
     ( 1.300200000)     ( 1.276676600)     ( 1.276676600)     ( 1.276676600)     ( 1.276676600)

 Bond angles

  1-2-5  122.36930753   1-2-6  122.36930753   2-1-3  122.36930753   2-1-4  122.36930753

  3-1-4  115.26138493   5-2-6  115.26138493

 NUCLEAR CHARGE:                   16
 NUMBER OF PRIMITIVE AOS:          72
 NUMBER OF SYMMETRY AOS:           70
 NUMBER OF CONTRACTIONS:           36   (   36A   )
 NUMBER OF CORE ORBITALS:           2   (    2A   )
 NUMBER OF VALENCE ORBITALS:       12   (   12A   )


 NUCLEAR REPULSION ENERGY   31.42088068

 EXTRA SYMMETRY OF AOS IN SYMMETRY 1:   1 1 1 2 1 1 2 1 1 1   3 2 1 1 1 1 1 2 1 1   2 1 1 1 3 2 1 1 1 1   1 1 1 1 1 1

 Eigenvalues of metric

         1 0.751E-02 0.296E-01 0.588E-01 0.727E-01 0.111E+00 0.170E+00 0.223E+00 0.233E+00


 Contracted 2-electron integrals neglected if value below      1.0D-11
 AO integral compression algorithm  1   Integral accuracy      1.0D-11

     0.786 MB (compressed) written to integral file ( 36.7%)


 NUMBER OF SORTED TWO-ELECTRON INTEGRALS:     222111.     BUFFER LENGTH:  32768
 NUMBER OF SEGMENTS:   1  SEGMENT LENGTH:     222111      RECORD LENGTH: 524288

 Memory used in sort:       0.78 MW

 SORT1 READ      284735. AND WROTE       98052. INTEGRALS IN      1 RECORDS. CPU TIME:     0.01 SEC, REAL TIME:     0.01 SEC
 SORT2 READ       98052. AND WROTE      222111. INTEGRALS IN      3 RECORDS. CPU TIME:     0.02 SEC, REAL TIME:     0.02 SEC

 FILE SIZES:   FILE 1:    30.9 MBYTE,  FILE 4:     4.2 MBYTE,   TOTAL:     35.1 MBYTE

 OPERATOR DM      FOR CENTER  0  COORDINATES:    0.000000    0.000000    0.000000


 **********************************************************************************************************************************
 DATASETS  * FILE   NREC   LENGTH (MB)   RECORD NAMES
              1      19       30.62       500      610      700      900      950      970     1000      129      960     1100   
                                          VAR    BASINP    GEOM    SYMINP    ZMAT    AOBASIS   BASIS     P2S    ABASIS      S 
                                         1400     1410     1200     1210     1080     1600     1650     1300     1700   
                                           T        V       H0       H01     AOSYM     SMH    MOLCAS    ERIS     OPER   

 PROGRAMS   *        TOTAL       INT
 CPU TIMES  *         0.34      0.25
 REAL TIME  *         0.57 SEC
 DISK USED  *        35.45 MB
 **********************************************************************************************************************************


 PROGRAM * RHF-SCF (CLOSED SHELL)       Authors: W. Meyer, H.-J. Werner


 NUMBER OF ELECTRONS:       8+    8-    SPACE SYMMETRY=1    SPIN SYMMETRY: Singlet 
 CONVERGENCE THRESHOLDS:    1.00E-05 (Density)    1.00E-07 (Energy)
 MAX. NUMBER OF ITERATIONS:       60
 INTERPOLATION TYPE:            DIIS
 INTERPOLATION STEPS:              2 (START)      1 (STEP)
 LEVEL SHIFTS:                  0.00 (CLOSED)  0.00 (OPEN) 



 Orbital guess generated from atomic densities. Full valence occupancy:    8

 Molecular orbital dump at record        2100.2

 Initial occupancy:   8

 ITERATION    DDIFF          GRAD             ENERGY        2-EL.EN.            DIPOLE MOMENTS         DIIS   ORB.
    1      0.000D+00      0.000D+00       -77.92573276    115.206034    0.00000   -0.00000   -0.00000    0    start
    2      0.000D+00      0.827D-02       -77.94633993    113.018322   -0.00000    0.00000    0.00000    1    diag
    3      0.768D-02      0.339D-02       -77.94922985    113.840917    0.00000   -0.00000    0.00000    2    diag
    4      0.334D-02      0.770D-03       -77.94952111    113.717658    0.00000    0.00000   -0.00000    3    diag
    5      0.125D-02      0.108D-03       -77.94952761    113.724294   -0.00000    0.00000    0.00000    4    diag
    6      0.248D-03      0.182D-04       -77.94952781    113.723407    0.00000   -0.00000    0.00000    5    diag
    7      0.422D-04      0.256D-05       -77.94952782    113.723453    0.00000   -0.00000   -0.00000    6    diag
    8      0.491D-05      0.337D-06       -77.94952782    113.723435   -0.00000   -0.00000    0.00000    0    orth

 Final occupancy:   8

 !RHF STATE  1.1 Energy               -77.949527817412
 Nuclear energy                        31.42088068
 One-electron energy                 -166.23212588
 Two-electron energy                   56.86171739
 Virial quotient                       -1.00993113
 !RHF STATE  1.1 Dipole moment         -0.00000000    -0.00000000     0.00000000
 Dipole moment /Debye                  -0.00000000    -0.00000000     0.00000000

 ELECTRON ORBITALS
 =================

  Orbital  Occupation    Energy     Coefficients
    1.1     2.00000   -11.26889     1 1s    0.70421     2 1s    0.70421
    2.1     2.00000   -11.26695     1 1s    0.70470     2 1s   -0.70470
    3.1     2.00000    -1.02224     1 1s    0.30476     2 1s    0.30476
    4.1     2.00000    -0.71779     1 1s    0.29349     2 1s   -0.29349
    5.1     2.00000    -0.58355     1 2py   0.30334     2 2py   0.30334
    6.1     2.00000    -0.56259     1 2pz   0.38322     2 2pz  -0.38322
    7.1     2.00000    -0.44350     1 2py   0.26229     2 2py  -0.26229
    8.1     2.00000    -0.38884     1 2px   0.38458     1 2px   0.29307     2 2px   0.38458     2 2px   0.29307
    9.1     0.00000     0.18559     1 2px   0.34654     1 2px   0.75023     2 2px  -0.34654     2 2px  -0.75023
   10.1     0.00000     0.21752     1 1s   -1.05402     1 2pz  -0.53653     2 1s   -1.05402     2 2pz   0.53653     3 1s    0.78975
                                    4 1s    0.78975     5 1s    0.78975     6 1s    0.78975
   11.1     0.00000     0.21990     1 2py   0.27518     1 2py   0.59406     2 2py   0.27518     2 2py   0.59406     3 1s   -0.77930
                                    4 1s    0.77930     5 1s   -0.77930     6 1s    0.77930
   12.1     0.00000     0.23731     1 1s   -1.21398     1 2pz  -0.25051     2 1s    1.21398     2 2pz  -0.25051     3 1s    0.81006
                                    4 1s    0.81006     5 1s   -0.81006     6 1s   -0.81006
   13.1     0.00000     0.37357     1 2py   0.29606     1 2py   1.54694     2 2py  -0.29606     2 2py  -1.54694     3 1s   -1.17941
                                    4 1s    1.17941     5 1s    1.17941     6 1s   -1.17941
   14.1     0.00000     0.49965     1 1s   -3.91176     1 2pz   3.05810     2 1s    3.91176     2 2pz   3.05810     3 1s   -0.35378
                                    4 1s   -0.35378     5 1s    0.35378     6 1s    0.35378
   15.1     0.00000     0.65645     1 1s    0.36183     1 2pz  -0.54827     1 2pz   1.00370     2 1s    0.36183     2 2pz   0.54827
                                    2 2pz  -1.00370
   16.1     0.00000     0.75494     1 2px  -0.72660     1 2px   0.64252     2 2px  -0.72660     2 2px   0.64252
   17.1     0.00000     0.84080     1 2py  -0.45807     1 2py   0.60151     2 2py  -0.45807     2 2py   0.60151     3 1s   -0.43032
                                    4 1s    0.43032     5 1s   -0.43032     6 1s    0.43032
   18.1     0.00000     0.88120     1 2px  -0.82000     1 2px   1.09416     2 2px   0.82000     2 2px  -1.09416
   19.1     0.00000     0.89476     1 1s   -0.69021     1 1s    0.89079     1 2pz   0.39818     2 1s   -0.69021     2 1s    0.89079
                                    2 2pz  -0.39818     3 1s   -0.48530     4 1s   -0.48530     5 1s   -0.48530     6 1s   -0.48530
   20.1     0.00000     0.97395     1 2pz   0.39980     2 2pz   0.39980     3 1s    0.52387     3 1s   -0.44601     4 1s    0.52387
                                    4 1s   -0.44601     5 1s   -0.52387     5 1s    0.44601     6 1s   -0.52387     6 1s    0.44601
   21.1     0.00000     0.99492     1 2py   0.63910     1 2py  -0.98739     2 2py   0.63910     2 2py  -0.98739     3 1s   -0.37610
                                    3 1s    0.91252     4 1s    0.37610     4 1s   -0.91252     5 1s   -0.37610     5 1s    0.91252
                                    6 1s    0.37610     6 1s   -0.91252
   22.1     0.00000     1.03978     1 2py   0.80003     1 2py  -1.78199     2 2py  -0.80003     2 2py   1.78199     3 1s   -0.33961
                                    3 1s    0.99181     4 1s    0.33961     4 1s   -0.99181     5 1s    0.33961     5 1s   -0.99181
                                    6 1s   -0.33961     6 1s    0.99181
   23.1     0.00000     1.06402     1 1s   -1.07492     1 1s    1.60437     1 2pz  -0.30567     1 2pz   0.45249     2 1s   -1.07492
                                    2 1s    1.60437     2 2pz   0.30567     2 2pz  -0.45249     3 1s    0.36885     3 1s   -0.77174
                                    4 1s    0.36885     4 1s   -0.77174     5 1s    0.36885     5 1s   -0.77174     6 1s    0.36885
                                    6 1s   -0.77174
   24.1     0.00000     1.09483     1 1s    0.62688     1 1s   -1.15836     1 2pz   0.75342     1 2pz  -0.88548     2 1s   -0.62688
                                    2 1s    1.15836     2 2pz   0.75342     2 2pz  -0.88548     3 1s   -0.25675     3 1s    0.77591
                                    4 1s   -0.25675     4 1s    0.77591     5 1s    0.25675     5 1s   -0.77591     6 1s    0.25675
                                    6 1s   -0.77591
   25.1     0.00000     1.37710     1 1s   -1.52476     1 1s    5.33413     1 2pz   0.30688     1 2pz  -2.19625     2 1s    1.52476
                                    2 1s   -5.33413     2 2pz   0.30688     2 2pz  -2.19625
   26.1     0.00000     1.45989     1 2py  -0.43296     1 2py   2.59732     2 2py   0.43296     2 2py  -2.59732     3 1s   -0.62503
                                    3 1s   -0.48845     4 1s    0.62503     4 1s    0.48845     5 1s    0.62503     5 1s    0.48845
                                    6 1s   -0.62503     6 1s   -0.48845
   27.1     0.00000     1.75239     1 3d1+  0.61413     2 3d1+ -0.61413
   28.1     0.00000     1.81908     1 3d2-  0.67748     2 3d2-  0.67748
   29.1     0.00000     2.03637     1 1s   -0.43687     1 3d2+  0.69000     2 1s   -0.43687     2 3d2+  0.69000     3 1s    0.25869
                                    4 1s    0.25869     5 1s    0.25869     6 1s    0.25869
   30.1     0.00000     2.07945     1 3d1-  0.63528     2 3d1- -0.63528     3 1s   -0.37072     4 1s    0.37072     5 1s   -0.37072
                                    6 1s    0.37072
   31.1     0.00000     2.15892     1 3d2-  0.74100     2 3d2- -0.74100
   32.1     0.00000     2.43103     1 1s    0.32705     1 1s   -1.04652     1 3d2+  0.75728     2 1s   -0.32705     2 1s    1.04652
                                    2 3d2+ -0.75728     3 1s    0.30086     4 1s    0.30086     5 1s   -0.30086     6 1s   -0.30086
   33.1     0.00000     2.44231     1 1s   -0.51179     1 2pz   0.31271     1 2pz  -0.43593     1 3d0   0.71504     2 1s   -0.51179
                                    2 2pz  -0.31271     2 2pz   0.43593     2 3d0   0.71504
   34.1     0.00000     2.74652     1 2px  -0.27167     1 3d1+  0.92782     2 2px   0.27167     2 3d1+  0.92782
   35.1     0.00000     2.86441     1 3d1-  0.93854     2 3d1-  0.93854     3 1s   -0.26529     4 1s    0.26529     5 1s    0.26529
                                    6 1s   -0.26529
   36.1     0.00000     3.11038     1 1s    0.43517     1 1s    2.12955     1 2pz  -0.89939     1 2pz  -1.18738     1 3d0   1.13936
                                    2 1s   -0.43517     2 1s   -2.12955     2 2pz  -0.89939     2 2pz  -1.18738     2 3d0  -1.13936


 HOMO      8.1    -0.388842 =     -10.5809eV
 LUMO      9.1     0.185592 =       5.0502eV
 LUMO-HOMO         0.574434 =      15.6311eV


 **********************************************************************************************************************************
 DATASETS  * FILE   NREC   LENGTH (MB)   RECORD NAMES
              1      19       30.62       500      610      700      900      950      970     1000      129      960     1100   
                                          VAR    BASINP    GEOM    SYMINP    ZMAT    AOBASIS   BASIS     P2S    ABASIS      S 
                                         1400     1410     1200     1210     1080     1600     1650     1300     1700   
                                           T        V       H0       H01     AOSYM     SMH    MOLCAS    ERIS     OPER   

              2       4        2.86       700     1000      520     2100   
                                         GEOM     BASIS   MCVARS     RHF  

 PROGRAMS   *        TOTAL    HF-SCF       INT
 CPU TIMES  *         0.44      0.10      0.25
 REAL TIME  *         0.69 SEC
 DISK USED  *        35.45 MB
 **********************************************************************************************************************************


 PROGRAM * MULTI (Direct Multiconfiguration SCF)       Authors: P.J. Knowles, H.-J. Werner (1984)


 Number of closed-shell orbitals:   7 (   7 )
 Number of active  orbitals:        2 (   2 )
 Number of external orbitals:      27 (  27 )

 State symmetry 1

 Number of electrons:     2    Spin symmetry=Singlet   Space symmetry=1
 Number of states:        3
 Number of CSFs:          3   (4 determinants, 4 intermediate states)

 Molecular orbitals read from record     2100.2  Type=RHF/CANONICAL (state 1.1)

 EXTRA SYMMETRY OF MOS IN SYMMETRY 1:   1 1 1 1 1 1 1 2 2 1   1 1 1 1 1 2 1 2 1 1   1 1 1 1 1 1 2 3 1 1   3 1 1 2 1 1

 Wavefunction dump at record             2140.2

 Convergence thresholds  0.10E-01 (gradient)  0.10E-05 (energy)  0.10E-02 (step length)

 Weight factors for state symmetry  1:    0.33333   0.33333   0.33333

 Number of orbital rotations:      257   (    14 Core/Active    189 Core/Virtual   0 Active/Active     54 Active/Virtual)
 Total number of variables:        269

 Micro-Iterations solved by the two-step solver

 ITER. MIC  NCI  NEG     ENERGY(VAR)     ENERGY(PROJ)   ENERGY CHANGE     GRAD(0)  GRAD(ORB)   GRAD(CI)     STEP       TIME

   1    3    3    0     -77.62709123     -77.63445245   -0.00736122    0.14125902 0.00000288 0.00000000  0.68D-01      0.06
   2    2    3    0     -77.63430739     -77.63431411   -0.00000673    0.00398638 0.00000348 0.00000000  0.22D-02      0.09
   3    2    3    0     -77.63431412     -77.63431412   -0.00000000    0.00000421 0.00000000 0.00000000  0.26D-05      0.13

 ** WVFN ****  CONVERGENCE REACHED, FINAL GRADIENT:  0.54D-11



 Results for state 1.1
 =====================

 !MCSCF STATE  1.1 Energy             -77.964828780761
 Nuclear energy                        31.42088068
 Kinetic energy                        77.26775997
 One electron energy                 -166.43686690
 Two electron energy                   57.05115744
 Virial ratio                           2.00902147

 !MCSCF STATE  1.1 Dipole moment        0.00000000    -0.00000000    -0.00000000
 Dipole moment /Debye                   0.00000000    -0.00000000    -0.00000000

 Results for state 2.1
 =====================

 !MCSCF STATE  2.1 Energy             -77.572558652454
 Nuclear energy                        31.42088068
 Kinetic energy                        77.43486420
 One electron energy                 -165.78418809
 Two electron energy                   56.79074876
 Virial ratio                           2.00177820

 !MCSCF STATE  2.1 Dipole moment        0.00000000    -0.00000000    -0.00000000
 Dipole moment /Debye                   0.00000000    -0.00000000    -0.00000000

 Results for state 3.1
 =====================

 !MCSCF STATE  3.1 Energy             -77.365554925095
 Nuclear energy                        31.42088068
 Kinetic energy                        77.60196844
 One electron energy                 -165.13150928
 Two electron energy                   56.34507367
 Virial ratio                           1.99695351

 !MCSCF STATE  3.1 Dipole moment        0.00000000    -0.00000000    -0.00000000
 Dipole moment /Debye                   0.00000000    -0.00000000    -0.00000000

 State-averaged charge density matrix saved on record  2140.2 (density set 1)

 !MCSCF trans         <2.1|DMZ|1.1>    -1.497825335165 au =    -3.806842915348 Debye
 !MCSCF trans         <3.1|DMZ|2.1>    -2.185178428999 au =    -5.553805791575 Debye


 NATURAL ORBITALS (state averaged)
 =================================

  Orbital  Occupation    Energy     Coefficients
    1.1     2.00000   -11.28441     1 1s    0.70423     2 1s    0.70423
    2.1     2.00000   -11.28278     1 1s    0.70466     2 1s   -0.70466
    3.1     2.00000    -1.04010     1 1s    0.31215     2 1s    0.31215
    4.1     2.00000    -0.72485     1 1s    0.34622     2 1s   -0.34622
    5.1     2.00000    -0.59621     1 2py   0.31080     2 2py   0.31080
    6.1     2.00000    -0.57356     1 2pz   0.38349     2 2pz  -0.38349
    7.1     2.00000    -0.44798     1 2py   0.26971     2 2py  -0.26971
    8.1     1.00000     0.03998     1 2px   0.38755     1 2px   0.69861     2 2px  -0.38755     2 2px  -0.69861
    9.1     1.00000    -0.23949     1 2px   0.36910     1 2px   0.30467     2 2px   0.36910     2 2px   0.30467
   10.1    -0.00000     0.20948     1 2py   0.27283     1 2py   0.58180     2 2py   0.27283     2 2py   0.58180     3 1s   -0.77297
                                    4 1s    0.77297     5 1s   -0.77297     6 1s    0.77297
   11.1    -0.00000     0.21618     1 1s   -1.05307     1 2pz  -0.53787     2 1s   -1.05307     2 2pz   0.53787     3 1s    0.79076
                                    4 1s    0.79076     5 1s    0.79076     6 1s    0.79076
   12.1    -0.00000     0.23384     1 1s   -1.25089     2 1s    1.25089     3 1s    0.80583     4 1s    0.80583     5 1s   -0.80583
                                    6 1s   -0.80583
   13.1    -0.00000     0.36710     1 2py   0.30082     1 2py   1.53061     2 2py  -0.30082     2 2py  -1.53061     3 1s   -1.17273
                                    4 1s    1.17273     5 1s    1.17273     6 1s   -1.17273
   14.1    -0.00000     0.49771     1 1s   -3.88325     1 2pz   3.04388     2 1s    3.88325     2 2pz   3.04388     3 1s   -0.36551
                                    4 1s   -0.36551     5 1s    0.36551     6 1s    0.36551
   15.1    -0.00000     0.64286     1 1s    0.38663     1 2pz  -0.53349     1 2pz   0.98837     2 1s    0.38663     2 2pz   0.53349
                                    2 2pz  -0.98837
   16.1    -0.00000     0.75063     1 2px  -0.73329     1 2px   0.63750     2 2px  -0.73329     2 2px   0.63750
   17.1    -0.00000     0.83224     1 2py  -0.48049     1 2py   0.63164     2 2py  -0.48049     2 2py   0.63164     3 1s   -0.41787
                                    4 1s    0.41787     5 1s   -0.41787     6 1s    0.41787
   18.1    -0.00000     0.86421     1 2px  -0.80313     1 2px   1.12761     2 2px   0.80313     2 2px  -1.12761
   19.1    -0.00000     0.89533     1 1s   -0.68182     1 1s    0.89526     1 2pz   0.41944     2 1s   -0.68182     2 1s    0.89526
                                    2 2pz  -0.41944     3 1s   -0.48449     4 1s   -0.48449     5 1s   -0.48449     6 1s   -0.48449
   20.1    -0.00000     0.95980     1 2pz   0.43891     2 2pz   0.43891     3 1s    0.51007     3 1s   -0.41219     4 1s    0.51007
                                    4 1s   -0.41219     5 1s   -0.51007     5 1s    0.41219     6 1s   -0.51007     6 1s    0.41219
   21.1    -0.00000     0.98188     1 2py   0.61784     1 2py  -0.97519     2 2py   0.61784     2 2py  -0.97519     3 1s   -0.38681
                                    3 1s    0.92261     4 1s    0.38681     4 1s   -0.92261     5 1s   -0.38681     5 1s    0.92261
                                    6 1s    0.38681     6 1s   -0.92261
   22.1    -0.00000     1.02873     1 2py   0.79780     1 2py  -1.80689     2 2py  -0.79780     2 2py   1.80689     3 1s   -0.33755
                                    3 1s    1.00347     4 1s    0.33755     4 1s   -1.00347     5 1s    0.33755     5 1s   -1.00347
                                    6 1s   -0.33755     6 1s    1.00347
   23.1    -0.00000     1.06118     1 1s   -1.07078     1 1s    1.60506     1 2pz  -0.31269     1 2pz   0.46389     2 1s   -1.07078
                                    2 1s    1.60506     2 2pz   0.31269     2 2pz  -0.46389     3 1s    0.36917     3 1s   -0.77298
                                    4 1s    0.36917     4 1s   -0.77298     5 1s    0.36917     5 1s   -0.77298     6 1s    0.36917
                                    6 1s   -0.77298
   24.1    -0.00000     1.09191     1 1s    0.61499     1 1s   -1.06206     1 2pz   0.74309     1 2pz  -0.92795     2 1s   -0.61499
                                    2 1s    1.06206     2 2pz   0.74309     2 2pz  -0.92795     3 1s   -0.28165     3 1s    0.79313
                                    4 1s   -0.28165     4 1s    0.79313     5 1s    0.28165     5 1s   -0.79313     6 1s    0.28165
                                    6 1s   -0.79313
   25.1    -0.00000     1.35761     1 1s   -1.53232     1 1s    5.34845     1 2pz   0.29926     1 2pz  -2.18651     2 1s    1.53232
                                    2 1s   -5.34845     2 2pz   0.29926     2 2pz  -2.18651
   26.1    -0.00000     1.45345     1 2py  -0.43144     1 2py   2.58860     2 2py   0.43144     2 2py  -2.58860     3 1s   -0.62635
                                    3 1s   -0.48382     4 1s    0.62635     4 1s    0.48382     5 1s    0.62635     5 1s    0.48382
                                    6 1s   -0.62635     6 1s   -0.48382
   27.1    -0.00000     1.72706     1 3d1+  0.61374     2 3d1+ -0.61374
   28.1    -0.00000     1.80622     1 3d2-  0.67748     2 3d2-  0.67748
   29.1    -0.00000     2.02241     1 1s   -0.43430     1 3d2+  0.68979     2 1s   -0.43430     2 3d2+  0.68979     3 1s    0.25988
                                    4 1s    0.25988     5 1s    0.25988     6 1s    0.25988
   30.1    -0.00000     2.06287     1 3d1-  0.63376     2 3d1- -0.63376     3 1s   -0.37416     4 1s    0.37416     5 1s   -0.37416
                                    6 1s    0.37416
   31.1    -0.00000     2.13669     1 3d2-  0.74100     2 3d2- -0.74100
   32.1    -0.00000     2.41143     1 1s    0.32892     1 1s   -1.05990     1 3d2+  0.75659     2 1s   -0.32892     2 1s    1.05990
                                    2 3d2+ -0.75659     3 1s    0.30357     4 1s    0.30357     5 1s   -0.30357     6 1s   -0.30357
   33.1    -0.00000     2.42401     1 1s   -0.50956     1 2pz   0.31881     1 2pz  -0.43814     1 3d0   0.71485     2 1s   -0.50956
                                    2 2pz  -0.31881     2 2pz   0.43814     2 3d0   0.71485
   34.1    -0.00000     2.72546     1 2px  -0.27258     1 3d1+  0.92820     2 2px   0.27258     2 3d1+  0.92820
   35.1    -0.00000     2.85207     1 3d1-  0.93853     2 3d1-  0.93853     3 1s   -0.26682     4 1s    0.26682     5 1s    0.26682
                                    6 1s   -0.26682
   36.1    -0.00000     3.09318     1 1s    0.42801     1 1s    2.15486     1 2pz  -0.89168     1 2pz  -1.20110     1 3d0   1.14121
                                    2 1s   -0.42801     2 1s   -2.15486     2 2pz  -0.89168     2 2pz  -1.20110     2 3d0  -1.14121


 Natural orbital dump (state averaged) at molpro section  2140.2    (Orbital set 2)



 **********************************************************************************************************************************
 DATASETS  * FILE   NREC   LENGTH (MB)   RECORD NAMES
              1      20       31.35       500      610      700      900      950      970     1000      129      960     1100   
                                          VAR    BASINP    GEOM    SYMINP    ZMAT    AOBASIS   BASIS     P2S    ABASIS      S 
                                         1400     1410     1200     1210     1080     1600     1650     1300     1700     1380   
                                           T        V       H0       H01     AOSYM     SMH    MOLCAS    ERIS     OPER     JKOP   

              2       5        5.42       700     1000      520     2100     2140   
                                         GEOM     BASIS   MCVARS     RHF     MCSCF   

 PROGRAMS   *        TOTAL     MULTI    HF-SCF       INT
 CPU TIMES  *         0.61      0.17      0.10      0.25
 REAL TIME  *         0.89 SEC
 DISK USED  *        38.53 MB
 **********************************************************************************************************************************
 Molecular orbitals read from record     2140.2  Type=MCSCF/NATURAL (state averaged)
 Occupation numbers read from record     2140.2  Type=MCSCF/NATURAL (state averaged)
 Orbital energies read from record       2140.2  Type=MCSCF/NATURAL (state averaged)
 Redundancy group numbers read from rec  2140.2  Type=MCSCF/NATURAL (state averaged)

 MULTI/6-31G* energy=    -77.365554925095

           MULTI          HF-SCF
    -77.36555493    -77.94952782
 **********************************************************************************************************************************
 Molpro calculation terminated
