
 Primary working directories    : /scratch.local/johan406.molpro_temp/molpro.g50jJqKI3y
 Secondary working directories  : /scratch.local/johan406.molpro_temp/molpro.g50jJqKI3y
 Wavefunction directory         : /home/goodpast/johan406/wfu/
 Main file repository           : /scratch.local/johan406.molpro_temp/molpro.g50jJqKI3y/

 id        : roweumn

 Nodes     nprocs
 acn09        1

 Using customized tuning parameters: mindgm=1; mindgv=20; mindgc=4; mindgr=1; noblas=0; minvec=7
 default implementation of scratch files=df  


 Variables initialized (934), CPU time= 0.00 sec
                                                                                 !leave this line blank
 
 gprint, orbitals=30
 memory, 125., m
 symmetry, nosym
 nelect=16
 basis=6-31g*
 
 geometry={
 C -0.6259 0.1369 0.2991
 C 0.636 -0.1886 -0.3586
 H -1.2749 0.9062 -0.1604
 H -0.9616 -0.8654 -0.1364
 H 0.9717 0.8171 0.078
 H 1.2676 -0.9361 0.0889
 }
 
 hf
 {multi,
 closed 7
 occ 9
 wf,spin=0;STATE,3
 }
 
 Commands  initialized (763), CPU time= 0.01 sec, 617 directives.
 Default parameters read. Elapsed time= 0.10 sec

 Checking input...
 Passed
1


                                         ***  PROGRAM SYSTEM MOLPRO  ***
                                       Copyright, TTI GmbH Stuttgart, 2015
                                    Version 2019.2 linked Oct 25 2019 22:50:27


 **********************************************************************************************************************************
 LABEL *                                                                                 
  64 bit serial version                                                                  DATE: 07-Feb-23          TIME: 16:09:00  
 **********************************************************************************************************************************

 SHA1:             8dbd9ae1082e4ce945b0f27595c9eb2d4aa09004
 **********************************************************************************************************************************


 Variable memory set to  125000000 words,  buffer space 

 SETTING NELECT         =        16.00000000                                  
 SETTING BASIS          =    6-31G*
 ZSYMEL=NOSYM


Geometry recognized as XYZ



 Recomputing integrals since basis changed


 Using spherical harmonics

 Library entry C      S 6-31G                selected for orbital group  1
 Library entry C      P 6-31G                selected for orbital group  1
 Library entry C      D 6-31G*               selected for orbital group  1
 Library entry H      S 6-31G                selected for orbital group  2


 PROGRAM * SEWARD (Integral evaluation for generally contracted gaussian basis sets)     Author: Roland Lindh, 1990

 Geometry written to block  1 of record 700


 Point group  C1  



 ATOMIC COORDINATES

 NR  ATOM    CHARGE       X              Y              Z

   1  C       6.00   -1.182779581    0.258703506    0.565217084
   2  C       6.00    1.201865815   -0.356402347   -0.677655788
   3  H       1.00   -2.409211836    1.712469814   -0.303112070
   4  H       1.00   -1.817160641   -1.635368988   -0.257758643
   5  H       1.00    1.836246875    1.544095216    0.147398638
   6  H       1.00    2.395416835   -1.768972625    0.167996652

 Bond lengths in Bohr (Angstrom)

 1-2  2.758554305  1-3  2.090829518  1-4  2.160379363  2-5  2.166805281  2-6  2.033481468
     ( 1.459764073)     ( 1.106419333)     ( 1.143223526)     ( 1.146623975)     ( 1.076072051)

 Bond angles

  1-2-5   83.45149741   1-2-6  118.35400987   2-1-3  118.35891802   2-1-4   83.49517957

  3-1-4  106.20925895   5-2-6  106.20584883

 NUCLEAR CHARGE:                   16
 NUMBER OF PRIMITIVE AOS:          72
 NUMBER OF SYMMETRY AOS:           70
 NUMBER OF CONTRACTIONS:           36   (   36A   )
 NUMBER OF CORE ORBITALS:           2   (    2A   )
 NUMBER OF VALENCE ORBITALS:       12   (   12A   )


 NUCLEAR REPULSION ENERGY   32.36960364

 Eigenvalues of metric

         1 0.926E-02 0.273E-01 0.596E-01 0.644E-01 0.802E-01 0.218E+00 0.237E+00 0.272E+00


 Contracted 2-electron integrals neglected if value below      1.0D-11
 AO integral compression algorithm  1   Integral accuracy      1.0D-11

     1.573 MB (compressed) written to integral file ( 59.2%)


 NUMBER OF SORTED TWO-ELECTRON INTEGRALS:     222111.     BUFFER LENGTH:  32768
 NUMBER OF SEGMENTS:   1  SEGMENT LENGTH:     222111      RECORD LENGTH: 524288

 Memory used in sort:       0.78 MW

 SORT1 READ      284735. AND WROTE      212531. INTEGRALS IN      1 RECORDS. CPU TIME:     0.00 SEC, REAL TIME:     0.00 SEC
 SORT2 READ      212531. AND WROTE      222111. INTEGRALS IN      6 RECORDS. CPU TIME:     0.03 SEC, REAL TIME:     0.03 SEC

 FILE SIZES:   FILE 1:    31.7 MBYTE,  FILE 4:     4.2 MBYTE,   TOTAL:     35.9 MBYTE

 OPERATOR DM      FOR CENTER  0  COORDINATES:    0.000000    0.000000    0.000000


 **********************************************************************************************************************************
 DATASETS  * FILE   NREC   LENGTH (MB)   RECORD NAMES
              1      19       31.13       500      610      700      900      950      970     1000      129      960     1100   
                                          VAR    BASINP    GEOM    SYMINP    ZMAT    AOBASIS   BASIS     P2S    ABASIS      S 
                                         1400     1410     1200     1210     1080     1600     1650     1300     1700   
                                           T        V       H0       H01     AOSYM     SMH    MOLCAS    ERIS     OPER   

 PROGRAMS   *        TOTAL       INT
 CPU TIMES  *         0.28      0.19
 REAL TIME  *         0.45 SEC
 DISK USED  *        36.24 MB
 **********************************************************************************************************************************


 PROGRAM * RHF-SCF (CLOSED SHELL)       Authors: W. Meyer, H.-J. Werner


 NUMBER OF ELECTRONS:       8+    8-    SPACE SYMMETRY=1    SPIN SYMMETRY: Singlet 
 CONVERGENCE THRESHOLDS:    1.00E-05 (Density)    1.00E-07 (Energy)
 MAX. NUMBER OF ITERATIONS:       60
 INTERPOLATION TYPE:            DIIS
 INTERPOLATION STEPS:              2 (START)      1 (STEP)
 LEVEL SHIFTS:                  0.00 (CLOSED)  0.00 (OPEN) 



 Orbital guess generated from atomic densities. Full valence occupancy:    8

 Molecular orbital dump at record        2100.2

 Initial occupancy:   8

 ITERATION    DDIFF          GRAD             ENERGY        2-EL.EN.            DIPOLE MOMENTS         DIIS   ORB.
    1      0.000D+00      0.000D+00       -77.82743169    115.945814   -0.02220    0.01711    0.01168    0    start
    2      0.000D+00      0.705D-02       -77.84544855    114.922804    0.00657   -0.00862   -0.01517    1    diag
    3      0.755D-02      0.229D-02       -77.84753152    115.339094   -0.00946    0.00198    0.01000    2    diag
    4      0.296D-02      0.857D-03       -77.84798223    115.214828    0.00627   -0.00864   -0.01114    3    diag
    5      0.161D-02      0.336D-03       -77.84808812    115.213725   -0.00419   -0.00170    0.00508    4    diag
    6      0.687D-03      0.229D-03       -77.84815096    115.220269    0.00162   -0.00539   -0.00332    5    diag
    7      0.556D-03      0.102D-03       -77.84818010    115.221531    0.00116   -0.00494   -0.00260    6    diag
    8      0.520D-03      0.289D-04       -77.84818217    115.222544    0.00117   -0.00498   -0.00268    7    diag
    9      0.143D-03      0.820D-05       -77.84818230    115.222735    0.00115   -0.00496   -0.00267    8    diag
   10      0.357D-04      0.230D-05       -77.84818231    115.222705    0.00114   -0.00497   -0.00267    9    orth
   11      0.639D-05      0.510D-06       -77.84818231    115.222710    0.00114   -0.00497   -0.00267    0    orth

 Final occupancy:   8

 !RHF STATE  1.1 Energy               -77.848182309198
 Nuclear energy                        32.36960364
 One-electron energy                 -167.82914099
 Two-electron energy                   57.61135504
 Virial quotient                       -1.00119580
 !RHF STATE  1.1 Dipole moment          0.00114168    -0.00496655    -0.00266876
 Dipole moment /Debye                   0.00290166    -0.01262288    -0.00678287

 ELECTRON ORBITALS
 =================

  Orbital  Occupation    Energy     Coefficients
    1.1     2.00000   -11.26079     1 1s    0.98384
    2.1     2.00000   -11.25806     2 1s    0.98385
    3.1     2.00000    -1.03722     1 1s    0.28078     2 1s    0.28522     2 1s    0.25012
    4.1     2.00000    -0.78454     1 1s   -0.29644     2 1s    0.28843
    5.1     2.00000    -0.62197     1 2py   0.29994     2 2py   0.31623
    6.1     2.00000    -0.56159     1 2px   0.29929     2 2px  -0.29820
    7.1     2.00000    -0.39187     1 2pz   0.30644     1 2pz   0.28408     2 2pz   0.31146     2 2pz   0.28776
    8.1     2.00000    -0.38718     1 2px  -0.27109     2 2px   0.27661     4 1s    0.28515     5 1s    0.28662
    9.1     0.00000     0.06329     1 1s    0.40442     1 2pz   0.32963     1 2pz   0.46632     2 1s    0.39151     2 2pz  -0.33153
                                    2 2pz  -0.47113
   10.1     0.00000     0.23147     1 1s   -1.11324     1 2px   0.48117     1 2py   0.35865     1 2pz   0.43933     2 1s   -1.08192
                                    2 2px  -0.48516     2 2py  -0.37374     2 2pz  -0.42724     3 1s    0.58953     4 1s    1.08328
                                    5 1s    1.09014     6 1s    0.55987
   11.1     0.00000     0.28211     1 1s   -1.57149     1 2py  -0.44487     1 2pz   0.48989     2 1s    1.54798     2 2py  -0.26924
                                    2 2pz   0.42833     3 1s    1.53119     6 1s   -1.34732
   12.1     0.00000     0.31341     1 1s   -0.56287     1 2px   0.41053     1 2py  -0.97542     1 2pz   0.39932     2 1s   -0.94593
                                    2 2px  -0.38538     2 2py   1.04842     2 2pz  -0.50598     3 1s    1.39851     4 1s   -0.42157
                                    5 1s   -0.42624     6 1s    1.72130
   13.1     0.00000     0.33534     1 1s   -1.06001     1 2px   0.28638     1 2py   0.76626     1 2pz   0.32044     2 1s    1.04867
                                    2 2px   0.28343     2 2py   0.75263     2 2pz   0.31809     4 1s    1.70859     5 1s   -1.68579
   14.1     0.00000     0.42355     1 1s    2.05282     1 2px   1.77187     1 2py  -0.61593     1 2pz  -0.79736     2 1s   -2.00418
                                    2 2px   1.79055     2 2py  -0.65222     2 2pz  -0.78039     3 1s    0.59545     6 1s   -0.66349
   15.1     0.00000     0.70264     1 2px   0.54607     1 2px  -0.91573     2 2px  -0.55386     2 2px   0.94503     4 1s    0.42602
                                    5 1s    0.42800
   16.1     0.00000     0.75804     1 1s   -0.36034     1 2py  -0.32150     1 2px  -0.59946     1 2py   0.65614     2 2py  -0.42679
                                    2 2px  -0.63460     2 2py   0.91769     3 1s   -0.47351     5 1s   -0.27361     6 1s    0.49465
   17.1     0.00000     0.78933     1 2py  -0.62134     1 2pz  -0.32003     1 2py   1.30826     1 2pz   0.31699     2 1s    0.30385
                                    2 2py   0.54446     2 2py  -1.14328     4 1s    0.31759
   18.1     0.00000     0.79991     1 2pz  -0.70273     1 2pz   0.67484     2 2pz  -0.76007     2 2pz   0.73746
   19.1     0.00000     0.86476     1 1s   -0.35809     1 2pz  -0.69522     1 2px   0.48288     1 2py  -0.57027     1 2pz   0.95697
                                    2 1s   -0.35135     2 2pz   0.67870     2 2px  -0.42644     2 2py   0.50548     2 2pz  -0.96313
   20.1     0.00000     0.97396     1 2px   0.71519     1 2py   0.36901     1 2px  -1.15022     1 2py  -0.77175     2 2px   0.71829
                                    2 2py   0.37279     2 2px  -1.15355     2 2py  -0.77451     4 1s   -1.04779     5 1s    1.04755
   21.1     0.00000     1.11935     1 1s   -0.66048     1 1s    1.18499     1 2px   0.26638     1 2py   0.37684     1 2px  -0.38503
                                    1 2py  -0.35116     2 1s   -0.68657     2 1s    1.28044     2 2py  -0.42628     2 2px   0.32918
                                    2 2py   0.42793     4 1s    0.63347     4 1s   -1.15159     5 1s    0.66926     5 1s   -1.22629
   22.1     0.00000     1.13527     1 2px  -0.43430     1 2py   0.65533     1 2px   0.75962     1 2py  -1.00287     2 1s   -0.28257
                                    2 2px  -0.34849     2 2py   0.51704     2 2px   0.68876     2 2py  -0.88172     3 1s   -0.66328
                                    3 1s    1.41077     4 1s    0.30646     4 1s   -0.66773     5 1s   -0.26943     5 1s    0.60024
                                    6 1s    0.35494     6 1s   -1.03009
   23.1     0.00000     1.17875     1 1s   -0.60206     1 1s    0.53689     1 2pz   0.30789     1 2px  -0.71481     2 1s    0.33821
                                    2 2py   0.33498     2 2px  -0.45275     3 1s    0.61651     3 1s   -0.90339     4 1s    0.71078
                                    4 1s   -0.92944     5 1s   -0.67274     5 1s    0.86412
   24.1     0.00000     1.19674     1 1s   -0.42321     1 1s    1.05930     2 1s   -0.64098     2 1s    0.62830     2 2px  -0.39537
                                    2 2py   0.31546     2 2pz  -0.26486     2 2px   0.75747     2 2py  -0.47716     3 1s    0.41749
                                    3 1s   -0.48723     4 1s   -0.26626     5 1s    0.31259     5 1s   -0.28871     6 1s    0.93378
                                    6 1s   -1.41599
   25.1     0.00000     1.25894     1 1s   -1.10379     1 1s    1.84000     1 2px  -0.58424     1 2py   0.57865     1 2pz  -0.91849
                                    2 1s   -1.27135     2 1s    2.43777     2 2px   0.47800     2 2py  -0.51943     2 2pz   1.05764
                                    3 1s   -0.40463     3 1s   -0.86511     4 1s   -0.41735     4 1s   -0.31227     5 1s   -0.44109
                                    5 1s   -0.38186     6 1s   -0.39996     6 1s   -0.99818
   26.1     0.00000     1.28629     1 1s   -1.64040     1 1s    5.16935     1 2px   1.22247     1 2py  -0.74666     1 2pz  -1.26778
                                    2 1s    1.56154     2 1s   -5.03363     2 2px   1.25481     2 2py  -0.77000     2 2pz  -1.17570
                                    3 1s   -0.45641     4 1s   -0.25828     4 1s   -0.69541     5 1s    0.64024     6 1s    0.47922
   27.1     0.00000     1.69565     1 1s    0.58676     1 3d0   0.35002     1 3d2- -0.29696     1 3d2+ -0.32524     2 1s   -0.59078
                                    2 3d0  -0.34884     2 3d2-  0.29728     2 3d2+  0.32771
   28.1     0.00000     1.91907     1 1s    0.35662     1 1s   -0.82506     1 2pz   0.39077     1 3d0   0.36393     1 3d1+  0.29263
                                    1 3d2+  0.32347     1 3d1-  0.27225     2 1s    0.27325     2 1s   -0.49666     2 2pz  -0.30428
                                    2 3d0   0.34090     2 3d1+  0.38587     2 3d2+  0.36156     2 3d1-  0.35946     3 1s    0.26513
                                    3 1s    0.26854     6 1s    0.28690
   29.1     0.00000     1.94075     1 1s   -0.26724     1 1s    1.28273     1 2px   0.34064     1 2pz  -0.31037     1 3d2- -0.31368
                                    1 3d1+  0.43550     1 3d1-  0.41617     2 1s    0.34668     2 1s   -1.46109     2 2px   0.29665
                                    2 2pz  -0.40261     2 3d2-  0.29331     2 3d1+ -0.34848     2 3d1- -0.34856     3 1s   -0.29401
                                    6 1s    0.35902
   30.1     0.00000     2.18181     1 1s   -0.33704     1 1s    1.63585     1 2px   0.37701     1 2py  -0.26910     1 2pz  -0.43801
                                    1 3d0  -0.55616     1 3d2+ -0.35844     2 1s    0.35572     2 1s   -1.66748     2 2px   0.38748
                                    2 2py  -0.28588     2 2pz  -0.44873     2 3d0   0.57753     2 3d2+  0.35232     3 1s   -0.35492
                                    4 1s   -0.32019     5 1s    0.34493     6 1s    0.35202
   31.1     0.00000     2.25048     1 1s    0.49818     1 1s   -0.34300     1 2px   0.26227     1 2px  -0.30153     1 3d2-  0.30163
                                    1 3d1+  0.38597     1 3d2+ -0.38507     2 1s    0.49183     2 1s   -0.30088     2 2px  -0.25997
                                    2 2px   0.29131     2 3d2-  0.30136     2 3d1+  0.38571     2 3d2+ -0.39401
   32.1     0.00000     2.34944     1 2py   0.37666     1 3d0   0.53035     1 3d2- -0.36896     1 3d1- -0.37528     2 2py  -0.34959
                                    2 3d0   0.49713     2 3d2- -0.36662     2 3d1- -0.35131     3 1s   -0.26746     4 1s    0.41760
                                    5 1s    0.38012     6 1s   -0.28452
   33.1     0.00000     2.58246     1 1s   -0.28698     1 2py   0.28035     1 3d2- -0.53162     1 3d1- -0.58337     2 1s    0.28344
                                    2 2py   0.30972     2 3d2-  0.42705     2 3d1-  0.60687     3 1s   -0.50335     4 1s    0.40655
                                    5 1s   -0.41271     6 1s    0.47032
   34.1     0.00000     2.64434     1 2py  -0.33410     1 3d2- -0.41956     1 3d2+ -0.52217     1 3d1-  0.53189     2 2py   0.30629
                                    2 3d2- -0.46477     2 3d2+ -0.51558     2 3d1-  0.47779     4 1s   -0.37931     5 1s   -0.34209
   35.1     0.00000     2.72296     1 3d0  -0.40453     1 3d2- -0.43571     1 3d1+  0.48360     2 3d0  -0.40480     2 3d2- -0.53332
                                    2 3d1+  0.50677     2 3d1- -0.32242     3 1s   -0.41527     6 1s   -0.53798
   36.1     0.00000     2.95988     1 1s    1.72148     1 2px   0.43538     1 2px   0.87291     1 2pz  -0.44028     1 3d2- -0.35134
                                    1 3d1+ -0.69351     1 3d2+  0.64584     2 1s   -1.71673     2 2px   0.43639     2 2px   0.87505
                                    2 2pz  -0.43912     2 3d2-  0.34245     2 3d1+  0.69938     2 3d2+ -0.64323


 HOMO      8.1    -0.387183 =     -10.5358eV
 LUMO      9.1     0.063285 =       1.7221eV
 LUMO-HOMO         0.450468 =      12.2579eV


 **********************************************************************************************************************************
 DATASETS  * FILE   NREC   LENGTH (MB)   RECORD NAMES
              1      19       31.13       500      610      700      900      950      970     1000      129      960     1100   
                                          VAR    BASINP    GEOM    SYMINP    ZMAT    AOBASIS   BASIS     P2S    ABASIS      S 
                                         1400     1410     1200     1210     1080     1600     1650     1300     1700   
                                           T        V       H0       H01     AOSYM     SMH    MOLCAS    ERIS     OPER   

              2       4        2.86       700     1000      520     2100   
                                         GEOM     BASIS   MCVARS     RHF  

 PROGRAMS   *        TOTAL    HF-SCF       INT
 CPU TIMES  *         0.38      0.10      0.19
 REAL TIME  *         0.67 SEC
 DISK USED  *        36.24 MB
 **********************************************************************************************************************************


 PROGRAM * MULTI (Direct Multiconfiguration SCF)       Authors: P.J. Knowles, H.-J. Werner (1984)


 Number of closed-shell orbitals:   7 (   7 )
 Number of active  orbitals:        2 (   2 )
 Number of external orbitals:      27 (  27 )

 State symmetry 1

 Number of electrons:     2    Spin symmetry=Singlet   Space symmetry=1
 Number of states:        3
 Number of CSFs:          3   (4 determinants, 4 intermediate states)

 Molecular orbitals read from record     2100.2  Type=RHF/CANONICAL (state 1.1)

 Wavefunction dump at record             2140.2

 Convergence thresholds  0.10E-01 (gradient)  0.10E-05 (energy)  0.10E-02 (step length)

 Weight factors for state symmetry  1:    0.33333   0.33333   0.33333

 Number of orbital rotations:      257   (    14 Core/Active    189 Core/Virtual   0 Active/Active     54 Active/Virtual)
 Total number of variables:        269

 Micro-Iterations solved by the two-step solver

 ITER. MIC  NCI  NEG     ENERGY(VAR)     ENERGY(PROJ)   ENERGY CHANGE     GRAD(0)  GRAD(ORB)   GRAD(CI)     STEP       TIME

   1    8    5    0     -77.69158784     -77.71115281   -0.01956497    0.16723271 0.00177775 0.00000000  0.14D+00      0.12
   2    6    5    0     -77.71085173     -77.71087097   -0.00001924    0.00648041 0.00000387 0.00000000  0.45D-02      0.20
   3    5    4    0     -77.71087099     -77.71087099   -0.00000000    0.00001253 0.00000000 0.00000000  0.17D-04      0.28

 ** WVFN ****  CONVERGENCE REACHED, FINAL GRADIENT:  0.14D-09



 Results for state 1.1
 =====================

 !MCSCF STATE  1.1 Energy             -77.841798186460
 Nuclear energy                        32.36960364
 Kinetic energy                        77.81102040
 One electron energy                 -167.90562308
 Two electron energy                   57.69422126
 Virial ratio                           2.00039555

 !MCSCF STATE  1.1 Dipole moment       -0.00035619    -0.00488773    -0.00270615
 Dipole moment /Debye                  -0.00090528    -0.01242257    -0.00687789

 Results for state 2.1
 =====================

 !MCSCF STATE  2.1 Energy             -77.738569559895
 Nuclear energy                        32.36960364
 Kinetic energy                        77.88681308
 One electron energy                 -167.60089450
 Two electron energy                   57.49272130
 Virial ratio                           1.99809668

 !MCSCF STATE  2.1 Dipole moment        0.00555351    -0.00430559    -0.00046752
 Dipole moment /Debye                   0.01411468    -0.01094299    -0.00118824

 Results for state 3.1
 =====================

 !MCSCF STATE  3.1 Energy             -77.552245238340
 Nuclear energy                        32.36960364
 Kinetic energy                        77.94839976
 One electron energy                 -167.34291650
 Two electron energy                   57.42106763
 Virial ratio                           1.99491773

 !MCSCF STATE  3.1 Dipole moment        0.01323837    -0.00470978     0.00215031
 Dipole moment /Debye                   0.03364638    -0.01197029     0.00546519

 State-averaged charge density matrix saved on record  2140.2 (density set 1)

 !MCSCF expec         <1.1|DMX|1.1>    -0.000356187885 au =    -0.000905280004 Debye
 !MCSCF trans         <2.1|DMX|1.1>     0.004105344995 au =     0.010434062731 Debye
 !MCSCF expec         <2.1|DMX|2.1>     0.005553506221 au =     0.014114680342 Debye
 !MCSCF trans         <3.1|DMX|1.1>    -0.000346413486 au =    -0.000880437589 Debye
 !MCSCF trans         <3.1|DMX|2.1>     0.003990686836 au =     0.010142649848 Debye
 !MCSCF expec         <3.1|DMX|3.1>     0.013238371036 au =     0.033646379059 Debye

 !MCSCF expec         <1.1|DMY|1.1>    -0.004887733666 au =    -0.012422566132 Debye
 !MCSCF trans         <2.1|DMY|1.1>    -0.002132760098 au =    -0.005420580411 Debye
 !MCSCF expec         <2.1|DMY|2.1>    -0.004305586500 au =    -0.010942992537 Debye
 !MCSCF trans         <3.1|DMY|1.1>    -0.000173550640 au =    -0.000441092835 Debye
 !MCSCF trans         <3.1|DMY|2.1>    -0.002352290680 au =    -0.005978534947 Debye
 !MCSCF expec         <3.1|DMY|3.1>    -0.004709784424 au =    -0.011970293896 Debye

 !MCSCF expec         <1.1|DMZ|1.1>    -0.002706148225 au =    -0.006877892206 Debye
 !MCSCF trans         <2.1|DMZ|1.1>     0.000914406004 au =     0.002324036011 Debye
 !MCSCF expec         <2.1|DMZ|2.1>    -0.000467518247 au =    -0.001188235027 Debye
 !MCSCF trans         <3.1|DMZ|1.1>    -0.000166433799 au =    -0.000423004814 Debye
 !MCSCF trans         <3.1|DMZ|2.1>     0.000818385753 au =     0.002079992861 Debye
 !MCSCF expec         <3.1|DMZ|3.1>     0.002150310256 au =     0.005465185539 Debye


 NATURAL ORBITALS (state averaged)
 =================================

  Orbital  Occupation    Energy     Coefficients
    1.1     2.00000   -11.25559     1 1s    0.98729
    2.1     2.00000   -11.25279     2 1s    0.98729
    3.1     2.00000    -1.04995     1 1s    0.27603     2 1s    0.27986
    4.1     2.00000    -0.78541     1 1s   -0.32102     2 1s    0.31422
    5.1     2.00000    -0.62496     1 2py   0.29241     2 2py   0.31091
    6.1     2.00000    -0.55996     1 2px   0.26000     2 2px  -0.25785
    7.1     2.00000    -0.41936     1 2pz   0.32461     1 2pz   0.28018     2 2pz   0.32546     2 2pz   0.28121
    8.1     1.00000    -0.08686     1 1s    0.27083     1 2pz   0.40380     1 2pz   0.42853     2 1s    0.26390     2 2pz  -0.40515
                                    2 2pz  -0.43087
    9.1     1.00000    -0.23071     1 2px  -0.31011     2 2px   0.31029     4 1s    0.29412     5 1s    0.29451
   10.1    -0.00000     0.21947     1 1s   -1.11679     1 2px   0.47698     1 2py   0.37508     1 2pz   0.37940     2 1s   -1.09426
                                    2 2px  -0.48097     2 2py  -0.38820     2 2pz  -0.37041     3 1s    0.55321     4 1s    1.09327
                                    5 1s    1.10004     6 1s    0.53133
   11.1    -0.00000     0.28114     1 1s   -1.66747     1 2py  -0.36931     1 2pz   0.50252     2 1s    1.63526     2 2pz   0.45111
                                    3 1s    1.51429     6 1s   -1.34575
   12.1    -0.00000     0.31585     1 1s   -0.55022     1 2px   0.39693     1 2py  -1.03157     1 2pz   0.35560     2 1s   -1.06155
                                    2 2px  -0.39908     2 2py   0.97536     2 2pz  -0.50043     3 1s    1.43619     4 1s   -0.50819
                                    5 1s   -0.25646     6 1s    1.71415
   13.1    -0.00000     0.31968     1 1s   -1.10275     1 2py   0.77964     1 2pz   0.35618     2 1s    0.96930     2 2py   0.90623
                                    2 2pz   0.29325     4 1s    1.69050     5 1s   -1.71811     6 1s    0.27610
   14.1    -0.00000     0.42973     1 1s    1.91292     1 2px   1.78426     1 2py  -0.51008     1 2pz  -0.73889     2 1s   -1.86725
                                    2 2px   1.80161     2 2py  -0.54526     2 2pz  -0.72339     3 1s    0.59722     6 1s   -0.66267
   15.1    -0.00000     0.69926     1 2px   0.53184     1 2px  -0.89345     2 2px  -0.53825     2 2px   0.92056     4 1s   -0.25445
                                    4 1s    0.48279     5 1s    0.48578
   16.1    -0.00000     0.75509     1 1s   -0.46732     1 2py  -0.31653     1 2px  -0.64247     1 2py   0.67956     2 1s    0.35928
                                    2 2py  -0.41182     2 2px  -0.69026     2 2py   0.92897     3 1s   -0.47035     5 1s   -0.28882
                                    6 1s    0.49193
   17.1    -0.00000     0.78846     1 2py  -0.59264     1 2pz  -0.31480     1 2py   1.28926     1 2pz   0.38386     2 1s    0.28071
                                    2 2py   0.52423     2 2py  -1.12712     4 1s    0.32014
   18.1    -0.00000     0.79997     1 1s   -0.37185     1 2pz  -0.69965     1 2pz   0.73342     2 1s    0.35511     2 2pz  -0.75594
                                    2 2pz   0.80958
   19.1    -0.00000     0.86287     1 1s   -0.31503     1 2px  -0.26031     1 2pz  -0.67175     1 2px   0.52082     1 2py  -0.57789
                                    1 2pz   1.01243     2 1s   -0.30881     2 2pz   0.65221     2 2px  -0.46132     2 2py   0.51117
                                    2 2pz  -1.01737     3 1s    0.28602     6 1s    0.26737
   20.1    -0.00000     0.98066     1 2px   0.71228     1 2py   0.37551     1 2px  -1.07010     1 2py  -0.79030     2 2px   0.71553
                                    2 2py   0.37995     2 2px  -1.07372     2 2py  -0.79416     4 1s   -1.01101     5 1s    1.01300
   21.1    -0.00000     1.09351     1 1s   -0.62986     1 1s    1.12848     1 2px   0.29182     1 2py   0.39572     1 2px  -0.37847
                                    1 2py  -0.39656     2 1s   -0.65809     2 1s    1.20577     2 2px  -0.26597     2 2py  -0.44362
                                    2 2px   0.33969     2 2py   0.46585     4 1s    0.63718     4 1s   -1.11783     5 1s    0.68436
                                    5 1s   -1.20065
   22.1    -0.00000     1.12350     1 2px  -0.26994     1 2py   0.64784     1 2px   0.27169     1 2py  -0.87757     2 1s   -0.26128
                                    2 2px  -0.25366     2 2py   0.56909     2 2px   0.27149     2 2py  -0.81192     3 1s   -0.30950
                                    3 1s    0.80590     4 1s    0.65687     4 1s   -1.09817     5 1s   -0.60712     5 1s    1.00628
                                    6 1s   -0.67124
   23.1    -0.00000     1.15666     1 1s   -0.47961     1 2px   0.42126     1 2px  -1.07463     1 2py   0.50692     2 1s    0.31194
                                    2 2px   0.27488     2 2px  -0.94049     2 2py   0.36001     3 1s    0.77354     3 1s   -1.37518
                                    4 1s    0.48236     4 1s   -0.49853     5 1s   -0.47604     5 1s    0.49354     6 1s   -0.33846
                                    6 1s    0.80916
   24.1    -0.00000     1.19930     1 1s   -0.50886     1 1s    1.08750     2 1s   -0.51618     2 1s    0.48363     2 2px  -0.38839
                                    2 2py   0.40201     2 2px   0.60984     2 2py  -0.51726     3 1s    0.57065     3 1s   -0.63041
                                    6 1s    0.94334     6 1s   -1.33636
   25.1    -0.00000     1.24998     1 1s   -1.17046     1 1s    1.97522     1 2px  -0.59284     1 2py   0.58516     1 2pz  -0.93011
                                    2 1s   -1.32241     2 1s    2.50566     2 2px   0.51730     2 2py  -0.55187     2 2pz   1.05095
                                    3 1s   -0.38185     3 1s   -0.90928     4 1s   -0.38553     4 1s   -0.37251     5 1s   -0.40311
                                    5 1s   -0.42976     6 1s   -0.36488     6 1s   -1.06039
   26.1    -0.00000     1.28026     1 1s   -1.63804     1 1s    5.15793     1 2px   1.23414     1 2py  -0.71300     1 2pz  -1.24634
                                    2 1s    1.57656     2 1s   -5.05117     2 2px   1.25921     2 2py  -0.72765     2 2pz  -1.16424
                                    3 1s   -0.46633     4 1s   -0.26077     4 1s   -0.65902     5 1s    0.60395     6 1s    0.51158
   27.1    -0.00000     1.69035     1 1s    0.61468     1 3d0   0.34363     1 3d2- -0.30109     1 3d2+ -0.32729     2 1s   -0.61827
                                    2 3d0  -0.34258     2 3d2-  0.30127     2 3d2+  0.32965
   28.1    -0.00000     1.91631     1 1s    0.34643     1 1s   -0.81291     1 2pz   0.38455     1 3d0   0.36181     1 3d1+  0.28667
                                    1 3d2+  0.32955     1 3d1-  0.27049     2 1s    0.26331     2 1s   -0.48533     2 2pz  -0.29850
                                    2 3d0   0.33830     2 3d1+  0.38301     2 3d2+  0.36937     2 3d1-  0.35940     3 1s    0.26586
                                    3 1s    0.26460     6 1s    0.28410
   29.1    -0.00000     1.93762     1 1s   -0.26059     1 1s    1.24965     1 2px   0.33078     1 2pz  -0.30123     1 3d2- -0.31230
                                    1 3d1+  0.43860     1 3d1-  0.41561     2 1s    0.33844     2 1s   -1.42761     2 2px   0.28493
                                    2 2pz  -0.39340     2 3d2-  0.28935     2 3d1+ -0.35122     2 3d1- -0.34636     3 1s   -0.29483
                                    6 1s    0.36102
   30.1    -0.00000     2.18196     1 1s   -0.34212     1 1s    1.62492     1 2px   0.37197     1 2py  -0.27112     1 2pz  -0.43287
                                    1 3d0  -0.55946     1 3d2+ -0.35990     2 1s    0.35764     2 1s   -1.65358     2 2px   0.38143
                                    2 2py  -0.28808     2 2pz  -0.44190     2 3d0   0.58084     2 3d2+  0.35595     3 1s   -0.35418
                                    4 1s   -0.31440     5 1s    0.34016     6 1s    0.35065
   31.1    -0.00000     2.24580     1 1s    0.49157     1 1s   -0.33796     1 2px   0.26869     1 2px  -0.29096     1 3d2-  0.31469
                                    1 3d1+  0.39390     1 3d2+ -0.38502     2 1s    0.48810     2 1s   -0.31513     2 2px  -0.26626
                                    2 2px   0.28560     2 3d2-  0.31551     2 3d1+  0.39486     2 3d2+ -0.39139
   32.1    -0.00000     2.34342     1 2py   0.39365     1 3d0   0.53168     1 3d2- -0.36366     1 3d1- -0.38927     2 2py  -0.36467
                                    2 3d0   0.49616     2 3d2- -0.36067     2 3d1- -0.36389     3 1s   -0.28039     4 1s    0.40669
                                    5 1s    0.36784     6 1s   -0.29843
   33.1    -0.00000     2.57712     1 1s   -0.27097     1 2py   0.27780     1 3d2- -0.53214     1 3d1- -0.58089     2 1s    0.26858
                                    2 2py   0.31248     2 3d2-  0.43232     2 3d1-  0.61173     3 1s   -0.50415     4 1s    0.39451
                                    5 1s   -0.40628     6 1s    0.47707
   34.1    -0.00000     2.63605     1 2py  -0.34070     1 3d2- -0.42334     1 3d2+ -0.51780     1 3d1-  0.53578     2 2py   0.31108
                                    2 3d2- -0.47205     2 3d2+ -0.51026     2 3d1-  0.47767     4 1s   -0.37142     5 1s   -0.33238
   35.1    -0.00000     2.72777     1 3d0  -0.41151     1 3d2- -0.42797     1 3d1+  0.49034     2 3d0  -0.41396     2 3d2- -0.52029
                                    2 3d1+  0.51006     2 3d1- -0.31847     3 1s   -0.41610     6 1s   -0.53318
   36.1    -0.00000     2.95547     1 1s    1.75196     1 2px   0.42912     1 2px   0.88505     1 2pz  -0.44827     1 3d2- -0.34929
                                    1 3d1+ -0.69620     1 3d2+  0.64315     2 1s   -1.74703     2 2px   0.43017     2 2px   0.88726
                                    2 2py  -0.25130     2 2pz  -0.44713     2 3d2-  0.34006     2 3d1+  0.70246     2 3d2+ -0.64045


 Natural orbital dump (state averaged) at molpro section  2140.2    (Orbital set 2)



 **********************************************************************************************************************************
 DATASETS  * FILE   NREC   LENGTH (MB)   RECORD NAMES
              1      20       31.86       500      610      700      900      950      970     1000      129      960     1100   
                                          VAR    BASINP    GEOM    SYMINP    ZMAT    AOBASIS   BASIS     P2S    ABASIS      S 
                                         1400     1410     1200     1210     1080     1600     1650     1300     1700     1380   
                                           T        V       H0       H01     AOSYM     SMH    MOLCAS    ERIS     OPER     JKOP   

              2       5        5.42       700     1000      520     2100     2140   
                                         GEOM     BASIS   MCVARS     RHF     MCSCF   

 PROGRAMS   *        TOTAL     MULTI    HF-SCF       INT
 CPU TIMES  *         0.72      0.33      0.10      0.19
 REAL TIME  *         1.08 SEC
 DISK USED  *        39.04 MB
 **********************************************************************************************************************************
 Molecular orbitals read from record     2140.2  Type=MCSCF/NATURAL (state averaged)
 Occupation numbers read from record     2140.2  Type=MCSCF/NATURAL (state averaged)
 Orbital energies read from record       2140.2  Type=MCSCF/NATURAL (state averaged)
 Redundancy group numbers read from rec  2140.2  Type=MCSCF/NATURAL (state averaged)

 MULTI/6-31G* energy=    -77.552245238340

           MULTI          HF-SCF
    -77.55224524    -77.84818231
 **********************************************************************************************************************************
 Molpro calculation terminated
