
 Primary working directories    : /scratch.local/johan406.molpro_temp/molpro.W5wQnaM3TU
 Secondary working directories  : /scratch.local/johan406.molpro_temp/molpro.W5wQnaM3TU
 Wavefunction directory         : /home/goodpast/johan406/wfu/
 Main file repository           : /scratch.local/johan406.molpro_temp/molpro.W5wQnaM3TU/

 id        : roweumn

 Nodes     nprocs
 acn09        1

 Using customized tuning parameters: mindgm=1; mindgv=20; mindgc=4; mindgr=1; noblas=0; minvec=7
 default implementation of scratch files=df  


 Variables initialized (934), CPU time= 0.01 sec
                                                                                 !leave this line blank
 
 gprint, orbitals=30
 memory, 125., m
 symmetry, nosym
 nelect=16
 basis=6-31g*
 
 geometry={
 C -0.6256 0.1366 0.2992
 C 0.6362 -0.189 -0.3585
 H -1.278 0.9101 -0.1625
 H -0.9613 -0.8651 -0.136
 H 0.9719 0.8174 0.0784
 H 1.2643 -0.9321 0.0867
 }
 
 hf
 {multi,
 closed 7
 occ 9
 wf,spin=0;STATE,3
 }
 
 Commands  initialized (763), CPU time= 0.01 sec, 617 directives.
 Default parameters read. Elapsed time= 0.10 sec

 Checking input...
 Passed
1


                                         ***  PROGRAM SYSTEM MOLPRO  ***
                                       Copyright, TTI GmbH Stuttgart, 2015
                                    Version 2019.2 linked Oct 25 2019 22:50:27


 **********************************************************************************************************************************
 LABEL *                                                                                 
  64 bit serial version                                                                  DATE: 07-Feb-23          TIME: 16:09:09  
 **********************************************************************************************************************************

 SHA1:             8dbd9ae1082e4ce945b0f27595c9eb2d4aa09004
 **********************************************************************************************************************************


 Variable memory set to  125000000 words,  buffer space 

 SETTING NELECT         =        16.00000000                                  
 SETTING BASIS          =    6-31G*
 ZSYMEL=NOSYM


Geometry recognized as XYZ



 Recomputing integrals since basis changed


 Using spherical harmonics

 Library entry C      S 6-31G                selected for orbital group  1
 Library entry C      P 6-31G                selected for orbital group  1
 Library entry C      D 6-31G*               selected for orbital group  1
 Library entry H      S 6-31G                selected for orbital group  2


 PROGRAM * SEWARD (Integral evaluation for generally contracted gaussian basis sets)     Author: Roland Lindh, 1990

 Geometry written to block  1 of record 700


 Point group  C1  



 ATOMIC COORDINATES

 NR  ATOM    CHARGE       X              Y              Z

   1  C       6.00   -1.182212664    0.258136589    0.565406056
   2  C       6.00    1.202243760   -0.357158238   -0.677466816
   3  H       1.00   -2.415069987    1.719839746   -0.307080495
   4  H       1.00   -1.816593724   -1.634802070   -0.257002753
   5  H       1.00    1.836624820    1.544662134    0.148154528
   6  H       1.00    2.389180739   -1.761413721    0.163839255

 Bond lengths in Bohr (Angstrom)

 1-2  2.758433095  1-3  2.101843496  1-4  2.159169365  2-5  2.168181417  2-6  2.022016013
     ( 1.459699931)     ( 1.112247679)     ( 1.142583222)     ( 1.147352195)     ( 1.070004794)

 Bond angles

  1-2-5   83.43612072   1-2-6  118.35043301   2-1-3  118.36755535   2-1-4   83.50018198

  3-1-4  106.21505336   5-2-6  106.19927699

 NUCLEAR CHARGE:                   16
 NUMBER OF PRIMITIVE AOS:          72
 NUMBER OF SYMMETRY AOS:           70
 NUMBER OF CONTRACTIONS:           36   (   36A   )
 NUMBER OF CORE ORBITALS:           2   (    2A   )
 NUMBER OF VALENCE ORBITALS:       12   (   12A   )


 NUCLEAR REPULSION ENERGY   32.37221241

 Eigenvalues of metric

         1 0.925E-02 0.272E-01 0.596E-01 0.644E-01 0.802E-01 0.218E+00 0.237E+00 0.272E+00


 Contracted 2-electron integrals neglected if value below      1.0D-11
 AO integral compression algorithm  1   Integral accuracy      1.0D-11

     1.573 MB (compressed) written to integral file ( 59.2%)


 NUMBER OF SORTED TWO-ELECTRON INTEGRALS:     222111.     BUFFER LENGTH:  32768
 NUMBER OF SEGMENTS:   1  SEGMENT LENGTH:     222111      RECORD LENGTH: 524288

 Memory used in sort:       0.78 MW

 SORT1 READ      284735. AND WROTE      212531. INTEGRALS IN      1 RECORDS. CPU TIME:     0.01 SEC, REAL TIME:     0.01 SEC
 SORT2 READ      212531. AND WROTE      222111. INTEGRALS IN      6 RECORDS. CPU TIME:     0.02 SEC, REAL TIME:     0.02 SEC

 FILE SIZES:   FILE 1:    31.7 MBYTE,  FILE 4:     4.2 MBYTE,   TOTAL:     35.9 MBYTE

 OPERATOR DM      FOR CENTER  0  COORDINATES:    0.000000    0.000000    0.000000


 **********************************************************************************************************************************
 DATASETS  * FILE   NREC   LENGTH (MB)   RECORD NAMES
              1      19       31.13       500      610      700      900      950      970     1000      129      960     1100   
                                          VAR    BASINP    GEOM    SYMINP    ZMAT    AOBASIS   BASIS     P2S    ABASIS      S 
                                         1400     1410     1200     1210     1080     1600     1650     1300     1700   
                                           T        V       H0       H01     AOSYM     SMH    MOLCAS    ERIS     OPER   

 PROGRAMS   *        TOTAL       INT
 CPU TIMES  *         0.28      0.18
 REAL TIME  *         0.43 SEC
 DISK USED  *        36.24 MB
 **********************************************************************************************************************************


 PROGRAM * RHF-SCF (CLOSED SHELL)       Authors: W. Meyer, H.-J. Werner


 NUMBER OF ELECTRONS:       8+    8-    SPACE SYMMETRY=1    SPIN SYMMETRY: Singlet 
 CONVERGENCE THRESHOLDS:    1.00E-05 (Density)    1.00E-07 (Energy)
 MAX. NUMBER OF ITERATIONS:       60
 INTERPOLATION TYPE:            DIIS
 INTERPOLATION STEPS:              2 (START)      1 (STEP)
 LEVEL SHIFTS:                  0.00 (CLOSED)  0.00 (OPEN) 



 Orbital guess generated from atomic densities. Full valence occupancy:    8

 Molecular orbital dump at record        2100.2

 Initial occupancy:   8

 ITERATION    DDIFF          GRAD             ENERGY        2-EL.EN.            DIPOLE MOMENTS         DIIS   ORB.
    1      0.000D+00      0.000D+00       -77.82708522    115.950685   -0.03109    0.02387    0.01653    0    start
    2      0.000D+00      0.706D-02       -77.84511873    114.926467    0.00901   -0.01202   -0.02103    1    diag
    3      0.757D-02      0.231D-02       -77.84720408    115.341714   -0.01334    0.00275    0.01406    2    diag
    4      0.297D-02      0.884D-03       -77.84766065    115.221362    0.00819   -0.01179   -0.01488    3    diag
    5      0.161D-02      0.367D-03       -77.84776268    115.216102   -0.00360   -0.00398    0.00351    4    diag
    6      0.629D-03      0.233D-03       -77.84783635    115.224073    0.00173   -0.00729   -0.00396    5    diag
    7      0.639D-03      0.102D-03       -77.84786573    115.225337    0.00143   -0.00689   -0.00347    6    diag
    8      0.523D-03      0.290D-04       -77.84786781    115.226355    0.00142   -0.00692   -0.00354    7    diag
    9      0.143D-03      0.823D-05       -77.84786794    115.226545    0.00139   -0.00689   -0.00354    8    diag
   10      0.357D-04      0.231D-05       -77.84786795    115.226516    0.00138   -0.00690   -0.00353    9    orth
   11      0.645D-05      0.513D-06       -77.84786795    115.226521    0.00138   -0.00690   -0.00353    0    orth

 Final occupancy:   8

 !RHF STATE  1.1 Energy               -77.847867952440
 Nuclear energy                        32.37221241
 One-electron energy                 -167.83334070
 Two-electron energy                   57.61326034
 Virial quotient                       -1.00117687
 !RHF STATE  1.1 Dipole moment          0.00138274    -0.00690167    -0.00353306
 Dipole moment /Debye                   0.00351434    -0.01754114    -0.00897955

 ELECTRON ORBITALS
 =================

  Orbital  Occupation    Energy     Coefficients
    1.1     2.00000   -11.26128     1 1s    0.98972
    2.1     2.00000   -11.25755     2 1s    0.98972
    3.1     2.00000    -1.03730     1 1s    0.27992     2 1s    0.28608     2 1s    0.25064
    4.1     2.00000    -0.78467     1 1s   -0.29780     2 1s    0.28665
    5.1     2.00000    -0.62206     1 2py   0.29667     2 2py   0.31916
    6.1     2.00000    -0.56151     1 2px   0.29929     2 2px  -0.29776
    7.1     2.00000    -0.39189     1 2pz   0.30547     1 2pz   0.28329     2 2pz   0.31221     2 2pz   0.28827
    8.1     2.00000    -0.38715     1 2px  -0.27001     2 2px   0.27740     4 1s    0.28478     5 1s    0.28682
    9.1     0.00000     0.06327     1 1s    0.40692     1 2pz   0.32925     1 2pz   0.46536     2 1s    0.38893     2 2pz  -0.33187
                                    2 2pz  -0.47201
   10.1     0.00000     0.23142     1 1s   -1.11914     1 2px   0.48048     1 2py   0.35506     1 2pz   0.44178     2 1s   -1.07565
                                    2 2px  -0.48593     2 2py  -0.37608     2 2pz  -0.42512     3 1s    0.59587     4 1s    1.08132
                                    5 1s    1.09084     6 1s    0.55458
   11.1     0.00000     0.28191     1 1s   -1.56661     1 2py  -0.47663     1 2pz   0.49889     2 1s    1.53502     2 2pz   0.41426
                                    3 1s    1.55854     6 1s   -1.30548
   12.1     0.00000     0.31360     1 1s   -0.49138     1 2px   0.41521     1 2py  -0.95819     1 2pz   0.37788     2 1s   -1.02106
                                    2 2px  -0.38012     2 2py   1.05906     2 2pz  -0.52539     3 1s    1.33533     4 1s   -0.41795
                                    5 1s   -0.42472     6 1s    1.78140
   13.1     0.00000     0.33533     1 1s   -1.06243     1 2px   0.28696     1 2py   0.76897     1 2pz   0.32088     2 1s    1.04677
                                    2 2px   0.28292     2 2py   0.74970     2 2pz   0.31778     4 1s    1.71307     5 1s   -1.68117
   14.1     0.00000     0.42359     1 1s    2.06160     1 2px   1.76841     1 2py  -0.60928     1 2pz  -0.80060     2 1s   -1.99393
                                    2 2px   1.79437     2 2py  -0.65972     2 2pz  -0.77693     3 1s    0.58327     6 1s   -0.67784
   15.1     0.00000     0.70260     1 2px   0.54445     1 2px  -0.91047     2 2px  -0.55531     2 2px   0.95132     4 1s    0.42538
                                    5 1s    0.42820
   16.1     0.00000     0.75779     1 1s   -0.37612     1 2py  -0.29960     1 2px  -0.59052     1 2py   0.60265     2 2py  -0.44504
                                    2 2px  -0.63852     2 2py   0.96391     3 1s   -0.46790     5 1s   -0.28414     6 1s    0.49698
   17.1     0.00000     0.78944     1 2py  -0.63162     1 2pz  -0.34424     1 2py   1.32942     1 2pz   0.34873     2 1s    0.32812
                                    2 2py   0.52550     2 2py  -1.10131     4 1s    0.32942
   18.1     0.00000     0.79997     1 2pz  -0.68868     1 2pz   0.65858     2 2pz  -0.76913     2 2pz   0.74663
   19.1     0.00000     0.86482     1 1s   -0.35954     1 2pz  -0.69786     1 2px   0.49393     1 2py  -0.58349     1 2pz   0.95466
                                    2 1s   -0.35014     2 2pz   0.67493     2 2px  -0.41491     2 2py   0.49303     2 2pz  -0.96345
   20.1     0.00000     0.97397     1 2px   0.71439     1 2py   0.36842     1 2px  -1.14938     1 2py  -0.77152     2 2px   0.71883
                                    2 2py   0.37361     2 2px  -1.15403     2 2py  -0.77520     4 1s   -1.04815     5 1s    1.04760
   21.1     0.00000     1.11927     1 1s   -0.65759     1 1s    1.16871     1 2px   0.27418     1 2py   0.36398     1 2px  -0.39887
                                    1 2py  -0.33213     2 1s   -0.69284     2 1s    1.30102     2 2py  -0.43616     2 2px   0.31658
                                    2 2py   0.44447     4 1s    0.62533     4 1s   -1.13451     5 1s    0.67650     5 1s   -1.24153
   22.1     0.00000     1.13363     1 2px  -0.44521     1 2py   0.66553     1 2px   0.77027     1 2py  -1.00500     2 1s   -0.29493
                                    2 2px  -0.33271     2 2py   0.47698     2 2px   0.67897     2 2py  -0.84000     3 1s   -0.71590
                                    3 1s    1.47010     4 1s    0.29529     4 1s   -0.64889     5 1s    0.54811     6 1s    0.30087
                                    6 1s   -0.96083
   23.1     0.00000     1.17707     1 1s   -0.61682     1 1s    0.60196     1 2pz   0.30657     1 2px  -0.66277     2 1s    0.32552
                                    2 2py   0.36866     2 2px  -0.38576     2 2py  -0.27774     3 1s    0.59323     3 1s   -0.84612
                                    4 1s    0.71834     4 1s   -0.96544     5 1s   -0.67111     5 1s    0.88197
   24.1     0.00000     1.20066     1 1s   -0.41567     1 1s    1.12070     1 2px   0.32179     2 1s   -0.61315     2 1s    0.51504
                                    2 2px  -0.41028     2 2py   0.33343     2 2pz  -0.26846     2 2px   0.82468     2 2py  -0.52871
                                    3 1s    0.36023     3 1s   -0.39177     4 1s   -0.27979     5 1s    0.32531     5 1s   -0.27198
                                    6 1s    0.94939     6 1s   -1.45613
   25.1     0.00000     1.25891     1 1s   -1.07650     1 1s    1.74102     1 2px  -0.60113     1 2py   0.58818     1 2pz  -0.89457
                                    2 1s   -1.29903     2 1s    2.53954     2 2px   0.46196     2 2py  -0.51129     2 2pz   1.08050
                                    3 1s   -0.40325     3 1s   -0.84368     4 1s   -0.41295     4 1s   -0.30023     5 1s   -0.44490
                                    5 1s   -0.39224     6 1s   -0.39612     6 1s   -1.02668
   26.1     0.00000     1.28650     1 1s   -1.65011     1 1s    5.17706     1 2px   1.21132     1 2py  -0.73980     1 2pz  -1.27970
                                    2 1s    1.54911     2 1s   -5.00376     2 2px   1.25234     2 2py  -0.76807     2 2pz  -1.15844
                                    3 1s   -0.45200     4 1s   -0.26193     4 1s   -0.70443     5 1s    0.63003     6 1s    0.49152
   27.1     0.00000     1.69566     1 1s    0.58628     1 3d0   0.35028     1 3d2- -0.29685     1 3d2+ -0.32481     2 1s   -0.59207
                                    2 3d0  -0.34864     2 3d2-  0.29729     2 3d2+  0.32822
   28.1     0.00000     1.91870     1 1s    0.36901     1 1s   -0.87724     1 2pz   0.40318     1 3d0   0.36546     1 3d1+  0.27395
                                    1 3d2+  0.31500     1 3d1-  0.25565     2 1s    0.25635     2 1s   -0.43451     2 2pz  -0.28661
                                    2 3d0   0.33447     2 3d1+  0.39986     2 3d2+  0.36636     2 3d1-  0.37325     3 1s    0.27758
                                    3 1s    0.26302     6 1s    0.28859
   29.1     0.00000     1.94107     1 1s   -0.25045     1 1s    1.24236     1 2px   0.34591     1 2pz  -0.29166     1 3d2- -0.31510
                                    1 3d1+  0.44849     1 3d1-  0.42592     2 1s    0.35801     2 1s   -1.48419     2 2px   0.28655
                                    2 2pz  -0.41670     2 3d2-  0.28732     2 3d1+ -0.33082     2 3d1- -0.33483     3 1s   -0.28036
                                    6 1s    0.36860
   30.1     0.00000     2.18165     1 1s   -0.33286     1 1s    1.62793     1 2px   0.37443     1 2py  -0.26547     1 2pz  -0.43544
                                    1 3d0  -0.55163     1 3d2+ -0.35962     2 1s    0.35888     2 1s   -1.67187     2 2px   0.38912
                                    2 2py  -0.28900     2 2pz  -0.45032     2 3d0   0.58141     2 3d2+  0.35101     3 1s   -0.35533
                                    4 1s   -0.31500     5 1s    0.34944     6 1s    0.35115
   31.1     0.00000     2.25052     1 1s   -0.49949     1 1s    0.35147     1 2px  -0.26259     1 2px   0.30344     1 3d2- -0.30193
                                    1 3d1+ -0.38605     1 3d2+  0.38323     2 1s   -0.49063     2 1s    0.29263     2 2px   0.25942
                                    2 2px  -0.28905     2 3d2- -0.30164     2 3d1+ -0.38566     2 3d2+  0.39565
   32.1     0.00000     2.34947     1 2py   0.38193     1 3d0   0.53686     1 3d2- -0.36920     1 3d1- -0.37979     2 2py  -0.34397
                                    2 3d0   0.49045     2 3d2- -0.36587     2 3d1- -0.34638     3 1s   -0.26410     4 1s    0.42480
                                    5 1s    0.37243     6 1s   -0.28792
   33.1     0.00000     2.58181     1 1s   -0.28940     1 2py   0.27410     1 3d2- -0.54864     1 3d1- -0.57662     2 1s    0.28403
                                    2 2py   0.31442     2 3d2-  0.40525     2 3d1-  0.60876     3 1s   -0.50634     4 1s    0.40419
                                    5 1s   -0.41230     6 1s    0.46146
   34.1     0.00000     2.64450     1 2py  -0.33929     1 3d2- -0.40841     1 3d2+ -0.52403     1 3d1-  0.54227     2 2py   0.30141
                                    2 3d2- -0.46951     2 3d2+ -0.51506     2 3d1-  0.46912     4 1s   -0.38674     5 1s   -0.33627
   35.1     0.00000     2.72420     1 3d0   0.40267     1 3d2-  0.41750     1 3d1+ -0.47781     2 3d0   0.40318     2 3d2-  0.55245
                                    2 3d1+ -0.50959     2 3d1-  0.33919     3 1s    0.39281     6 1s    0.56261
   36.1     0.00000     2.95991     1 1s    1.72231     1 2px   0.43536     1 2px   0.87248     1 2pz  -0.44049     1 3d2- -0.35304
                                    1 3d1+ -0.69241     1 3d2+  0.64629     2 1s   -1.71569     2 2px   0.43676     2 2px   0.87549
                                    2 2pz  -0.43886     2 3d2-  0.34055     2 3d1+  0.70068     2 3d2+ -0.64264


 HOMO      8.1    -0.387147 =     -10.5348eV
 LUMO      9.1     0.063275 =       1.7218eV
 LUMO-HOMO         0.450421 =      12.2566eV


 **********************************************************************************************************************************
 DATASETS  * FILE   NREC   LENGTH (MB)   RECORD NAMES
              1      19       31.13       500      610      700      900      950      970     1000      129      960     1100   
                                          VAR    BASINP    GEOM    SYMINP    ZMAT    AOBASIS   BASIS     P2S    ABASIS      S 
                                         1400     1410     1200     1210     1080     1600     1650     1300     1700   
                                           T        V       H0       H01     AOSYM     SMH    MOLCAS    ERIS     OPER   

              2       4        2.86       700     1000      520     2100   
                                         GEOM     BASIS   MCVARS     RHF  

 PROGRAMS   *        TOTAL    HF-SCF       INT
 CPU TIMES  *         0.39      0.11      0.18
 REAL TIME  *         0.65 SEC
 DISK USED  *        36.24 MB
 **********************************************************************************************************************************


 PROGRAM * MULTI (Direct Multiconfiguration SCF)       Authors: P.J. Knowles, H.-J. Werner (1984)


 Number of closed-shell orbitals:   7 (   7 )
 Number of active  orbitals:        2 (   2 )
 Number of external orbitals:      27 (  27 )

 State symmetry 1

 Number of electrons:     2    Spin symmetry=Singlet   Space symmetry=1
 Number of states:        3
 Number of CSFs:          3   (4 determinants, 4 intermediate states)

 Molecular orbitals read from record     2100.2  Type=RHF/CANONICAL (state 1.1)

 Wavefunction dump at record             2140.2

 Convergence thresholds  0.10E-01 (gradient)  0.10E-05 (energy)  0.10E-02 (step length)

 Weight factors for state symmetry  1:    0.33333   0.33333   0.33333

 Number of orbital rotations:      257   (    14 Core/Active    189 Core/Virtual   0 Active/Active     54 Active/Virtual)
 Total number of variables:        269

 Micro-Iterations solved by the two-step solver

 ITER. MIC  NCI  NEG     ENERGY(VAR)     ENERGY(PROJ)   ENERGY CHANGE     GRAD(0)  GRAD(ORB)   GRAD(CI)     STEP       TIME

   1    9    5    0     -77.69125468     -77.71086731   -0.01961263    0.16716997 0.00181448 0.00000000  0.14D+00      0.13
   2    7    5    0     -77.71056591     -77.71058552   -0.00001961    0.00654028 0.00000415 0.00000000  0.46D-02      0.23
   3    5    4    0     -77.71058555     -77.71058555   -0.00000000    0.00001284 0.00000000 0.00000000  0.18D-04      0.30

 ** WVFN ****  CONVERGENCE REACHED, FINAL GRADIENT:  0.15D-09



 Results for state 1.1
 =====================

 !MCSCF STATE  1.1 Energy             -77.841484940131
 Nuclear energy                        32.37221241
 Kinetic energy                        77.81215572
 One electron energy                 -167.90978661
 Two electron energy                   57.69608925
 Virial ratio                           2.00037692

 !MCSCF STATE  1.1 Dipole moment       -0.00075231    -0.00678944    -0.00355749
 Dipole moment /Debye                  -0.00191205    -0.01725591    -0.00904164

 Results for state 2.1
 =====================

 !MCSCF STATE  2.1 Energy             -77.738282419886
 Nuclear energy                        32.37221241
 Kinetic energy                        77.88796515
 One electron energy                 -167.60515133
 Two electron energy                   57.49465650
 Virial ratio                           1.99807823

 !MCSCF STATE  2.1 Dipole moment        0.00767607    -0.00597053    -0.00051952
 Dipole moment /Debye                   0.01950935    -0.01517458    -0.00132040

 Results for state 3.1
 =====================

 !MCSCF STATE  3.1 Energy             -77.551989283960
 Nuclear energy                        32.37221241
 Kinetic energy                        77.94955139
 One electron energy                 -167.34727814
 Two electron energy                   57.42307644
 Virial ratio                           1.99489975

 !MCSCF STATE  3.1 Dipole moment        0.01852313    -0.00650942     0.00311695
 Dipole moment /Debye                   0.04707802    -0.01654422     0.00792197

 State-averaged charge density matrix saved on record  2140.2 (density set 1)

 !MCSCF expec         <1.1|DMX|1.1>    -0.000752307730 au =    -0.001912050281 Debye
 !MCSCF trans         <2.1|DMX|1.1>     0.005603171621 au =     0.014240908928 Debye
 !MCSCF expec         <2.1|DMX|2.1>     0.007676070702 au =     0.019509347774 Debye
 !MCSCF trans         <3.1|DMX|1.1>    -0.000507865393 au =    -0.001290780526 Debye
 !MCSCF trans         <3.1|DMX|2.1>     0.005418314281 au =     0.013771079211 Debye
 !MCSCF expec         <3.1|DMX|3.1>     0.018523131100 au =     0.047078019541 Debye

 !MCSCF expec         <1.1|DMY|1.1>    -0.006789443729 au =    -0.017255914393 Debye
 !MCSCF trans         <2.1|DMY|1.1>    -0.002932362582 au =    -0.007452834090 Debye
 !MCSCF expec         <2.1|DMY|2.1>    -0.005970531996 au =    -0.015174584709 Debye
 !MCSCF trans         <3.1|DMY|1.1>    -0.000240573313 au =    -0.000611436322 Debye
 !MCSCF trans         <3.1|DMY|2.1>    -0.003235654876 au =    -0.008223675721 Debye
 !MCSCF expec         <3.1|DMY|3.1>    -0.006509421972 au =    -0.016544216696 Debye

 !MCSCF expec         <1.1|DMZ|1.1>    -0.003557486460 au =    -0.009041636436 Debye
 !MCSCF trans         <2.1|DMZ|1.1>     0.001423076487 au =     0.003616862737 Debye
 !MCSCF expec         <2.1|DMZ|2.1>    -0.000519520205 au =    -0.001320402163 Debye
 !MCSCF trans         <3.1|DMZ|1.1>    -0.000215869228 au =    -0.000548648913 Debye
 !MCSCF trans         <3.1|DMZ|2.1>     0.001307487342 au =     0.003323083679 Debye
 !MCSCF expec         <3.1|DMZ|3.1>     0.003116948239 au =     0.007921973305 Debye


 NATURAL ORBITALS (state averaged)
 =================================

  Orbital  Occupation    Energy     Coefficients
    1.1     2.00000   -11.25609     1 1s    0.99152
    2.1     2.00000   -11.25227     2 1s    0.99151
    3.1     2.00000    -1.05003     1 1s    0.27528     2 1s    0.28062
    4.1     2.00000    -0.78554     1 1s   -0.32213     2 1s    0.31264
    5.1     2.00000    -0.62506     1 2py   0.28869     2 2py   0.31429
    6.1     2.00000    -0.55987     1 2px   0.26022     1 2py  -0.25041     2 2px  -0.25723
    7.1     2.00000    -0.41937     1 2pz   0.32443     1 2pz   0.27995     2 2pz   0.32564     2 2pz   0.28139
    8.1     1.00000    -0.08686     1 1s    0.27216     1 2pz   0.40354     1 2pz   0.42809     2 1s    0.26251     2 2pz  -0.40538
                                    2 2pz  -0.43130
    9.1     1.00000    -0.23069     1 2px  -0.31007     2 2px   0.31030     4 1s    0.29408     5 1s    0.29465
   10.1    -0.00000     0.21943     1 1s   -1.12098     1 2px   0.47625     1 2py   0.37203     1 2pz   0.38112     2 1s   -1.08985
                                    2 2px  -0.48174     2 2py  -0.39032     2 2pz  -0.36881     3 1s    0.55786     4 1s    1.09144
                                    5 1s    1.10094     6 1s    0.52749
   11.1    -0.00000     0.28096     1 1s   -1.66503     1 2py  -0.39824     1 2pz   0.50987     2 1s    1.62116     2 2pz   0.43914
                                    3 1s    1.54013     6 1s   -1.30793
   12.1    -0.00000     0.31600     1 1s   -0.44765     1 2px   0.39461     1 2py  -1.04068     1 2pz   0.32489     2 1s   -1.16151
                                    2 2px  -0.39851     2 2py   0.95678     2 2pz  -0.52735     3 1s    1.37883     4 1s   -0.56035
                                    6 1s    1.76134
   13.1    -0.00000     0.31969     1 1s   -1.11722     1 2py   0.75184     1 2pz   0.36573     2 1s    0.92648     2 2py   0.93333
                                    2 2pz   0.27580     4 1s    1.67938     5 1s   -1.71964     6 1s    0.33214
   14.1    -0.00000     0.42977     1 1s    1.92128     1 2px   1.78106     1 2py  -0.50367     1 2pz  -0.74190     2 1s   -1.85776
                                    2 2px   1.80517     2 2py  -0.55258     2 2pz  -0.72028     3 1s    0.58548     6 1s   -0.67644
   15.1    -0.00000     0.69923     1 2px   0.53054     1 2px  -0.88862     2 2px  -0.53950     2 2px   0.92645     4 1s   -0.25581
                                    4 1s    0.48203     5 1s    0.48622
   16.1    -0.00000     0.75484     1 1s   -0.48216     1 2py  -0.29662     1 2px  -0.63095     1 2py   0.62830     2 1s    0.33239
                                    2 2py  -0.42853     2 2px  -0.69670     2 2py   0.97348     3 1s   -0.46481     5 1s   -0.29941
                                    6 1s    0.49458
   17.1    -0.00000     0.78857     1 2py  -0.60200     1 2pz  -0.33739     1 2py   1.31121     1 2pz   0.41700     2 1s    0.31463
                                    2 2py   0.50742     2 2py  -1.08661     4 1s    0.33186
   18.1    -0.00000     0.80003     1 1s   -0.37027     1 2pz  -0.68615     1 2pz   0.71456     2 1s    0.34696     2 2pz  -0.76498
                                    2 2pz   0.82138
   19.1    -0.00000     0.86294     1 1s   -0.31643     1 2px  -0.26338     1 2pz  -0.67500     1 2px   0.53242     1 2py  -0.59148
                                    1 2pz   1.01025     2 1s   -0.30775     2 2pz   0.64783     2 2px  -0.44913     2 2py   0.49833
                                    2 2pz  -1.01730     3 1s    0.28901     6 1s    0.26284
   20.1    -0.00000     0.98067     1 2px   0.71143     1 2py   0.37479     1 2px  -1.06918     1 2py  -0.78987     2 2px   0.71609
                                    2 2py   0.38092     2 2px  -1.07422     2 2py  -0.79510     4 1s   -1.01094     5 1s    1.01354
   21.1    -0.00000     1.09342     1 1s   -0.62454     1 1s    1.11325     1 2px   0.29725     1 2py   0.38521     1 2px  -0.38631
                                    1 2py  -0.38188     2 1s   -0.66377     2 1s    1.22064     2 2px  -0.26085     2 2py  -0.45256
                                    2 2px   0.33173     2 2py   0.47936     4 1s    0.62713     4 1s   -1.10014     5 1s    0.69344
                                    5 1s   -1.21641
   22.1    -0.00000     1.12319     1 2px  -0.28005     1 2py   0.66385     1 2px   0.28988     1 2py  -0.89509     2 1s   -0.25628
                                    2 2px  -0.25643     2 2py   0.55229     2 2px   0.28866     2 2py  -0.80193     3 1s   -0.34727
                                    3 1s    0.85588     4 1s    0.65555     4 1s   -1.10072     5 1s   -0.58547     5 1s    0.97194
                                    6 1s   -0.66295
   23.1    -0.00000     1.15426     1 1s   -0.52650     1 1s    0.26927     1 2px   0.42203     1 2pz   0.25237     1 2px  -1.05009
                                    1 2py   0.47639     2 1s    0.33160     2 2px  -0.88255     2 2py   0.29643     3 1s    0.80349
                                    3 1s   -1.39291     4 1s    0.49320     4 1s   -0.53256     5 1s   -0.48340     5 1s    0.52179
                                    6 1s   -0.26136     6 1s    0.68854
   24.1    -0.00000     1.20256     1 1s   -0.49981     1 1s    1.17488     2 1s   -0.48460     2 1s    0.33578     2 2px  -0.41322
                                    2 2py   0.41999     2 2px   0.70823     2 2py  -0.57834     3 1s    0.50109     3 1s   -0.51027
                                    6 1s    0.97251     6 1s   -1.39500
   25.1    -0.00000     1.24998     1 1s   -1.14764     1 1s    1.89203     1 2px  -0.60379     1 2py   0.59025     1 2pz  -0.91004
                                    2 1s   -1.34876     2 1s    2.59662     2 2px   0.50870     2 2py  -0.54999     2 2pz   1.07056
                                    3 1s   -0.38121     3 1s   -0.88645     4 1s   -0.38252     4 1s   -0.36261     5 1s   -0.40544
                                    5 1s   -0.43798     6 1s   -0.35626     6 1s   -1.09597
   26.1    -0.00000     1.28051     1 1s   -1.64427     1 1s    5.15919     1 2px   1.22324     1 2py  -0.70693     1 2pz  -1.25632
                                    2 1s    1.56713     2 1s   -5.02558     2 2px   1.25428     2 2py  -0.72323     2 2pz  -1.14835
                                    3 1s   -0.45862     4 1s   -0.26361     4 1s   -0.66756     5 1s    0.59332     6 1s    0.52935
   27.1    -0.00000     1.69037     1 1s    0.61424     1 3d0   0.34386     1 3d2- -0.30100     1 3d2+ -0.32687     2 1s   -0.61946
                                    2 3d0  -0.34241     2 3d2-  0.30125     2 3d2+  0.33015
   28.1    -0.00000     1.91593     1 1s    0.35879     1 1s   -0.86486     1 2pz   0.39684     1 3d0   0.36332     1 3d1+  0.26738
                                    1 3d2+  0.32061     1 3d1-  0.25350     2 1s   -0.42326     2 2px  -0.25117     2 2pz  -0.28087
                                    2 3d0   0.33170     2 3d1+  0.39750     2 3d2+  0.37432     2 3d1-  0.37341     3 1s    0.27860
                                    3 1s    0.25885     6 1s    0.28596
   29.1    -0.00000     1.93795     1 1s    1.20920     1 2px   0.33636     1 2pz  -0.28251     1 3d2- -0.31410     1 3d1+  0.45151
                                    1 3d1-  0.42556     2 1s    0.34942     2 1s   -1.45045     2 2px   0.27449     2 2pz  -0.40743
                                    2 3d2-  0.28284     2 3d1+ -0.33335     2 3d1- -0.33226     3 1s   -0.28088     6 1s    0.37071
   30.1    -0.00000     2.18180     1 1s   -0.33854     1 1s    1.61754     1 2px   0.36957     1 2py  -0.26744     1 2pz  -0.43064
                                    1 3d0  -0.55492     1 3d2+ -0.36068     2 1s    0.36020     2 1s   -1.65733     2 2px   0.38289
                                    2 2py  -0.29124     2 2pz  -0.44314     2 3d0   0.58472     2 3d2+  0.35504     3 1s   -0.35472
                                    4 1s   -0.30900     5 1s    0.34487     6 1s    0.34965
   31.1    -0.00000     2.24584     1 1s   -0.49233     1 1s    0.34272     1 2px  -0.26908     1 2px   0.29193     1 3d2- -0.31472
                                    1 3d1+ -0.39375     1 3d2+  0.38368     2 1s   -0.48747     2 1s    0.31068     2 2px   0.26572
                                    2 2px  -0.28433     2 3d2- -0.31594     2 3d1+ -0.39506     2 3d2+  0.39255
   32.1    -0.00000     2.34346     1 2py   0.39925     1 3d0   0.53862     1 3d2- -0.36401     1 3d1- -0.39400     2 2py  -0.35863
                                    2 3d0   0.48899     2 3d2- -0.35979     2 3d1- -0.35865     3 1s   -0.27680     4 1s    0.41414
                                    5 1s    0.35986     6 1s   -0.30201
   33.1    -0.00000     2.57653     1 1s   -0.27297     1 2py   0.27059     1 3d2- -0.54848     1 3d1- -0.57291     2 1s    0.26918
                                    2 2py   0.31820     2 3d2-  0.41153     2 3d1-  0.61514     3 1s   -0.50630     4 1s    0.39118
                                    5 1s   -0.40699     6 1s    0.46954
   34.1    -0.00000     2.63623     1 2py  -0.34606     1 3d2- -0.41178     1 3d2+ -0.51973     1 3d1-  0.54672     2 2py   0.30565
                                    2 3d2- -0.47781     2 3d2+ -0.50943     2 3d1-  0.46791     4 1s   -0.37903     5 1s   -0.32596
   35.1    -0.00000     2.72894     1 3d0   0.40942     1 3d2-  0.41070     1 3d1+ -0.48535     2 3d0   0.41293     2 3d2-  0.53845
                                    2 3d1+ -0.51241     2 3d1-  0.33431     3 1s    0.39471     6 1s    0.55686
   36.1    -0.00000     2.95551     1 1s    1.75279     1 2px   0.42908     1 2px   0.88461     1 2pz  -0.44847     1 3d2- -0.35105
                                    1 3d1+ -0.69501     1 3d2+  0.64362     2 1s   -1.74593     2 2px   0.43056     2 2px   0.88770
                                    2 2py  -0.25233     2 2pz  -0.44687     2 3d2-  0.33808     2 3d1+  0.70384     2 3d2+ -0.63984


 Natural orbital dump (state averaged) at molpro section  2140.2    (Orbital set 2)



 **********************************************************************************************************************************
 DATASETS  * FILE   NREC   LENGTH (MB)   RECORD NAMES
              1      20       31.86       500      610      700      900      950      970     1000      129      960     1100   
                                          VAR    BASINP    GEOM    SYMINP    ZMAT    AOBASIS   BASIS     P2S    ABASIS      S 
                                         1400     1410     1200     1210     1080     1600     1650     1300     1700     1380   
                                           T        V       H0       H01     AOSYM     SMH    MOLCAS    ERIS     OPER     JKOP   

              2       5        5.42       700     1000      520     2100     2140   
                                         GEOM     BASIS   MCVARS     RHF     MCSCF   

 PROGRAMS   *        TOTAL     MULTI    HF-SCF       INT
 CPU TIMES  *         0.74      0.35      0.11      0.18
 REAL TIME  *         1.06 SEC
 DISK USED  *        39.04 MB
 **********************************************************************************************************************************
 Molecular orbitals read from record     2140.2  Type=MCSCF/NATURAL (state averaged)
 Occupation numbers read from record     2140.2  Type=MCSCF/NATURAL (state averaged)
 Orbital energies read from record       2140.2  Type=MCSCF/NATURAL (state averaged)
 Redundancy group numbers read from rec  2140.2  Type=MCSCF/NATURAL (state averaged)

 MULTI/6-31G* energy=    -77.551989283960

           MULTI          HF-SCF
    -77.55198928    -77.84786795
 **********************************************************************************************************************************
 Molpro calculation terminated
