
 Primary working directories    : /scratch.local/johan406.molpro_temp/molpro.PFEVZhkpiA
 Secondary working directories  : /scratch.local/johan406.molpro_temp/molpro.PFEVZhkpiA
 Wavefunction directory         : /home/goodpast/johan406/wfu/
 Main file repository           : /scratch.local/johan406.molpro_temp/molpro.PFEVZhkpiA/

 id        : roweumn

 Nodes     nprocs
 acn09        1

 Using customized tuning parameters: mindgm=1; mindgv=20; mindgc=4; mindgr=1; noblas=0; minvec=7
 default implementation of scratch files=df  


 Variables initialized (934), CPU time= 0.00 sec
                                                                                 !leave this line blank
 
 gprint, orbitals=30
 memory, 125., m
 symmetry, nosym
 nelect=16
 basis=6-31g*
 
 geometry={
 C -0.6254 0.1363 0.2994
 C 0.6364 -0.1894 -0.3583
 H -1.2812 0.9141 -0.1647
 H -0.9611 -0.8647 -0.1356
 H 0.9722 0.8177 0.0788
 H 1.2609 -0.928 0.0844
 }
 
 hf
 {multi,
 closed 7
 occ 9
 wf,spin=0;STATE,3
 }
 
 Commands  initialized (763), CPU time= 0.02 sec, 617 directives.
 Default parameters read. Elapsed time= 0.08 sec

 Checking input...
 Passed
1


                                         ***  PROGRAM SYSTEM MOLPRO  ***
                                       Copyright, TTI GmbH Stuttgart, 2015
                                    Version 2019.2 linked Oct 25 2019 22:50:27


 **********************************************************************************************************************************
 LABEL *                                                                                 
  64 bit serial version                                                                  DATE: 07-Feb-23          TIME: 16:09:19  
 **********************************************************************************************************************************

 SHA1:             8dbd9ae1082e4ce945b0f27595c9eb2d4aa09004
 **********************************************************************************************************************************


 Variable memory set to  125000000 words,  buffer space 

 SETTING NELECT         =        16.00000000                                  
 SETTING BASIS          =    6-31G*
 ZSYMEL=NOSYM


Geometry recognized as XYZ



 Recomputing integrals since basis changed


 Using spherical harmonics

 Library entry C      S 6-31G                selected for orbital group  1
 Library entry C      P 6-31G                selected for orbital group  1
 Library entry C      D 6-31G*               selected for orbital group  1
 Library entry H      S 6-31G                selected for orbital group  2


 PROGRAM * SEWARD (Integral evaluation for generally contracted gaussian basis sets)     Author: Roland Lindh, 1990

 Geometry written to block  1 of record 700


 Point group  C1  



 ATOMIC COORDINATES

 NR  ATOM    CHARGE       X              Y              Z

   1  C       6.00   -1.181834718    0.257569671    0.565784002
   2  C       6.00    1.202621706   -0.357914128   -0.677088870
   3  H       1.00   -2.421117111    1.727398650   -0.311237893
   4  H       1.00   -1.816215778   -1.634046180   -0.256246862
   5  H       1.00    1.837191738    1.545229052    0.148910419
   6  H       1.00    2.382755670   -1.753665844    0.159492885

 Bond lengths in Bohr (Angstrom)

 1-2  2.758475253  1-3  2.113145873  1-4  2.157865751  2-5  2.169540946  2-6  2.010151253
     ( 1.459722241)     ( 1.118228639)     ( 1.141893379)     ( 1.148071627)     ( 1.063726234)

 Bond angles

  1-2-5   83.42885861   1-2-6  118.35257948   2-1-3  118.36873629   2-1-4   83.50531102

  3-1-4  106.21397581   5-2-6  106.19606181

 NUCLEAR CHARGE:                   16
 NUMBER OF PRIMITIVE AOS:          72
 NUMBER OF SYMMETRY AOS:           70
 NUMBER OF CONTRACTIONS:           36   (   36A   )
 NUMBER OF CORE ORBITALS:           2   (    2A   )
 NUMBER OF VALENCE ORBITALS:       12   (   12A   )


 NUCLEAR REPULSION ENERGY   32.37446718

 Eigenvalues of metric

         1 0.925E-02 0.271E-01 0.596E-01 0.645E-01 0.803E-01 0.217E+00 0.237E+00 0.272E+00


 Contracted 2-electron integrals neglected if value below      1.0D-11
 AO integral compression algorithm  1   Integral accuracy      1.0D-11

     1.573 MB (compressed) written to integral file ( 59.2%)


 NUMBER OF SORTED TWO-ELECTRON INTEGRALS:     222111.     BUFFER LENGTH:  32768
 NUMBER OF SEGMENTS:   1  SEGMENT LENGTH:     222111      RECORD LENGTH: 524288

 Memory used in sort:       0.78 MW

 SORT1 READ      284735. AND WROTE      212531. INTEGRALS IN      1 RECORDS. CPU TIME:     0.01 SEC, REAL TIME:     0.00 SEC
 SORT2 READ      212531. AND WROTE      222111. INTEGRALS IN      6 RECORDS. CPU TIME:     0.02 SEC, REAL TIME:     0.02 SEC

 FILE SIZES:   FILE 1:    31.7 MBYTE,  FILE 4:     4.2 MBYTE,   TOTAL:     35.9 MBYTE

 OPERATOR DM      FOR CENTER  0  COORDINATES:    0.000000    0.000000    0.000000


 **********************************************************************************************************************************
 DATASETS  * FILE   NREC   LENGTH (MB)   RECORD NAMES
              1      19       31.13       500      610      700      900      950      970     1000      129      960     1100   
                                          VAR    BASINP    GEOM    SYMINP    ZMAT    AOBASIS   BASIS     P2S    ABASIS      S 
                                         1400     1410     1200     1210     1080     1600     1650     1300     1700   
                                           T        V       H0       H01     AOSYM     SMH    MOLCAS    ERIS     OPER   

 PROGRAMS   *        TOTAL       INT
 CPU TIMES  *         0.31      0.19
 REAL TIME  *         0.44 SEC
 DISK USED  *        36.24 MB
 **********************************************************************************************************************************


 PROGRAM * RHF-SCF (CLOSED SHELL)       Authors: W. Meyer, H.-J. Werner


 NUMBER OF ELECTRONS:       8+    8-    SPACE SYMMETRY=1    SPIN SYMMETRY: Singlet 
 CONVERGENCE THRESHOLDS:    1.00E-05 (Density)    1.00E-07 (Energy)
 MAX. NUMBER OF ITERATIONS:       60
 INTERPOLATION TYPE:            DIIS
 INTERPOLATION STEPS:              2 (START)      1 (STEP)
 LEVEL SHIFTS:                  0.00 (CLOSED)  0.00 (OPEN) 



 Orbital guess generated from atomic densities. Full valence occupancy:    8

 Molecular orbital dump at record        2100.2

 Initial occupancy:   8

 ITERATION    DDIFF          GRAD             ENERGY        2-EL.EN.            DIPOLE MOMENTS         DIIS   ORB.
    1      0.000D+00      0.000D+00       -77.82663540    115.954631   -0.04001    0.03079    0.02117    0    start
    2      0.000D+00      0.706D-02       -77.84469200    114.929127    0.01169   -0.01551   -0.02718    1    diag
    3      0.758D-02      0.233D-02       -77.84678149    115.342892   -0.01698    0.00345    0.01784    2    diag
    4      0.299D-02      0.917D-03       -77.84724715    115.227469    0.01007   -0.01482   -0.01848    3    diag
    5      0.162D-02      0.400D-03       -77.84735121    115.218033   -0.00269   -0.00639    0.00157    4    diag
    6      0.609D-03      0.233D-03       -77.84743141    115.226850    0.00215   -0.00930   -0.00494    5    diag
    7      0.688D-03      0.102D-03       -77.84746092    115.228112    0.00195   -0.00891   -0.00459    6    diag
    8      0.524D-03      0.291D-04       -77.84746302    115.229134    0.00192   -0.00893   -0.00466    7    diag
    9      0.144D-03      0.828D-05       -77.84746315    115.229324    0.00189   -0.00891   -0.00466    8    diag
   10      0.359D-04      0.233D-05       -77.84746316    115.229297    0.00187   -0.00892   -0.00465    9    orth
   11      0.660D-05      0.521D-06       -77.84746316    115.229301    0.00187   -0.00892   -0.00465    0    orth

 Final occupancy:   8

 !RHF STATE  1.1 Energy               -77.847463161716
 Nuclear energy                        32.37446718
 One-electron energy                 -167.83658097
 Two-electron energy                   57.61465062
 Virial quotient                       -1.00115326
 !RHF STATE  1.1 Dipole moment          0.00187355    -0.00891525    -0.00464937
 Dipole moment /Debye                   0.00476178    -0.02265881    -0.01181674

 ELECTRON ORBITALS
 =================

  Orbital  Occupation    Energy     Coefficients
    1.1     2.00000   -11.26179     1 1s    0.99227
    2.1     2.00000   -11.25703     2 1s    0.99226
    3.1     2.00000    -1.03738     1 1s    0.27903     2 1s    0.28698     2 1s    0.25117
    4.1     2.00000    -0.78486     1 1s   -0.29912     2 1s    0.28472
    5.1     2.00000    -0.62216     1 2py   0.29323     2 2py   0.32214
    6.1     2.00000    -0.56138     1 2px   0.29920     2 2px  -0.29722
    7.1     2.00000    -0.39190     1 2pz   0.30425     1 2pz   0.28233     2 2pz   0.31304     2 2pz   0.28881
    8.1     2.00000    -0.38714     1 2px  -0.26868     2 2px   0.27831     4 1s    0.28428     5 1s    0.28692
    9.1     0.00000     0.06325     1 1s    0.40940     1 2pz   0.32885     1 2pz   0.46433     2 1s    0.38623     2 2pz  -0.33224
                                    2 2pz  -0.47291
   10.1     0.00000     0.23138     1 1s   -1.12541     1 2px   0.47977     1 2py   0.35103     1 2pz   0.44457     2 1s   -1.06925
                                    2 2px  -0.48686     2 2py  -0.37816     2 2pz  -0.42296     3 1s    0.60281     4 1s    1.07914
                                    5 1s    1.09147     6 1s    0.54950
   11.1     0.00000     0.28165     1 1s   -1.55826     1 2py  -0.50762     1 2pz   0.50700     2 1s    1.51985     2 2pz   0.39957
                                    3 1s    1.58284     6 1s   -1.26189
   12.1     0.00000     0.31386     1 1s   -0.42031     1 2px   0.41971     1 2py  -0.93995     1 2pz   0.35606     2 1s   -1.09662
                                    2 2px  -0.37460     2 2py   1.06876     2 2pz  -0.54423     3 1s    1.27158     4 1s   -0.41356
                                    5 1s   -0.42277     6 1s    1.84103
   13.1     0.00000     0.33532     1 1s   -1.06513     1 2px   0.28750     1 2py   0.77173     1 2pz   0.32142     2 1s    1.04496
                                    2 2px   0.28242     2 2py   0.74667     2 2pz   0.31746     4 1s    1.71777     5 1s   -1.67636
   14.1     0.00000     0.42361     1 1s    2.06965     1 2px   1.76459     1 2py  -0.60237     1 2pz  -0.80360     2 1s   -1.98215
                                    2 2px   1.79810     2 2py  -0.66751     2 2pz  -0.77309     3 1s    0.57101     6 1s   -0.69324
   15.1     0.00000     0.70257     1 2px   0.54276     1 2px  -0.90506     2 2px  -0.55681     2 2px   0.95803     4 1s    0.42458
                                    5 1s    0.42811     6 1s   -0.25632
   16.1     0.00000     0.75744     1 1s   -0.39056     1 2py  -0.27763     1 2px  -0.58109     1 2py   0.54885     2 2py  -0.46226
                                    2 2px  -0.64161     2 2py   1.00825     3 1s   -0.46191     5 1s   -0.29401     6 1s    0.49865
   17.1     0.00000     0.78960     1 2py  -0.64004     1 2pz  -0.36939     1 2py   1.34627     1 2pz   0.38180     2 1s    0.35100
                                    2 2py   0.50534     2 2py  -1.05658     4 1s    0.34035
   18.1     0.00000     0.80006     1 2pz  -0.67307     1 2pz   0.64021     2 2pz  -0.77783     2 2py   0.27275     2 2pz   0.75524
   19.1     0.00000     0.86491     1 1s   -0.36108     1 2px  -0.25299     1 2pz  -0.70042     1 2px   0.50489     1 2py  -0.59722
                                    1 2pz   0.95203     2 1s   -0.34896     2 2pz   0.67079     2 2px  -0.40314     2 2py   0.48058
                                    2 2pz  -0.96325
   20.1     0.00000     0.97395     1 2px   0.71367     1 2py   0.36762     1 2px  -1.14871     1 2py  -0.77083     2 2px   0.71937
                                    2 2py   0.37441     2 2px  -1.15480     2 2py  -0.77578     4 1s   -1.04810     5 1s    1.04746
   21.1     0.00000     1.11920     1 1s   -0.65634     1 1s    1.15299     1 2px   0.28460     1 2py   0.34740     1 2px  -0.41721
                                    1 2py  -0.30775     2 1s   -0.69985     2 1s    1.32401     2 2py  -0.44763     2 2px   0.30030
                                    2 2py   0.46456     4 1s    0.61591     4 1s   -1.11445     5 1s    0.68425     5 1s   -1.25838
   22.1     0.00000     1.13149     1 2px  -0.45187     1 2py   0.67228     1 2px   0.77544     1 2py  -1.00204     2 1s   -0.28909
                                    2 2px  -0.31872     2 2py   0.43367     2 2px   0.67084     2 2py  -0.79359     3 1s   -0.76356
                                    3 1s    1.52007     4 1s    0.28390     4 1s   -0.62924     5 1s    0.48343     6 1s   -0.89601
   23.1     0.00000     1.17563     1 1s   -0.62104     1 1s    0.64379     1 2pz   0.30398     1 2px  -0.61429     2 1s    0.29706
                                    2 2py   0.39427     2 2px  -0.33427     2 2py  -0.32830     3 1s    0.55665     3 1s   -0.77356
                                    4 1s    0.73139     4 1s   -1.00728     5 1s   -0.67538     5 1s    0.90463
   24.1     0.00000     1.20506     1 1s   -0.42320     1 1s    1.20026     1 2px   0.38529     2 1s   -0.57876     2 1s    0.39725
                                    2 2px  -0.42264     2 2py   0.35366     2 2pz  -0.26799     2 2px   0.87883     2 2py  -0.57832
                                    3 1s    0.31933     3 1s   -0.32410     4 1s   -0.28014     5 1s    0.32723     6 1s    0.96166
                                    6 1s   -1.48464
   25.1     0.00000     1.25885     1 1s   -1.04564     1 1s    1.63216     1 2px  -0.61958     1 2py   0.59885     1 2pz  -0.86802
                                    2 1s   -1.33088     2 1s    2.65287     2 2px   0.44479     2 2py  -0.50262     2 2pz   1.10542
                                    3 1s   -0.40093     3 1s   -0.82142     4 1s   -0.40869     4 1s   -0.28596     5 1s   -0.44830
                                    5 1s   -0.40412     6 1s   -0.39005     6 1s   -1.05976
   26.1     0.00000     1.28686     1 1s   -1.66064     1 1s    5.18227     1 2px   1.19646     1 2py  -0.73021     1 2pz  -1.29231
                                    2 1s    1.53388     2 1s   -4.96455     2 2px   1.24753     2 2py  -0.76480     2 2pz  -1.13764
                                    3 1s   -0.44920     4 1s   -0.26601     4 1s   -0.71386     5 1s    0.61829     6 1s    0.50495
   27.1     0.00000     1.69564     1 1s    0.58573     1 3d0   0.35052     1 3d2- -0.29678     1 3d2+ -0.32433     2 1s   -0.59303
                                    2 3d0  -0.34833     2 3d2-  0.29733     2 3d2+  0.32882
   28.1     0.00000     1.91825     1 1s    0.38053     1 1s   -0.92696     1 2pz   0.41461     1 3d0   0.36636     1 3d1+  0.25501
                                    1 3d2+  0.30624     2 1s   -0.37202     2 2px  -0.26201     2 2pz  -0.26841     2 3d0   0.32743
                                    2 3d1+  0.41280     2 3d2+  0.37038     2 3d1-  0.38629     3 1s    0.28918     3 1s    0.25691
                                    6 1s    0.28978
   29.1     0.00000     1.94147     1 1s    1.20013     1 2px   0.35021     1 2pz  -0.27269     1 3d2- -0.31586     1 3d1+  0.46058
                                    1 3d1-  0.43474     2 1s    0.36810     2 1s   -1.50385     2 2px   0.27588     2 2pz  -0.42963
                                    2 3d2-  0.28067     2 3d1+ -0.31284     2 3d1- -0.32088     3 1s   -0.26634     6 1s    0.37735
   30.1     0.00000     2.18145     1 1s   -0.32858     1 1s    1.61948     1 2px   0.37180     1 2py  -0.26172     1 2pz  -0.43270
                                    1 3d0  -0.54697     1 3d2+ -0.36066     2 1s    0.36205     2 1s   -1.67611     2 2px   0.39060
                                    2 2py  -0.29198     2 2pz  -0.45190     2 3d0   0.58530     2 3d2+  0.34964     3 1s   -0.35565
                                    4 1s   -0.30959     5 1s    0.35398     6 1s    0.35037
   31.1     0.00000     2.25046     1 1s   -0.50073     1 1s    0.35979     1 2px  -0.26290     1 2px   0.30528     1 3d2- -0.30227
                                    1 3d1+ -0.38600     1 3d2+  0.38136     2 1s   -0.48937     2 1s    0.28429     2 2px   0.25878
                                    2 2px  -0.28686     2 3d2- -0.30185     2 3d1+ -0.38554     2 3d2+  0.39733
   32.1     0.00000     2.34954     1 2py   0.38702     1 3d0   0.54334     1 3d2- -0.36936     1 3d1- -0.38423     2 2py  -0.33821
                                    2 3d0   0.48364     2 3d2- -0.36517     2 3d1- -0.34119     3 1s   -0.26059     4 1s    0.43197
                                    5 1s    0.36458     6 1s   -0.29131
   33.1     0.00000     2.58094     1 1s   -0.29293     1 2py   0.26755     1 3d2- -0.56480     1 3d1- -0.56906     2 1s    0.28562
                                    2 2py   0.31908     2 3d2-  0.38272     2 3d1-  0.60995     3 1s   -0.50820     4 1s    0.40140
                                    5 1s   -0.41166     6 1s    0.45166
   34.1     0.00000     2.64461     1 2py  -0.34448     1 3d2- -0.39650     1 3d2+ -0.52599     1 3d1-  0.55273     2 2py   0.29667
                                    2 3d2- -0.47297     2 3d2+ -0.51471     2 3d1-  0.46087     4 1s   -0.39437     5 1s   -0.33081
   35.1     0.00000     2.72579     1 3d0   0.39999     1 3d2-  0.39923     1 3d1+ -0.47143     2 3d0   0.40100     2 3d2-  0.57190
                                    2 3d1+ -0.51189     2 3d1-  0.35561     3 1s    0.37037     6 1s    0.58803
   36.1     0.00000     2.95988     1 1s    1.72287     1 2px   0.43521     1 2px   0.87199     1 2pz  -0.44062     1 3d2- -0.35467
                                    1 3d1+ -0.69126     1 3d2+  0.64675     2 1s   -1.71430     2 2px   0.43703     2 2px   0.87589
                                    2 2pz  -0.43852     2 3d2-  0.33852     2 3d1+  0.70195     2 3d2+ -0.64203


 HOMO      8.1    -0.387140 =     -10.5346eV
 LUMO      9.1     0.063246 =       1.7210eV
 LUMO-HOMO         0.450386 =      12.2556eV


 **********************************************************************************************************************************
 DATASETS  * FILE   NREC   LENGTH (MB)   RECORD NAMES
              1      19       31.13       500      610      700      900      950      970     1000      129      960     1100   
                                          VAR    BASINP    GEOM    SYMINP    ZMAT    AOBASIS   BASIS     P2S    ABASIS      S 
                                         1400     1410     1200     1210     1080     1600     1650     1300     1700   
                                           T        V       H0       H01     AOSYM     SMH    MOLCAS    ERIS     OPER   

              2       4        2.86       700     1000      520     2100   
                                         GEOM     BASIS   MCVARS     RHF  

 PROGRAMS   *        TOTAL    HF-SCF       INT
 CPU TIMES  *         0.43      0.12      0.19
 REAL TIME  *         0.83 SEC
 DISK USED  *        36.24 MB
 **********************************************************************************************************************************


 PROGRAM * MULTI (Direct Multiconfiguration SCF)       Authors: P.J. Knowles, H.-J. Werner (1984)


 Number of closed-shell orbitals:   7 (   7 )
 Number of active  orbitals:        2 (   2 )
 Number of external orbitals:      27 (  27 )

 State symmetry 1

 Number of electrons:     2    Spin symmetry=Singlet   Space symmetry=1
 Number of states:        3
 Number of CSFs:          3   (4 determinants, 4 intermediate states)

 Molecular orbitals read from record     2100.2  Type=RHF/CANONICAL (state 1.1)

 Wavefunction dump at record             2140.2

 Convergence thresholds  0.10E-01 (gradient)  0.10E-05 (energy)  0.10E-02 (step length)

 Weight factors for state symmetry  1:    0.33333   0.33333   0.33333

 Number of orbital rotations:      257   (    14 Core/Active    189 Core/Virtual   0 Active/Active     54 Active/Virtual)
 Total number of variables:        269

 Micro-Iterations solved by the two-step solver

 ITER. MIC  NCI  NEG     ENERGY(VAR)     ENERGY(PROJ)   ENERGY CHANGE     GRAD(0)  GRAD(ORB)   GRAD(CI)     STEP       TIME

   1   10    5    0     -77.69078846     -77.71048170   -0.01969324    0.16707934 0.00183555 0.00000000  0.14D+00      0.13
   2    7    5    0     -77.71017886     -77.71019933   -0.00002047    0.00667475 0.00000484 0.00000000  0.47D-02      0.23
   3    6    4    0     -77.71019936     -77.71019936   -0.00000000    0.00001353 0.00000000 0.00000000  0.19D-04      0.32

 ** WVFN ****  CONVERGENCE REACHED, FINAL GRADIENT:  0.18D-09



 Results for state 1.1
 =====================

 !MCSCF STATE  1.1 Energy             -77.841080189376
 Nuclear energy                        32.37446718
 Kinetic energy                        77.81357925
 One electron energy                 -167.91302331
 Two electron energy                   57.69747594
 Virial ratio                           2.00035342

 !MCSCF STATE  1.1 Dipole moment       -0.00086485    -0.00877530    -0.00469956
 Dipole moment /Debye                  -0.00219809    -0.02230313    -0.01194432

 Results for state 2.1
 =====================

 !MCSCF STATE  2.1 Energy             -77.737894617975
 Nuclear energy                        32.37446718
 Kinetic energy                        77.88939622
 One electron energy                 -167.60840099
 Two electron energy                   57.49603919
 Virial ratio                           1.99805491

 !MCSCF STATE  2.1 Dipole moment        0.00992898    -0.00770643    -0.00073583
 Dipole moment /Debye                   0.02523529    -0.01958651    -0.00187018

 Results for state 3.1
 =====================

 !MCSCF STATE  3.1 Energy             -77.551623277983
 Nuclear energy                        32.37446718
 Kinetic energy                        77.95097901
 One electron energy                 -167.35050983
 Two electron energy                   57.42441937
 Virial ratio                           1.99487683

 !MCSCF STATE  3.1 Dipole moment        0.02388393    -0.00838810     0.00396138
 Dipole moment /Debye                   0.06070291    -0.02131902     0.01006817

 State-averaged charge density matrix saved on record  2140.2 (density set 1)

 !MCSCF expec         <1.1|DMX|1.1>    -0.000864852574 au =    -0.002198092006 Debye
 !MCSCF trans         <2.1|DMX|1.1>     0.007313802901 au =     0.018588615177 Debye
 !MCSCF expec         <2.1|DMX|2.1>     0.009928976265 au =     0.025235287496 Debye
 !MCSCF trans         <3.1|DMX|1.1>    -0.000642920105 au =    -0.001634032881 Debye
 !MCSCF trans         <3.1|DMX|2.1>     0.007088366399 au =     0.018015650272 Debye
 !MCSCF expec         <3.1|DMX|3.1>     0.023883928081 au =     0.060702913932 Debye

 !MCSCF expec         <1.1|DMY|1.1>    -0.008775301696 au =    -0.022303131285 Debye
 !MCSCF trans         <2.1|DMY|1.1>    -0.003779549866 au =    -0.009606028349 Debye
 !MCSCF expec         <2.1|DMY|2.1>    -0.007706429633 au =    -0.019586507426 Debye
 !MCSCF trans         <3.1|DMY|1.1>    -0.000311401010 au =    -0.000791450578 Debye
 !MCSCF trans         <3.1|DMY|2.1>    -0.004171536708 au =    -0.010602294267 Debye
 !MCSCF expec         <3.1|DMY|3.1>    -0.008388097069 au =    -0.021319019749 Debye

 !MCSCF expec         <1.1|DMZ|1.1>    -0.004699564157 au =    -0.011944318271 Debye
 !MCSCF trans         <2.1|DMZ|1.1>     0.001753082499 au =     0.004455599417 Debye
 !MCSCF expec         <2.1|DMZ|2.1>    -0.000735831962 au =    -0.001870175799 Debye
 !MCSCF trans         <3.1|DMZ|1.1>    -0.000287398663 au =    -0.000730446694 Debye
 !MCSCF trans         <3.1|DMZ|2.1>     0.001593742659 au =     0.004050624468 Debye
 !MCSCF expec         <3.1|DMZ|3.1>     0.003961382621 au =     0.010068170842 Debye


 NATURAL ORBITALS (state averaged)
 =================================

  Orbital  Occupation    Energy     Coefficients
    1.1     2.00000   -11.25662     1 1s    0.99338
    2.1     2.00000   -11.25173     2 1s    0.99336
    3.1     2.00000    -1.05011     1 1s    0.27451     2 1s    0.28140
    4.1     2.00000    -0.78574     1 1s   -0.32319     2 1s    0.31093
    5.1     2.00000    -0.62517     1 2py   0.28483     2 2py   0.31772
    6.1     2.00000    -0.55972     1 2px   0.26035     1 2py  -0.25408     2 2px  -0.25649
    7.1     2.00000    -0.41938     1 2pz   0.32426     1 2pz   0.27973     2 2pz   0.32581     2 2pz   0.28159
    8.1     1.00000    -0.23069     1 2px  -0.31004     2 2px   0.31034     4 1s    0.29400     5 1s    0.29472
    9.1     1.00000    -0.08689     1 1s    0.27348     1 2pz   0.40326     1 2pz   0.42758     2 1s    0.26104     2 2pz  -0.40565
                                    2 2pz  -0.43174
   10.1    -0.00000     0.21938     1 1s   -1.12555     1 2px   0.47549     1 2py   0.36868     1 2pz   0.38314     2 1s   -1.08531
                                    2 2px  -0.48263     2 2py  -0.39228     2 2pz  -0.36713     3 1s    0.56300     4 1s    1.08952
                                    5 1s    1.10179     6 1s    0.52376
   11.1    -0.00000     0.28070     1 1s   -1.65952     1 2py  -0.42692     1 2pz   0.51653     2 1s    1.60479     2 2pz   0.42645
                                    3 1s    1.56370     5 1s   -0.26117     6 1s   -1.26818
   12.1    -0.00000     0.31621     1 1s   -0.33866     1 2px   0.39059     1 2py  -1.05184     1 2pz   0.29158     2 1s   -1.26525
                                    2 2px  -0.39784     2 2py   0.93178     2 2pz  -0.55471     3 1s    1.31944     4 1s   -0.62041
                                    6 1s    1.80477
   13.1    -0.00000     0.31971     1 1s   -1.12879     1 2py   0.71878     1 2pz   0.37539     2 1s    0.87203     2 2py   0.25572
                                    2 2py   0.96490     2 2pz   0.25420     4 1s    1.66369     5 1s   -1.71993     6 1s    0.40055
   14.1    -0.00000     0.42978     1 1s    1.92887     1 2px   1.77751     1 2py  -0.49697     1 2pz  -0.74465     2 1s   -1.84674
                                    2 2px   1.80863     2 2py  -0.56014     2 2pz  -0.71678     3 1s    0.57364     6 1s   -0.69122
   15.1    -0.00000     0.69921     1 2px   0.52921     1 2px  -0.88366     2 2px  -0.54080     2 2px   0.93273     4 1s   -0.25716
                                    4 1s    0.48110     5 1s    0.48643     6 1s   -0.25543
   16.1    -0.00000     0.75449     1 1s   -0.49551     1 2py  -0.27672     1 2px  -0.61892     1 2py   0.57682     2 1s    0.30341
                                    2 2py  -0.44429     2 2px  -0.70229     2 2py   1.01618     3 1s   -0.45895     5 1s   -0.30932
                                    6 1s    0.49664
   17.1    -0.00000     0.78871     1 2py  -0.60971     1 2pz  -0.36091     1 2px  -0.25283     1 2py   1.32930     1 2pz   0.45138
                                    2 1s    0.34752     2 2py   0.48962     2 2py  -1.04368     4 1s    0.34271
   18.1    -0.00000     0.80011     1 1s   -0.36687     1 2pz  -0.67125     1 2pz   0.69360     2 1s    0.33717     2 2pz  -0.77370
                                    2 2py   0.27456     2 2pz   0.83263
   19.1    -0.00000     0.86303     1 1s   -0.31793     1 2px  -0.26646     1 2pz  -0.67815     1 2px   0.54392     1 2py  -0.60560
                                    1 2pz   1.00767     2 1s   -0.30674     2 2pz   0.64311     2 2px  -0.43668     2 2py   0.48549
                                    2 2pz  -1.01670     3 1s    0.29183     6 1s    0.25798
   20.1    -0.00000     0.98064     1 2px   0.71065     1 2py   0.37384     1 2px  -1.06846     1 2py  -0.78892     2 2px   0.71664
                                    2 2py   0.38184     2 2px  -1.07506     2 2py  -0.79587     4 1s   -1.01040     5 1s    1.01383
   21.1    -0.00000     1.09334     1 1s   -0.61922     1 1s    1.09745     1 2px   0.30310     1 2py   0.37397     1 2px  -0.39482
                                    1 2py  -0.36626     2 1s   -0.66965     2 1s    1.23601     2 2px  -0.25541     2 2py  -0.46161
                                    2 2px   0.32302     2 2py   0.49332     4 1s    0.61673     4 1s   -1.08169     5 1s    0.70253
                                    5 1s   -1.23221
   22.1    -0.00000     1.12272     1 2px  -0.29355     1 2py   0.68060     1 2px   0.31645     1 2py  -0.91492     2 1s   -0.25006
                                    2 2px  -0.26064     2 2py   0.53339     2 2px   0.31290     2 2py  -0.79211     3 1s   -0.39330
                                    3 1s    0.91882     4 1s    0.64850     4 1s   -1.09592     5 1s   -0.55758     5 1s    0.92902
                                    6 1s   -0.65930
   23.1    -0.00000     1.15155     1 1s   -0.56603     1 1s    0.36215     1 2px   0.41490     1 2pz   0.25909     1 2px  -1.01809
                                    1 2py   0.42981     2 1s    0.33074     2 2px  -0.82581     3 1s    0.81472     3 1s   -1.38271
                                    4 1s    0.51173     4 1s   -0.58123     5 1s   -0.49770     5 1s    0.56094     6 1s    0.58078
   24.1    -0.00000     1.20648     1 1s   -0.49740     1 1s    1.26856     1 2px   0.34847     2 1s   -0.44050     2 2px  -0.43150
                                    2 2py   0.43365     2 2px   0.78984     2 2py  -0.62930     3 1s    0.44343     3 1s   -0.41178
                                    6 1s    0.99211     6 1s   -1.42781
   25.1    -0.00000     1.24994     1 1s   -1.12363     1 1s    1.80588     1 2px  -0.61456     1 2py   0.59534     1 2pz  -0.88890
                                    2 1s   -1.37855     2 1s    2.69475     2 2px   0.50150     2 2py  -0.54963     2 2pz   1.09095
                                    3 1s   -0.37915     3 1s   -0.86361     4 1s   -0.37982     4 1s   -0.35152     5 1s   -0.40706
                                    5 1s   -0.44673     6 1s   -0.34374     6 1s   -1.13823
   26.1    -0.00000     1.28092     1 1s   -1.65033     1 1s    5.15590     1 2px   1.20845     1 2py  -0.69824     1 2pz  -1.26627
                                    2 1s    1.55573     2 1s   -4.99178     2 2px   1.24603     2 2py  -0.71670     2 2pz  -1.12944
                                    3 1s   -0.45209     4 1s   -0.26655     4 1s   -0.67631     5 1s    0.58125     6 1s    0.54975
   27.1    -0.00000     1.69034     1 1s    0.61372     1 3d0   0.34408     1 3d2- -0.30095     1 3d2+ -0.32642     2 1s   -0.62025
                                    2 3d0  -0.34213     2 3d2-  0.30125     2 3d2+  0.33073
   28.1    -0.00000     1.91547     1 1s    0.37021     1 1s   -0.91394     1 2pz   0.40805     1 3d0   0.36419     1 3d2+  0.31143
                                    2 1s   -0.36133     2 2px  -0.26422     2 2pz  -0.26284     2 3d0   0.32451     2 3d1+  0.41080
                                    2 3d2+  0.37840     2 3d1-  0.38653     3 1s    0.29038     3 1s    0.25253     6 1s    0.28732
   29.1    -0.00000     1.93836     1 1s    1.16718     1 2px   0.34092     1 2pz  -0.26367     1 3d2- -0.31523     1 3d1+  0.46338
                                    1 3d1-  0.43448     2 1s    0.35908     2 1s   -1.46968     2 2px   0.26357     2 2pz  -0.42020
                                    2 3d2-  0.27568     2 3d1+ -0.31529     2 3d1- -0.31804     3 1s   -0.26663     6 1s    0.37949
   30.1    -0.00000     2.18160     1 1s   -0.33489     1 1s    1.60966     1 2px   0.36714     1 2py  -0.26366     1 2pz  -0.42823
                                    1 3d0  -0.55026     1 3d2+ -0.36128     2 1s    0.36273     2 1s   -1.66095     2 2px   0.38417
                                    2 2py  -0.29426     2 2pz  -0.44438     2 3d0   0.58861     2 3d2+  0.35410     3 1s   -0.35516
                                    4 1s   -0.30339     5 1s    0.34960     6 1s    0.34875
   31.1    -0.00000     2.24577     1 1s   -0.49304     1 1s    0.34727     1 2px  -0.26948     1 2px   0.29286     1 3d2- -0.31474
                                    1 3d1+ -0.39347     1 3d2+  0.38234     2 1s   -0.48681     2 1s    0.30622     2 2px   0.26512
                                    2 2px  -0.28317     2 3d2- -0.31627     2 3d1+ -0.39520     2 3d2+  0.39373
   32.1    -0.00000     2.34353     1 2py   0.40466     1 3d0   0.54550     1 3d2- -0.36432     1 3d1- -0.39867     2 2py  -0.35243
                                    2 3d0   0.48167     2 3d2- -0.35896     2 3d1- -0.35312     3 1s   -0.27307     4 1s    0.42158
                                    5 1s    0.35173     6 1s   -0.30557
   33.1    -0.00000     2.57573     1 1s   -0.27600     1 2py   0.26306     1 3d2- -0.56408     1 3d1- -0.56416     2 1s    0.27072
                                    2 2py   0.32388     2 3d2-  0.38997     2 3d1-  0.61787     3 1s   -0.50743     4 1s    0.38744
                                    5 1s   -0.40749     6 1s    0.46108
   34.1    -0.00000     2.63635     1 2py  -0.35140     1 3d2- -0.39942     1 3d2+ -0.52174     1 3d1-  0.55773     2 2py   0.30027
                                    2 3d2- -0.48241     2 3d2+ -0.50875     2 3d1-  0.45844     4 1s   -0.38684     5 1s   -0.31980
   35.1    -0.00000     2.73043     1 3d0   0.40658     1 3d2-  0.39332     1 3d1+ -0.47982     2 3d0   0.41138     2 3d2-  0.55703
                                    2 3d1+ -0.51430     2 3d1-  0.34995     3 1s    0.37329     6 1s    0.58142
   36.1    -0.00000     2.95548     1 1s    1.75336     1 2px   0.42892     1 2px   0.88409     1 2pz  -0.44858     1 3d2- -0.35275
                                    1 3d1+ -0.69377     1 3d2+  0.64409     2 1s   -1.74447     2 2px   0.43085     2 2px   0.88810
                                    2 2py  -0.25336     2 2pz  -0.44652     2 3d2-  0.33597     2 3d1+  0.70520     2 3d2+ -0.63921


 Natural orbital dump (state averaged) at molpro section  2140.2    (Orbital set 2)



 **********************************************************************************************************************************
 DATASETS  * FILE   NREC   LENGTH (MB)   RECORD NAMES
              1      20       31.86       500      610      700      900      950      970     1000      129      960     1100   
                                          VAR    BASINP    GEOM    SYMINP    ZMAT    AOBASIS   BASIS     P2S    ABASIS      S 
                                         1400     1410     1200     1210     1080     1600     1650     1300     1700     1380   
                                           T        V       H0       H01     AOSYM     SMH    MOLCAS    ERIS     OPER     JKOP   

              2       5        5.42       700     1000      520     2100     2140   
                                         GEOM     BASIS   MCVARS     RHF     MCSCF   

 PROGRAMS   *        TOTAL     MULTI    HF-SCF       INT
 CPU TIMES  *         0.80      0.37      0.12      0.19
 REAL TIME  *         1.27 SEC
 DISK USED  *        39.04 MB
 **********************************************************************************************************************************
 Molecular orbitals read from record     2140.2  Type=MCSCF/NATURAL (state averaged)
 Occupation numbers read from record     2140.2  Type=MCSCF/NATURAL (state averaged)
 Orbital energies read from record       2140.2  Type=MCSCF/NATURAL (state averaged)
 Redundancy group numbers read from rec  2140.2  Type=MCSCF/NATURAL (state averaged)

 MULTI/6-31G* energy=    -77.551623277983

           MULTI          HF-SCF
    -77.55162328    -77.84746316
 **********************************************************************************************************************************
 Molpro calculation terminated
