
 Primary working directories    : /scratch.local/johan406.molpro_temp/molpro.4b7tjwk6MV
 Secondary working directories  : /scratch.local/johan406.molpro_temp/molpro.4b7tjwk6MV
 Wavefunction directory         : /home/goodpast/johan406/wfu/
 Main file repository           : /scratch.local/johan406.molpro_temp/molpro.4b7tjwk6MV/

 id        : roweumn

 Nodes     nprocs
 acn09        1

 Using customized tuning parameters: mindgm=1; mindgv=20; mindgc=4; mindgr=1; noblas=0; minvec=7
 default implementation of scratch files=df  


 Variables initialized (934), CPU time= 0.01 sec
                                                                                 !leave this line blank
 
 gprint, orbitals=30
 memory, 125., m
 symmetry, nosym
 nelect=16
 basis=6-31g*
 
 geometry={
 C -0.6253 0.1361 0.2995
 C 0.6366 -0.1896 -0.3582
 H -1.2827 0.916 -0.1658
 H -0.961 -0.8646 -0.1354
 H 0.9723 0.8179 0.079
 H 1.2592 -0.9259 0.0833
 }
 
 hf
 {multi,
 closed 7
 occ 9
 wf,spin=0;STATE,3
 }
 
 Commands  initialized (763), CPU time= 0.01 sec, 617 directives.
 Default parameters read. Elapsed time= 0.08 sec

 Checking input...
 Passed
1


                                         ***  PROGRAM SYSTEM MOLPRO  ***
                                       Copyright, TTI GmbH Stuttgart, 2015
                                    Version 2019.2 linked Oct 25 2019 22:50:27


 **********************************************************************************************************************************
 LABEL *                                                                                 
  64 bit serial version                                                                  DATE: 07-Feb-23          TIME: 16:09:24  
 **********************************************************************************************************************************

 SHA1:             8dbd9ae1082e4ce945b0f27595c9eb2d4aa09004
 **********************************************************************************************************************************


 Variable memory set to  125000000 words,  buffer space 

 SETTING NELECT         =        16.00000000                                  
 SETTING BASIS          =    6-31G*
 ZSYMEL=NOSYM


Geometry recognized as XYZ



 Recomputing integrals since basis changed


 Using spherical harmonics

 Library entry C      S 6-31G                selected for orbital group  1
 Library entry C      P 6-31G                selected for orbital group  1
 Library entry C      D 6-31G*               selected for orbital group  1
 Library entry H      S 6-31G                selected for orbital group  2


 PROGRAM * SEWARD (Integral evaluation for generally contracted gaussian basis sets)     Author: Roland Lindh, 1990

 Geometry written to block  1 of record 700


 Point group  C1  



 ATOMIC COORDINATES

 NR  ATOM    CHARGE       X              Y              Z

   1  C       6.00   -1.181645746    0.257191726    0.565972974
   2  C       6.00    1.202999651   -0.358292073   -0.676899898
   3  H       1.00   -2.423951700    1.730989130   -0.313316591
   4  H       1.00   -1.816026806   -1.633857207   -0.255868917
   5  H       1.00    1.837380711    1.545606997    0.149288364
   6  H       1.00    2.379543136   -1.749697419    0.157414186

 Bond lengths in Bohr (Angstrom)

 1-2  2.758638605  1-3  2.118620545  1-4  2.157296802  2-5  2.170220736  2-6  2.004081685
     ( 1.459808683)     ( 1.121125711)     ( 1.141592305)     ( 1.148431356)     ( 1.060514356)

 Bond angles

  1-2-5   83.42138615   1-2-6  118.34786788   2-1-3  118.36571081   2-1-4   83.51079558

  3-1-4  106.21519132   5-2-6  106.20002777

 NUCLEAR CHARGE:                   16
 NUMBER OF PRIMITIVE AOS:          72
 NUMBER OF SYMMETRY AOS:           70
 NUMBER OF CONTRACTIONS:           36   (   36A   )
 NUMBER OF CORE ORBITALS:           2   (    2A   )
 NUMBER OF VALENCE ORBITALS:       12   (   12A   )


 NUCLEAR REPULSION ENERGY   32.37536727

 Eigenvalues of metric

         1 0.925E-02 0.271E-01 0.596E-01 0.645E-01 0.804E-01 0.217E+00 0.237E+00 0.272E+00


 Contracted 2-electron integrals neglected if value below      1.0D-11
 AO integral compression algorithm  1   Integral accuracy      1.0D-11

     1.573 MB (compressed) written to integral file ( 59.2%)


 NUMBER OF SORTED TWO-ELECTRON INTEGRALS:     222111.     BUFFER LENGTH:  32768
 NUMBER OF SEGMENTS:   1  SEGMENT LENGTH:     222111      RECORD LENGTH: 524288

 Memory used in sort:       0.78 MW

 SORT1 READ      284735. AND WROTE      212531. INTEGRALS IN      1 RECORDS. CPU TIME:     0.01 SEC, REAL TIME:     0.00 SEC
 SORT2 READ      212531. AND WROTE      222111. INTEGRALS IN      6 RECORDS. CPU TIME:     0.02 SEC, REAL TIME:     0.02 SEC

 FILE SIZES:   FILE 1:    31.7 MBYTE,  FILE 4:     4.2 MBYTE,   TOTAL:     35.9 MBYTE

 OPERATOR DM      FOR CENTER  0  COORDINATES:    0.000000    0.000000    0.000000


 **********************************************************************************************************************************
 DATASETS  * FILE   NREC   LENGTH (MB)   RECORD NAMES
              1      19       31.13       500      610      700      900      950      970     1000      129      960     1100   
                                          VAR    BASINP    GEOM    SYMINP    ZMAT    AOBASIS   BASIS     P2S    ABASIS      S 
                                         1400     1410     1200     1210     1080     1600     1650     1300     1700   
                                           T        V       H0       H01     AOSYM     SMH    MOLCAS    ERIS     OPER   

 PROGRAMS   *        TOTAL       INT
 CPU TIMES  *         0.28      0.18
 REAL TIME  *         0.41 SEC
 DISK USED  *        36.24 MB
 **********************************************************************************************************************************


 PROGRAM * RHF-SCF (CLOSED SHELL)       Authors: W. Meyer, H.-J. Werner


 NUMBER OF ELECTRONS:       8+    8-    SPACE SYMMETRY=1    SPIN SYMMETRY: Singlet 
 CONVERGENCE THRESHOLDS:    1.00E-05 (Density)    1.00E-07 (Energy)
 MAX. NUMBER OF ITERATIONS:       60
 INTERPOLATION TYPE:            DIIS
 INTERPOLATION STEPS:              2 (START)      1 (STEP)
 LEVEL SHIFTS:                  0.00 (CLOSED)  0.00 (OPEN) 



 Orbital guess generated from atomic densities. Full valence occupancy:    8

 Molecular orbital dump at record        2100.2

 Initial occupancy:   8

 ITERATION    DDIFF          GRAD             ENERGY        2-EL.EN.            DIPOLE MOMENTS         DIIS   ORB.
    1      0.000D+00      0.000D+00       -77.82636558    115.955885   -0.04454    0.03428    0.02358    0    start
    2      0.000D+00      0.707D-02       -77.84443603    114.929894    0.01304   -0.01725   -0.03029    1    diag
    3      0.759D-02      0.234D-02       -77.84652830    115.342677   -0.01883    0.00382    0.01975    2    diag
    4      0.299D-02      0.937D-03       -77.84699988    115.230068    0.01088   -0.01623   -0.02011    3    diag
    5      0.163D-02      0.415D-03       -77.84710632    115.218493   -0.00227   -0.00755    0.00065    4    diag
    6      0.608D-03      0.233D-03       -77.84718882    115.227603    0.00235   -0.01028   -0.00542    5    diag
    7      0.705D-03      0.102D-03       -77.84721840    115.228863    0.00219   -0.00989   -0.00513    6    diag
    8      0.524D-03      0.291D-04       -77.84722051    115.229888    0.00215   -0.00992   -0.00520    7    diag
    9      0.144D-03      0.832D-05       -77.84722064    115.230078    0.00212   -0.00988   -0.00520    8    diag
   10      0.360D-04      0.235D-05       -77.84722065    115.230052    0.00210   -0.00989   -0.00519    9    orth
   11      0.670D-05      0.526D-06       -77.84722065    115.230056    0.00210   -0.00989   -0.00519    0    orth

 Final occupancy:   8

 !RHF STATE  1.1 Energy               -77.847220651899
 Nuclear energy                        32.37536727
 One-electron energy                 -167.83761607
 Two-electron energy                   57.61502815
 Virial quotient                       -1.00113914
 !RHF STATE  1.1 Dipole moment          0.00210241    -0.00989382    -0.00518805
 Dipole moment /Debye                   0.00534344    -0.02514593    -0.01318585

 ELECTRON ORBITALS
 =================

  Orbital  Occupation    Energy     Coefficients
    1.1     2.00000   -11.26204     1 1s    0.99303
    2.1     2.00000   -11.25677     2 1s    0.99302
    3.1     2.00000    -1.03741     1 1s    0.27857     2 1s    0.28743     2 1s    0.25143
    4.1     2.00000    -0.78500     1 1s   -0.29975     2 1s    0.28370
    5.1     2.00000    -0.62222     1 2py   0.29149     2 2py   0.32360
    6.1     2.00000    -0.56130     1 2px   0.29910     2 2px  -0.29691
    7.1     2.00000    -0.39189     1 2pz   0.30359     1 2pz   0.28181     2 2pz   0.31345     2 2pz   0.28907
    8.1     2.00000    -0.38715     1 2px  -0.26797     2 2px   0.27880     4 1s    0.28398     5 1s    0.28692
    9.1     0.00000     0.06322     1 1s    0.41062     1 2pz   0.32865     1 2pz   0.46380     2 1s    0.38485     2 2pz  -0.33242
                                    2 2pz  -0.47335
   10.1     0.00000     0.23134     1 1s   -1.12850     1 2px   0.47937     1 2py   0.34893     1 2pz   0.44598     2 1s   -1.06611
                                    2 2px  -0.48723     2 2py  -0.37911     2 2pz  -0.42195     3 1s    0.60635     4 1s    1.07797
                                    5 1s    1.09167     6 1s    0.54713
   11.1     0.00000     0.28152     1 1s   -1.55330     1 2py  -0.52260     1 2pz   0.51073     2 1s    1.51168     2 2pz   0.39225
                                    3 1s    1.59393     6 1s   -1.23993
   12.1     0.00000     0.31401     1 1s   -0.38559     1 2px   0.42192     1 2py  -0.93076     1 2pz   0.34516     2 1s   -1.13423
                                    2 2px  -0.37185     2 2py   1.07308     2 2pz  -0.55342     3 1s    1.24028     4 1s   -0.41135
                                    5 1s   -0.42140     6 1s    1.87027
   13.1     0.00000     0.33531     1 1s   -1.06633     1 2px   0.28788     1 2py   0.77295     1 2pz   0.32170     2 1s    1.04394
                                    2 2px   0.28211     2 2py   0.74526     2 2pz   0.31720     4 1s    1.71987     5 1s   -1.67404
   14.1     0.00000     0.42359     1 1s    2.07284     1 2px   1.76245     1 2py  -0.59890     1 2pz  -0.80485     2 1s   -1.97544
                                    2 2px   1.79974     2 2py  -0.67134     2 2pz  -0.77090     3 1s    0.56514     6 1s   -0.70119
   15.1     0.00000     0.70256     1 2px   0.54191     1 2px  -0.90243     2 2px  -0.55759     2 2px   0.96141     4 1s    0.42404
                                    5 1s    0.42799     6 1s   -0.25977
   16.1     0.00000     0.75722     1 1s   -0.39667     1 2py  -0.26668     1 2px  -0.57634     1 2py   0.52217     2 2py  -0.47039
                                    2 2px  -0.64282     2 2py   1.02944     3 1s   -0.45880     5 1s   -0.29861     6 1s    0.49925
   17.1     0.00000     0.78968     1 2py  -0.64357     1 2pz  -0.38160     1 2py   1.35314     1 2pz   0.39787     2 1s    0.36160
                                    2 2py   0.49504     2 2py  -1.03367     4 1s    0.34531
   18.1     0.00000     0.80011     1 2pz  -0.66503     1 2pz   0.63073     2 2pz  -0.78181     2 2py   0.28926     2 2pz   0.75917
   19.1     0.00000     0.86495     1 1s   -0.36176     1 1s    0.25670     1 2px  -0.25450     1 2pz  -0.70165     1 2px   0.51026
                                    1 2py  -0.60389     1 2pz   0.95067     2 1s   -0.34830     2 2pz   0.66873     2 2px  -0.39719
                                    2 2py   0.47424     2 2pz  -0.96312
   20.1     0.00000     0.97391     1 2px   0.71335     1 2py   0.36720     1 2px  -1.14853     1 2py  -0.77041     2 2px   0.71964
                                    2 2py   0.37472     2 2px  -1.15520     2 2py  -0.77585     4 1s   -1.04778     5 1s    1.04715
   21.1     0.00000     1.11915     1 1s   -0.65700     1 1s    1.14676     1 2px   0.29083     1 2py   0.33762     1 2px  -0.42794
                                    1 2py  -0.29356     2 1s   -0.70345     2 1s    1.33560     2 2py  -0.45375     2 2px   0.29090
                                    2 2py   0.47567     4 1s    0.61083     4 1s   -1.10351     5 1s    0.68810     5 1s   -1.26697
   22.1     0.00000     1.13032     1 2px  -0.45314     1 2py   0.67489     1 2px   0.77508     1 2py  -0.99946     2 1s   -0.27940
                                    2 2px  -0.31274     2 2py   0.41184     2 2px   0.66725     2 2py  -0.76973     3 1s   -0.78430
                                    3 1s    1.54008     4 1s    0.27972     4 1s   -0.62174     5 1s    0.44845     6 1s   -0.86637
   23.1     0.00000     1.17501     1 1s   -0.62041     1 1s    0.65740     1 2pz   0.30244     1 2px  -0.59319     2 1s    0.28073
                                    2 2py   0.40388     2 2px  -0.31440     2 2py  -0.34871     3 1s    0.53717     3 1s   -0.73731
                                    4 1s    0.73848     4 1s   -1.02741     5 1s   -0.67826     5 1s    0.91565
   24.1     0.00000     1.20743     1 1s   -0.43099     1 1s    1.24595     1 2px   0.41306     2 1s   -0.55910     2 1s    0.33479
                                    2 2px  -0.42794     2 2py   0.36390     2 2pz  -0.26686     2 2px   0.90283     2 2py  -0.60220
                                    3 1s    0.30321     3 1s   -0.29776     4 1s   -0.27766     5 1s    0.32616     6 1s    0.96690
                                    6 1s   -1.49503
   25.1     0.00000     1.25879     1 1s   -1.03067     1 1s    1.57929     1 2px  -0.62812     1 2py   0.60382     1 2pz  -0.85488
                                    2 1s   -1.34693     2 1s    2.70909     2 2px   0.43681     2 2py  -0.49881     2 2pz   1.11757
                                    3 1s   -0.39935     3 1s   -0.81073     4 1s   -0.40667     4 1s   -0.27876     5 1s   -0.44980
                                    5 1s   -0.40987     6 1s   -0.38600     6 1s   -1.07771
   26.1     0.00000     1.28708     1 1s   -1.66514     1 1s    5.18168     1 2px   1.18791     1 2py  -0.72465     1 2pz  -1.29785
                                    2 1s    1.52648     2 1s   -4.94346     2 2px   1.24358     2 2py  -0.76185     2 2pz  -1.12687
                                    3 1s   -0.44811     4 1s   -0.26788     4 1s   -0.71811     5 1s    0.61237     6 1s    0.51328
   27.1     0.00000     1.69563     1 1s    0.58529     1 3d0   0.35059     1 3d2- -0.29675     1 3d2+ -0.32412     2 1s   -0.59345
                                    2 3d0  -0.34823     2 3d2-  0.29739     2 3d2+  0.32905
   28.1     0.00000     1.91804     1 1s    0.38596     1 1s   -0.95070     1 2pz   0.41991     1 3d0   0.36662     1 3d2+  0.30170
                                    2 1s   -0.34120     2 2px  -0.26839     2 2pz  -0.25932     2 3d0   0.32372     2 3d1+  0.41889
                                    2 3d2+  0.37212     2 3d1-  0.39251     3 1s    0.29465     3 1s    0.25377     6 1s    0.29020
   29.1     0.00000     1.94166     1 1s    1.17832     1 2px   0.35202     1 2pz  -0.26313     1 3d2- -0.31597     1 3d1+  0.46622
                                    1 3d2+  0.25057     1 3d1-  0.43887     2 1s    0.37270     2 1s   -1.51237     2 2px   0.27044
                                    2 2pz  -0.43567     2 3d2-  0.27716     2 3d1+ -0.30378     2 3d1- -0.31387     3 1s   -0.25920
                                    6 1s    0.38137
   30.1     0.00000     2.18136     1 1s   -0.32645     1 1s    1.61527     1 2px   0.37054     1 2py  -0.25987     1 2pz  -0.43134
                                    1 3d0  -0.54465     1 3d2+ -0.36114     2 1s    0.36361     2 1s   -1.67822     2 2px   0.39144
                                    2 2py  -0.29340     2 2pz  -0.45269     2 3d0   0.58721     2 3d2+  0.34893     3 1s   -0.35577
                                    4 1s   -0.30697     5 1s    0.35626     6 1s    0.34998
   31.1     0.00000     2.25033     1 1s   -0.50122     1 1s    0.36372     1 2px  -0.26303     1 2px   0.30613     1 3d2- -0.30251
                                    1 3d1+ -0.38594     1 3d2+  0.38047     2 1s   -0.48867     2 1s    0.28011     2 2px   0.25844
                                    2 2px  -0.28572     2 3d2- -0.30208     2 3d1+ -0.38543     2 3d2+  0.39820
   32.1     0.00000     2.34958     1 2py   0.38955     1 3d0   0.54657     1 3d2- -0.36936     1 3d1- -0.38648     2 2py  -0.33537
                                    2 3d0   0.48030     2 3d2- -0.36461     2 3d1- -0.33860     3 1s   -0.25893     4 1s    0.43539
                                    5 1s    0.36054     6 1s   -0.29299
   33.1     0.00000     2.58049     1 1s   -0.29432     1 2py   0.26428     1 3d2- -0.57233     1 3d1- -0.56519     2 1s    0.28598
                                    2 2py   0.32115     2 3d2-  0.37161     2 3d1-  0.61016     3 1s   -0.50885     4 1s    0.39991
                                    5 1s   -0.41106     6 1s    0.44673
   34.1     0.00000     2.64460     1 2py  -0.34689     1 3d2- -0.39066     1 3d2+ -0.52690     1 3d1-  0.55757     2 2py   0.29450
                                    2 3d2- -0.47421     2 3d2+ -0.51458     2 3d1-  0.45716     4 1s   -0.39796     5 1s   -0.32843
   35.1     0.00000     2.72667     1 3d0   0.39830     1 3d2-  0.39020     1 3d1+ -0.46814     2 3d0   0.39962     2 3d2-  0.58145
                                    2 3d1+ -0.51280     2 3d1-  0.36367     3 1s    0.35952     6 1s    0.60084
   36.1     0.00000     2.95982     1 1s    1.72299     1 2px   0.43504     1 2px   0.87170     1 2pz  -0.44064     1 3d2- -0.35537
                                    1 3d1+ -0.69063     1 3d2+  0.64699     2 1s   -1.71343     2 2px   0.43709     2 2px   0.87607
                                    2 2pz  -0.43829     2 3d2-  0.33733     2 3d1+  0.70258     2 3d2+ -0.64176


 HOMO      8.1    -0.387145 =     -10.5348eV
 LUMO      9.1     0.063218 =       1.7202eV
 LUMO-HOMO         0.450363 =      12.2550eV


 **********************************************************************************************************************************
 DATASETS  * FILE   NREC   LENGTH (MB)   RECORD NAMES
              1      19       31.13       500      610      700      900      950      970     1000      129      960     1100   
                                          VAR    BASINP    GEOM    SYMINP    ZMAT    AOBASIS   BASIS     P2S    ABASIS      S 
                                         1400     1410     1200     1210     1080     1600     1650     1300     1700   
                                           T        V       H0       H01     AOSYM     SMH    MOLCAS    ERIS     OPER   

              2       4        2.86       700     1000      520     2100   
                                         GEOM     BASIS   MCVARS     RHF  

 PROGRAMS   *        TOTAL    HF-SCF       INT
 CPU TIMES  *         0.39      0.11      0.18
 REAL TIME  *         0.57 SEC
 DISK USED  *        36.24 MB
 **********************************************************************************************************************************


 PROGRAM * MULTI (Direct Multiconfiguration SCF)       Authors: P.J. Knowles, H.-J. Werner (1984)


 Number of closed-shell orbitals:   7 (   7 )
 Number of active  orbitals:        2 (   2 )
 Number of external orbitals:      27 (  27 )

 State symmetry 1

 Number of electrons:     2    Spin symmetry=Singlet   Space symmetry=1
 Number of states:        3
 Number of CSFs:          3   (4 determinants, 4 intermediate states)

 Molecular orbitals read from record     2100.2  Type=RHF/CANONICAL (state 1.1)

 Wavefunction dump at record             2140.2

 Convergence thresholds  0.10E-01 (gradient)  0.10E-05 (energy)  0.10E-02 (step length)

 Weight factors for state symmetry  1:    0.33333   0.33333   0.33333

 Number of orbital rotations:      257   (    14 Core/Active    189 Core/Virtual   0 Active/Active     54 Active/Virtual)
 Total number of variables:        269

 Micro-Iterations solved by the two-step solver

 ITER. MIC  NCI  NEG     ENERGY(VAR)     ENERGY(PROJ)   ENERGY CHANGE     GRAD(0)  GRAD(ORB)   GRAD(CI)     STEP       TIME

   1   10    5    0     -77.69051285     -77.71025882   -0.01974597    0.16702667 0.00183879 0.00000000  0.14D+00      0.13
   2    7    5    0     -77.70995446     -77.70997565   -0.00002119    0.00678526 0.00000540 0.00000000  0.47D-02      0.23
   3    5    4    0     -77.70997568     -77.70997568   -0.00000000    0.00001409 0.00000000 0.00000000  0.20D-04      0.31

 ** WVFN ****  CONVERGENCE REACHED, FINAL GRADIENT:  0.21D-09



 Results for state 1.1
 =====================

 !MCSCF STATE  1.1 Energy             -77.840837351633
 Nuclear energy                        32.37536727
 Kinetic energy                        77.81445782
 One electron energy                 -167.91409671
 Two electron energy                   57.69789208
 Virial ratio                           2.00033901

 !MCSCF STATE  1.1 Dipole moment       -0.00092363    -0.00974293    -0.00524410
 Dipole moment /Debye                  -0.00234749    -0.02476244    -0.01332830

 Results for state 2.1
 =====================

 !MCSCF STATE  2.1 Energy             -77.737668388889
 Nuclear energy                        32.37536727
 Kinetic energy                        77.89030079
 One electron energy                 -167.60942697
 Two electron energy                   57.49639131
 Virial ratio                           1.99804042

 !MCSCF STATE  2.1 Dipole moment        0.01101580    -0.00854424    -0.00083183
 Dipole moment /Debye                   0.02799754    -0.02171586    -0.00211416

 Results for state 3.1
 =====================

 !MCSCF STATE  3.1 Energy             -77.551421294532
 Nuclear energy                        32.37536727
 Kinetic energy                        77.95190606
 One electron energy                 -167.35148348
 Two electron energy                   57.42469491
 Virial ratio                           1.99486241

 !MCSCF STATE  3.1 Dipole moment        0.02647974    -0.00930745     0.00437245
 Dipole moment /Debye                   0.06730037    -0.02365562     0.01111292

 State-averaged charge density matrix saved on record  2140.2 (density set 1)

 !MCSCF expec         <1.1|DMX|1.1>    -0.000923633085 au =    -0.002347487376 Debye
 !MCSCF trans         <2.1|DMX|1.1>     0.008150224108 au =     0.020714446588 Debye
 !MCSCF expec         <2.1|DMX|2.1>     0.011015802071 au =     0.027997542228 Debye
 !MCSCF trans         <3.1|DMX|1.1>    -0.000708056748 au =    -0.001799582870 Debye
 !MCSCF trans         <3.1|DMX|2.1>     0.007905850883 au =     0.020093352488 Debye
 !MCSCF expec         <3.1|DMX|3.1>     0.026479736494 au =     0.067300368678 Debye

 !MCSCF expec         <1.1|DMY|1.1>    -0.009742932890 au =    -0.024762443376 Debye
 !MCSCF trans         <2.1|DMY|1.1>    -0.004235486240 au =    -0.010764827119 Debye
 !MCSCF expec         <2.1|DMY|2.1>    -0.008544235738 au =    -0.021715858667 Debye
 !MCSCF trans         <3.1|DMY|1.1>    -0.000349077860 au =    -0.000887209307 Debye
 !MCSCF trans         <3.1|DMY|2.1>    -0.004674906102 au =    -0.011881647850 Debye
 !MCSCF expec         <3.1|DMY|3.1>    -0.009307445942 au =    -0.023655618456 Debye

 !MCSCF expec         <1.1|DMZ|1.1>    -0.005244101813 au =    -0.013328304285 Debye
 !MCSCF trans         <2.1|DMZ|1.1>     0.001897899919 au =     0.004823664476 Debye
 !MCSCF expec         <2.1|DMZ|2.1>    -0.000831830821 au =    -0.002114164578 Debye
 !MCSCF trans         <3.1|DMZ|1.1>    -0.000322945782 au =    -0.000820792540 Debye
 !MCSCF trans         <3.1|DMZ|2.1>     0.001716133252 au =     0.004361689951 Debye
 !MCSCF expec         <3.1|DMZ|3.1>     0.004372447294 au =     0.011112924593 Debye


 NATURAL ORBITALS (state averaged)
 =================================

  Orbital  Occupation    Energy     Coefficients
    1.1     2.00000   -11.25689     1 1s    0.99393
    2.1     2.00000   -11.25146     2 1s    0.99391
    3.1     2.00000    -1.05013     1 1s    0.27412     2 1s    0.28180
    4.1     2.00000    -0.78588     1 1s   -0.32368     2 1s    0.31002
    5.1     2.00000    -0.62525     1 2py   0.28288     2 2py   0.31940
    6.1     2.00000    -0.55964     1 2px   0.26035     1 2py  -0.25592     2 2px  -0.25608
    7.1     2.00000    -0.41937     1 2pz   0.32417     1 2pz   0.27962     2 2pz   0.32590     2 2pz   0.28168
    8.1     1.00000    -0.08691     1 1s    0.27411     1 2pz   0.40313     1 2pz   0.42732     2 1s    0.26028     2 2pz  -0.40580
                                    2 2pz  -0.43195
    9.1     1.00000    -0.23070     1 2px  -0.31005     2 2px   0.31039     4 1s    0.29393     5 1s    0.29474
   10.1    -0.00000     0.21935     1 1s   -1.12782     1 2px   0.47507     1 2py   0.36693     1 2pz   0.38415     2 1s   -1.08308
                                    2 2px  -0.48298     2 2py  -0.39318     2 2pz  -0.36633     3 1s    0.56563     4 1s    1.08851
                                    5 1s    1.10211     6 1s    0.52202
   11.1    -0.00000     0.28058     1 1s   -1.65610     1 2py  -0.44084     1 2pz   0.51961     2 1s    1.59615     2 2pz   0.42013
                                    3 1s    1.57461     5 1s   -0.26942     6 1s   -1.24815
   12.1    -0.00000     0.31633     1 1s   -0.28131     1 2px   0.38763     1 2py  -1.05911     1 2pz   0.27369     2 1s   -1.31863
                                    2 2px  -0.39756     2 2py   0.91540     2 2pz  -0.56862     3 1s    1.28965     4 1s   -0.65535
                                    6 1s    1.82364
   13.1    -0.00000     0.31972     1 1s   -1.13297     1 2py   0.69892     1 2pz   0.38035     2 1s    0.83826     2 2py   0.25931
                                    2 2py   0.98335     4 1s    1.65278     5 1s   -1.71951     6 1s    0.44188
   14.1    -0.00000     0.42976     1 1s    1.93181     1 2px   1.77551     1 2py  -0.49359     1 2pz  -0.74576     2 1s   -1.84039
                                    2 2px   1.81015     2 2py  -0.56382     2 2pz  -0.71475     3 1s    0.56799     6 1s   -0.69884
   15.1    -0.00000     0.69921     1 2px   0.52855     1 2px  -0.88127     2 2px  -0.54148     2 2px   0.93589     4 1s   -0.25780
                                    4 1s    0.48050     5 1s    0.48645     6 1s   -0.25865
   16.1    -0.00000     0.75428     1 1s   -0.50096     1 2py  -0.26677     1 2px  -0.61282     1 2py   0.55120     2 1s    0.28797
                                    2 2py  -0.45177     2 2px  -0.70474     2 2py   1.03668     3 1s   -0.45591     5 1s   -0.31396
                                    6 1s    0.49746
   17.1    -0.00000     0.78879     1 2py  -0.61301     1 2pz  -0.37230     1 2px  -0.26104     1 2py   1.33697     1 2pz   0.46803
                                    2 1s    0.36306     2 2py   0.48052     2 2py  -1.02173     4 1s    0.34766
   18.1    -0.00000     0.80015     1 1s   -0.36479     1 2pz  -0.66361     1 2pz   0.68287     2 1s    0.33211     2 2pz  -0.77772
                                    2 2py   0.28971     2 2pz   0.83787
   19.1    -0.00000     0.86306     1 1s   -0.31859     1 2px  -0.26794     1 2pz  -0.67968     1 2px   0.54955     1 2py  -0.61248
                                    1 2pz   1.00634     2 1s   -0.30618     2 2pz   0.64073     2 2px  -0.43037     2 2py   0.47896
                                    2 2pz  -1.01635     3 1s    0.29312     6 1s    0.25541
   20.1    -0.00000     0.98060     1 2px   0.71032     1 2py   0.37332     1 2px  -1.06828     1 2py  -0.78832     2 2px   0.71693
                                    2 2py   0.38219     2 2px  -1.07550     2 2py  -0.79598     4 1s   -1.00979     5 1s    1.01366
   21.1    -0.00000     1.09329     1 1s   -0.61696     1 1s    1.09029     1 2px   0.30596     1 2py   0.36838     1 2px  -0.39892
                                    1 2py  -0.35862     2 1s   -0.67245     2 1s    1.24320     2 2px  -0.25275     2 2py  -0.46586
                                    2 2px   0.31873     2 2py   0.49997     4 1s    0.61171     4 1s   -1.07278     5 1s    0.70678
                                    5 1s   -1.23961
   22.1    -0.00000     1.12241     1 2px  -0.30090     1 2py   0.68855     1 2px   0.33150     1 2py  -0.92475     2 2px  -0.26277
                                    2 2py   0.52338     2 2px   0.32614     2 2py  -0.78704     3 1s   -0.41787     3 1s    0.95280
                                    4 1s    0.64306     4 1s   -1.09073     5 1s   -0.54213     5 1s    0.90576     6 1s   -0.65822
   23.1    -0.00000     1.15020     1 1s   -0.58243     1 1s    0.40301     1 2px   0.40927     1 2pz   0.26209     1 2px  -1.00096
                                    1 2py   0.40295     2 1s    0.32525     2 2px  -0.79930     3 1s    0.81471     3 1s   -1.36967
                                    4 1s    0.52312     4 1s   -0.60884     5 1s   -0.50648     5 1s    0.58265     6 1s    0.53305
   24.1    -0.00000     1.20867     1 1s   -0.49845     1 1s    1.31787     1 2px   0.39315     2 1s   -0.41357     2 2px  -0.43849
                                    2 2py   0.43906     2 2px   0.82497     2 2py  -0.65123     3 1s    0.41945     3 1s   -0.37041
                                    6 1s    0.99938     6 1s   -1.43527
   25.1    -0.00000     1.24990     1 1s   -1.11300     1 1s    1.76712     1 2px  -0.61846     1 2py   0.59711     1 2pz  -0.87901
                                    2 1s   -1.39339     2 1s    2.74178     2 2px   0.49966     2 2py  -0.55084     2 2pz   1.10034
                                    3 1s   -0.37740     3 1s   -0.85300     4 1s   -0.37873     4 1s   -0.34613     5 1s   -0.40746
                                    5 1s   -0.45061     6 1s   -0.33557     6 1s   -1.16191
   26.1    -0.00000     1.28116     1 1s   -1.65231     1 1s    5.15038     1 2px   1.19977     1 2py  -0.69309     1 2pz  -1.27027
                                    2 1s    1.55042     2 1s   -4.97351     2 2px   1.23997     2 2py  -0.71181     2 2pz  -1.11968
                                    3 1s   -0.44908     4 1s   -0.26778     4 1s   -0.68015     5 1s    0.57515     6 1s    0.56207
   27.1    -0.00000     1.69033     1 1s    0.61327     1 3d0   0.34414     1 3d2- -0.30093     1 3d2+ -0.32622     2 1s   -0.62059
                                    2 3d0  -0.34205     2 3d2-  0.30129     2 3d2+  0.33095
   28.1    -0.00000     1.91525     1 1s    0.37559     1 1s   -0.93735     1 2pz   0.41323     1 3d0   0.36441     1 3d2+  0.30668
                                    2 1s   -0.33080     2 2px  -0.27042     2 2pz  -0.25383     2 3d0   0.32073     2 3d1+  0.41706
                                    2 3d2+  0.38017     2 3d1-  0.39278     3 1s    0.29593     6 1s    0.28783
   29.1    -0.00000     1.93856     1 1s    1.14548     1 2px   0.34285     1 2pz  -0.25418     1 3d2- -0.31551     1 3d1+  0.46890
                                    1 3d2+  0.25531     1 3d1-  0.43865     2 1s    0.36347     2 1s   -1.47799     2 2px   0.25802
                                    2 2pz  -0.42616     2 3d2-  0.27193     2 3d1+ -0.30617     2 3d1- -0.31090     3 1s   -0.25937
                                    6 1s    0.38350
   30.1    -0.00000     2.18150     1 1s   -0.33307     1 1s    1.60572     1 2px   0.36598     1 2py  -0.26180     1 2pz  -0.42704
                                    1 3d0  -0.54794     1 3d2+ -0.36155     2 1s    0.36397     2 1s   -1.66274     2 2px   0.38491
                                    2 2py  -0.29569     2 2pz  -0.44500     2 3d0   0.59051     2 3d2+  0.35361     3 1s   -0.35534
                                    4 1s   -0.30067     5 1s    0.35198     6 1s    0.34831
   31.1    -0.00000     2.24563     1 1s   -0.49328     1 1s    0.34937     1 2px  -0.26965     1 2px   0.29328     1 3d2- -0.31479
                                    1 3d1+ -0.39330     1 3d2+  0.38171     2 1s   -0.48642     2 1s    0.30399     2 2px   0.26480
                                    2 2px  -0.28255     2 3d2- -0.31651     2 3d1+ -0.39522     2 3d2+  0.39436
   32.1    -0.00000     2.34358     1 2py   0.40732     1 3d0   0.54893     1 3d2- -0.36441     1 3d1- -0.40101     2 2py  -0.34934
                                    2 3d0   0.47808     2 3d2- -0.35836     2 3d1- -0.35033     3 1s   -0.27129     4 1s    0.42513
                                    5 1s    0.34755     6 1s   -0.30732
   33.1    -0.00000     2.57532     1 1s   -0.27712     1 2py   0.25932     1 3d2- -0.57138     1 3d1- -0.55972     2 1s    0.27104
                                    2 2py   0.32646     2 3d2-  0.37934     2 3d1-  0.61884     3 1s   -0.50776     4 1s    0.38549
                                    5 1s   -0.40745     6 1s    0.45682
   34.1    -0.00000     2.63635     1 2py  -0.35389     1 3d2- -0.39336     1 3d2+ -0.52267     1 3d1-  0.56286     2 2py   0.29777
                                    2 3d2- -0.48423     2 3d2+ -0.50845     2 3d1-  0.45410     4 1s   -0.39053     5 1s   -0.31705
   35.1    -0.00000     2.73126     1 3d0   0.40484     1 3d2-  0.38473     1 3d1+ -0.47696     2 3d0   0.41033     2 3d2-  0.56620
                                    2 3d1+ -0.51503     2 3d1-  0.35767     3 1s    0.36293     6 1s    0.59384
   36.1    -0.00000     2.95541     1 1s    1.75349     1 2px   0.42875     1 2px   0.88380     1 2pz  -0.44860     1 3d2- -0.35347
                                    1 3d1+ -0.69311     1 3d2+  0.64434     2 1s   -1.74357     2 2px   0.43091     2 2px   0.88828
                                    2 2py  -0.25384     2 2pz  -0.44629     2 3d2-  0.33473     2 3d1+  0.70587     2 3d2+ -0.63893


 Natural orbital dump (state averaged) at molpro section  2140.2    (Orbital set 2)



 **********************************************************************************************************************************
 DATASETS  * FILE   NREC   LENGTH (MB)   RECORD NAMES
              1      20       31.86       500      610      700      900      950      970     1000      129      960     1100   
                                          VAR    BASINP    GEOM    SYMINP    ZMAT    AOBASIS   BASIS     P2S    ABASIS      S 
                                         1400     1410     1200     1210     1080     1600     1650     1300     1700     1380   
                                           T        V       H0       H01     AOSYM     SMH    MOLCAS    ERIS     OPER     JKOP   

              2       5        5.42       700     1000      520     2100     2140   
                                         GEOM     BASIS   MCVARS     RHF     MCSCF   

 PROGRAMS   *        TOTAL     MULTI    HF-SCF       INT
 CPU TIMES  *         0.75      0.36      0.11      0.18
 REAL TIME  *         2.44 SEC
 DISK USED  *        39.04 MB
 **********************************************************************************************************************************
 Molecular orbitals read from record     2140.2  Type=MCSCF/NATURAL (state averaged)
 Occupation numbers read from record     2140.2  Type=MCSCF/NATURAL (state averaged)
 Orbital energies read from record       2140.2  Type=MCSCF/NATURAL (state averaged)
 Redundancy group numbers read from rec  2140.2  Type=MCSCF/NATURAL (state averaged)

 MULTI/6-31G* energy=    -77.551421294532

           MULTI          HF-SCF
    -77.55142129    -77.84722065
 **********************************************************************************************************************************
 Molpro calculation terminated
