
 Primary working directories    : /scratch.local/johan406.molpro_temp/molpro.4pQW0jCRaT
 Secondary working directories  : /scratch.local/johan406.molpro_temp/molpro.4pQW0jCRaT
 Wavefunction directory         : /home/goodpast/johan406/wfu/
 Main file repository           : /scratch.local/johan406.molpro_temp/molpro.4pQW0jCRaT/

 id        : roweumn

 Nodes     nprocs
 acn09        1

 Using customized tuning parameters: mindgm=1; mindgv=20; mindgc=4; mindgr=1; noblas=0; minvec=7
 default implementation of scratch files=df  


 Variables initialized (934), CPU time= 0.00 sec
                                                                                 !leave this line blank
 
 gprint, orbitals=30
 memory, 125., m
 symmetry, nosym
 nelect=16
 basis=6-31g*
 
 geometry={
 C -0.6247 0.1353 0.2999
 C 0.6372 -0.1906 -0.3578
 H -1.2905 0.9258 -0.1712
 H -0.9604 -0.8638 -0.1344
 H 0.9729 0.8187 0.08
 H 1.2508 -0.9157 0.0777
 }
 
 hf
 {multi,
 closed 7
 occ 9
 wf,spin=0;STATE,3
 }
 
 Commands  initialized (763), CPU time= 0.01 sec, 617 directives.
 Default parameters read. Elapsed time= 0.08 sec

 Checking input...
 Passed
1


                                         ***  PROGRAM SYSTEM MOLPRO  ***
                                       Copyright, TTI GmbH Stuttgart, 2015
                                    Version 2019.2 linked Oct 25 2019 22:50:27


 **********************************************************************************************************************************
 LABEL *                                                                                 
  64 bit serial version                                                                  DATE: 07-Feb-23          TIME: 16:09:49  
 **********************************************************************************************************************************

 SHA1:             8dbd9ae1082e4ce945b0f27595c9eb2d4aa09004
 **********************************************************************************************************************************


 Variable memory set to  125000000 words,  buffer space 

 SETTING NELECT         =        16.00000000                                  
 SETTING BASIS          =    6-31G*
 ZSYMEL=NOSYM


Geometry recognized as XYZ



 Recomputing integrals since basis changed


 Using spherical harmonics

 Library entry C      S 6-31G                selected for orbital group  1
 Library entry C      P 6-31G                selected for orbital group  1
 Library entry C      D 6-31G*               selected for orbital group  1
 Library entry H      S 6-31G                selected for orbital group  2


 PROGRAM * SEWARD (Integral evaluation for generally contracted gaussian basis sets)     Author: Roland Lindh, 1990

 Geometry written to block  1 of record 700


 Point group  C1  



 ATOMIC COORDINATES

 NR  ATOM    CHARGE       X              Y              Z

   1  C       6.00   -1.180511910    0.255679945    0.566728865
   2  C       6.00    1.204133487   -0.360181799   -0.676144007
   3  H       1.00   -2.438691564    1.749508446   -0.323521113
   4  H       1.00   -1.814892970   -1.632345426   -0.253979191
   5  H       1.00    1.838514547    1.547118778    0.151178090
   6  H       1.00    2.363669437   -1.730422212    0.146831720

 Bond lengths in Bohr (Angstrom)

 1-2  2.758722953  1-3  2.146412042  1-4  2.154214670  2-5  2.173636739  2-6  1.974682622
     ( 1.459853318)     ( 1.135832338)     ( 1.139961311)     ( 1.150239027)     ( 1.044957042)

 Bond angles

  1-2-5   83.39134724   1-2-6  118.34136889   2-1-3  118.37246242   2-1-4   83.52647787

  3-1-4  106.22035481   5-2-6  106.19317692

 NUCLEAR CHARGE:                   16
 NUMBER OF PRIMITIVE AOS:          72
 NUMBER OF SYMMETRY AOS:           70
 NUMBER OF CONTRACTIONS:           36   (   36A   )
 NUMBER OF CORE ORBITALS:           2   (    2A   )
 NUMBER OF VALENCE ORBITALS:       12   (   12A   )


 NUCLEAR REPULSION ENERGY   32.38358249

 Eigenvalues of metric

         1 0.925E-02 0.268E-01 0.595E-01 0.645E-01 0.807E-01 0.216E+00 0.237E+00 0.272E+00


 Contracted 2-electron integrals neglected if value below      1.0D-11
 AO integral compression algorithm  1   Integral accuracy      1.0D-11

     1.573 MB (compressed) written to integral file ( 59.2%)


 NUMBER OF SORTED TWO-ELECTRON INTEGRALS:     222111.     BUFFER LENGTH:  32768
 NUMBER OF SEGMENTS:   1  SEGMENT LENGTH:     222111      RECORD LENGTH: 524288

 Memory used in sort:       0.78 MW

 SORT1 READ      284735. AND WROTE      212531. INTEGRALS IN      1 RECORDS. CPU TIME:     0.01 SEC, REAL TIME:     0.00 SEC
 SORT2 READ      212531. AND WROTE      222111. INTEGRALS IN      6 RECORDS. CPU TIME:     0.01 SEC, REAL TIME:     0.02 SEC

 FILE SIZES:   FILE 1:    31.7 MBYTE,  FILE 4:     4.2 MBYTE,   TOTAL:     35.9 MBYTE

 OPERATOR DM      FOR CENTER  0  COORDINATES:    0.000000    0.000000    0.000000


 **********************************************************************************************************************************
 DATASETS  * FILE   NREC   LENGTH (MB)   RECORD NAMES
              1      19       31.13       500      610      700      900      950      970     1000      129      960     1100   
                                          VAR    BASINP    GEOM    SYMINP    ZMAT    AOBASIS   BASIS     P2S    ABASIS      S 
                                         1400     1410     1200     1210     1080     1600     1650     1300     1700   
                                           T        V       H0       H01     AOSYM     SMH    MOLCAS    ERIS     OPER   

 PROGRAMS   *        TOTAL       INT
 CPU TIMES  *         0.27      0.17
 REAL TIME  *         0.45 SEC
 DISK USED  *        36.24 MB
 **********************************************************************************************************************************


 PROGRAM * RHF-SCF (CLOSED SHELL)       Authors: W. Meyer, H.-J. Werner


 NUMBER OF ELECTRONS:       8+    8-    SPACE SYMMETRY=1    SPIN SYMMETRY: Singlet 
 CONVERGENCE THRESHOLDS:    1.00E-05 (Density)    1.00E-07 (Energy)
 MAX. NUMBER OF ITERATIONS:       60
 INTERPOLATION TYPE:            DIIS
 INTERPOLATION STEPS:              2 (START)      1 (STEP)
 LEVEL SHIFTS:                  0.00 (CLOSED)  0.00 (OPEN) 



 Orbital guess generated from atomic densities. Full valence occupancy:    8

 Molecular orbital dump at record        2100.2

 Initial occupancy:   8

 ITERATION    DDIFF          GRAD             ENERGY        2-EL.EN.            DIPOLE MOMENTS         DIIS   ORB.
    1      0.000D+00      0.000D+00       -77.82460369    115.970388   -0.06701    0.05156    0.03558    0    start
    2      0.000D+00      0.711D-02       -77.84276170    114.939334    0.01956   -0.02591   -0.04549    1    diag
    3      0.767D-02      0.241D-02       -77.84487502    115.346601   -0.02773    0.00537    0.02871    2    diag
    4      0.305D-02      0.105D-02       -77.84538883    115.249649    0.01349   -0.02245   -0.02635    3    diag
    5      0.167D-02      0.479D-03       -77.84551099    115.227650   -0.00075   -0.01313   -0.00322    4    diag
    6      0.639D-03      0.231D-03       -77.84559944    115.237523    0.00320   -0.01524   -0.00775    5    diag
    7      0.749D-03      0.102D-03       -77.84562917    115.238764    0.00317   -0.01479   -0.00763    6    diag
    8      0.524D-03      0.296D-04       -77.84563134    115.239806    0.00311   -0.01482   -0.00771    7    diag
    9      0.146D-03      0.856D-05       -77.84563149    115.240000    0.00305   -0.01478   -0.00771    8    diag
   10      0.368D-04      0.246D-05       -77.84563150    115.239978    0.00303   -0.01479   -0.00769    9    orth
   11      0.731D-05      0.556D-06       -77.84563150    115.239982    0.00303   -0.01479   -0.00770    0    orth

 Final occupancy:   8

 !RHF STATE  1.1 Energy               -77.845631499503
 Nuclear energy                        32.38358249
 One-electron energy                 -167.84920489
 Two-electron energy                   57.61999090
 Virial quotient                       -1.00105275
 !RHF STATE  1.1 Dipole moment          0.00303239    -0.01479089    -0.00769510
 Dipole moment /Debye                   0.00770707    -0.03759223    -0.01955771

 ELECTRON ORBITALS
 =================

  Orbital  Occupation    Energy     Coefficients
    1.1     2.00000   -11.26332     1 1s    0.99485
    2.1     2.00000   -11.25547     2 1s    0.99482
    3.1     2.00000    -1.03772     1 1s    0.27635     2 1s    0.28966     2 1s    0.25263
    4.1     2.00000    -0.78568     1 1s   -0.30271     2 1s    0.27852
    5.1     2.00000    -0.62262     1 2py   0.28304     2 2py   0.33034
    6.1     2.00000    -0.56075     1 2px   0.29846     2 2px  -0.29520
    7.1     2.00000    -0.39194     1 2pz   0.30053     1 2pz   0.27929     2 2pz   0.31514     2 2pz   0.29005
    8.1     2.00000    -0.38711     1 2px  -0.26460     2 2px   0.28061     4 1s    0.28254     5 1s    0.28693
    9.1     0.00000     0.06311     1 1s    0.41670     1 2pz   0.32762     1 2pz   0.46116     2 1s    0.37811     2 2pz  -0.33327
                                    2 2pz  -0.47543
   10.1     0.00000     0.23115     1 1s   -1.14363     1 2px   0.47778     1 2py   0.33761     1 2pz   0.45323     2 1s   -1.05004
                                    2 2px  -0.48940     2 2py  -0.38295     2 2pz  -0.41719     3 1s    0.62469     4 1s    1.07145
                                    5 1s    1.09191     6 1s    0.53568
   11.1     0.00000     0.28051     1 1s   -1.51582     1 2py  -0.58933     1 2pz   0.52361     2 1s    1.46646     2 2pz   0.35624
                                    3 1s    1.63328     6 1s   -1.13338
   12.1     0.00000     0.31494     1 2px   0.43255     1 2py  -0.88462     1 2pz   0.29379     2 1s   -1.31061     2 2px  -0.35817
                                    2 2py   1.09013     2 2pz  -0.59483     3 1s    1.09355     4 1s   -0.39718     5 1s   -0.41379
                                    6 1s    2.00442
   13.1     0.00000     0.33527     1 1s   -1.07330     1 2px   0.28913     1 2py   0.77970     1 2pz   0.32310     2 1s    1.04040
                                    2 2px   0.28075     2 2py   0.73750     2 2pz   0.31666     4 1s    1.73119     5 1s   -1.66219
   14.1     0.00000     0.42366     1 1s    2.09090     1 2px   1.75303     1 2py  -0.58218     1 2pz  -0.81188     2 1s   -1.94428
                                    2 2px   1.80893     2 2py  -0.69075     2 2pz  -0.76093     3 1s    0.53644     6 1s   -0.74091
   15.1     0.00000     0.70242     1 2px   0.53745     1 2px  -0.88968     2 2px  -0.56121     2 2px   0.97902     4 1s    0.42145
                                    5 1s    0.42722     6 1s   -0.27885
   16.1     0.00000     0.75600     1 1s   -0.42182     1 2px  -0.55256     1 2py   0.39561     2 2py  -0.50576     2 2px  -0.64439
                                    2 2py   1.12315     3 1s   -0.44320     5 1s   -0.31878     6 1s    0.50001     6 1s    0.26927
   17.1     0.00000     0.79021     1 2py  -0.65300     1 2pz  -0.44505     1 2px  -0.25236     1 2py   1.36956     1 2pz   0.48111
                                    2 1s    0.40652     2 2py   0.44174     2 2py  -0.91406     4 1s    0.36607
   18.1     0.00000     0.80045     1 2pz  -0.61911     1 2pz   0.57502     2 2pz  -0.79926     2 2py   0.36666     2 2pz   0.77565
   19.1     0.00000     0.86528     1 1s   -0.36575     1 1s    0.29586     1 2px  -0.26242     1 2pz  -0.70681     1 2px   0.53713
                                    1 2py  -0.63883     1 2pz   0.94199     2 1s   -0.34559     2 2pz   0.65749     2 2px  -0.36729
                                    2 2py   0.44406     2 2pz  -0.96076
   20.1     0.00000     0.97383     1 1s   -0.25402     1 2px   0.71131     1 2py   0.36547     1 2px  -1.14676     1 2py  -0.76914
                                    2 2px   0.72080     2 2py   0.37676     2 2px  -1.15676     2 2py  -0.77735     4 1s   -1.04767
                                    5 1s    1.04672
   21.1     0.00000     1.11875     1 1s   -0.69282     1 1s    1.13487     1 2px   0.37051     1 2px  -0.56357     2 1s   -0.71899
                                    2 1s    1.40221     2 2py  -0.51094     2 2py   0.59555     2 2pz   0.25394     3 1s   -0.38613
                                    4 1s    0.55456     4 1s   -0.98091     5 1s    0.70798     5 1s   -1.32322
   22.1     0.00000     1.12338     1 2px   0.41211     1 2py  -0.70243     1 2px  -0.70460     1 2py   0.98994     2 2px   0.31087
                                    2 2py  -0.25428     2 2px  -0.67774     2 2py   0.59175     3 1s    0.86326     3 1s   -1.57243
                                    4 1s   -0.32086     4 1s    0.69056     6 1s    0.73565
   23.1     0.00000     1.17267     1 1s   -0.60617     1 1s    0.69032     1 2py   0.25114     1 2pz   0.29354     1 2px  -0.50587
                                    2 2py   0.43464     2 2py  -0.42315     3 1s    0.43960     3 1s   -0.56489     4 1s    0.77321
                                    4 1s   -1.11726     5 1s   -0.68935     5 1s    0.95563     6 1s   -0.28273
   24.1     0.00000     1.21954     1 1s   -0.49151     1 1s    1.52088     1 2px   0.53975     1 2pz  -0.29514     2 1s   -0.43941
                                    2 2px  -0.44639     2 2py   0.40568     2 2pz  -0.25671     2 2px   1.01086     2 2py  -0.70722
                                    4 1s   -0.26142     5 1s    0.32325     6 1s    0.98380     6 1s   -1.51000
   25.1     0.00000     1.25856     1 1s   -0.97558     1 1s    1.37910     1 2px  -0.65506     1 2py   0.61972     1 2pz  -0.80416
                                    2 1s   -1.41371     2 1s    2.93857     2 2px   0.41817     2 2py  -0.49416     2 2pz   1.16566
                                    3 1s   -0.39073     3 1s   -0.76409     4 1s   -0.40017     5 1s   -0.45310     5 1s   -0.43163
                                    6 1s   -0.35819     6 1s   -1.17482
   26.1     0.00000     1.28856     1 1s   -1.67117     1 1s    5.13916     1 2px   1.14178     1 2py  -0.69732     1 2pz  -1.31151
                                    2 1s    1.50230     2 1s   -4.84986     2 2px   1.20635     2 2py  -0.73319     2 2pz  -1.08024
                                    3 1s   -0.43519     4 1s   -0.26985     4 1s   -0.73538     5 1s    0.58552     6 1s    0.57667
   27.1     0.00000     1.69558     1 1s    0.58406     1 3d0   0.35113     1 3d2- -0.29655     1 3d2+ -0.32301     2 1s   -0.59648
                                    2 3d0  -0.34758     2 3d2-  0.29751     2 3d2+  0.33042
   28.1     0.00000     1.91646     1 1s    0.40611     1 1s   -1.04156     1 2pz   0.43876     1 3d0   0.36546     1 3d2+  0.28247
                                    2 2px  -0.29411     2 3d0   0.30657     2 3d1+  0.44146     2 3d2+  0.37766     2 3d1-  0.41664
                                    3 1s    0.31519     6 1s    0.29170
   29.1     0.00000     1.94297     1 1s    1.08206     1 2px   0.35714     1 3d2- -0.31505     1 3d1+  0.48767     1 3d2+  0.27406
                                    1 3d1-  0.45356     2 1s    0.38903     2 1s   -1.54203     2 2pz  -0.45900     2 3d2-  0.26033
                                    2 3d1+ -0.26483     2 3d1- -0.28444     5 1s    0.25327     6 1s    0.39713
   30.1     0.00000     2.18060     1 1s   -0.31518     1 1s    1.59134     1 2px   0.36332     1 2py  -0.25012     1 2pz  -0.42373
                                    1 3d0  -0.53268     1 3d2+ -0.36349     2 1s    0.37050     2 1s   -1.68541     2 2px   0.39436
                                    2 2py  -0.30002     2 2pz  -0.45569     2 3d0   0.59607     2 3d2+  0.34543     3 1s   -0.35605
                                    4 1s   -0.29309     5 1s    0.36666     6 1s    0.34771
   31.1     0.00000     2.25014     1 1s   -0.50409     1 1s    0.38368     1 2px  -0.26360     1 2px   0.31035     1 3d2- -0.30365
                                    1 3d1+ -0.38579     1 3d2+  0.37590     2 1s   -0.48565     2 1s    0.26012     2 2px   0.25668
                                    2 2px  -0.28007     2 3d2- -0.30314     2 3d1+ -0.38513     2 3d2+  0.40221
   32.1     0.00000     2.34982     1 2py   0.40182     1 3d0   0.56224     1 3d2- -0.36957     1 3d1- -0.39714     2 2py  -0.32073
                                    2 3d0   0.46331     2 3d2- -0.36228     2 3d1- -0.32541     3 1s   -0.25040     4 1s    0.45260
                                    5 1s    0.34068     6 1s   -0.30131
   33.1     0.00000     2.57729     1 1s   -0.30674     1 3d2- -0.60286     1 3d1+  0.28267     1 3d1- -0.54532     2 1s    0.29156
                                    2 2py   0.33057     2 3d2-  0.31953     2 3d1-  0.60877     3 1s   -0.50666     4 1s    0.39254
                                    5 1s   -0.40715     6 1s    0.42184
   34.1     0.00000     2.64495     1 2py  -0.35741     1 3d2- -0.36348     1 3d2+ -0.53157     1 3d1-  0.57831     2 2py   0.28539
                                    2 3d2- -0.47492     2 3d2+ -0.51483     2 3d1-  0.44336     4 1s   -0.41383     5 1s   -0.31938
   35.1     0.00000     2.73250     1 3d0   0.38857     1 3d2-  0.34814     1 3d1+ -0.45170     2 3d0   0.39233     2 3d2-  0.62630
                                    2 3d1+ -0.51505     2 3d1-  0.39905     3 1s    0.30913     5 1s   -0.25539     6 1s    0.66217
   36.1     0.00000     2.95974     1 1s    1.72394     1 2px   0.43482     1 2px   0.87036     1 2pz  -0.44085     1 3d2- -0.35914
                                    1 3d1+ -0.68773     1 3d2+  0.64810     2 1s   -1.70941     2 2px   0.43801     2 2px   0.87706
                                    2 2pz  -0.43727     2 3d2-  0.33154     2 3d1+  0.70608     2 3d2+ -0.64026


 HOMO      8.1    -0.387112 =     -10.5339eV
 LUMO      9.1     0.063106 =       1.7172eV
 LUMO-HOMO         0.450218 =      12.2511eV


 **********************************************************************************************************************************
 DATASETS  * FILE   NREC   LENGTH (MB)   RECORD NAMES
              1      19       31.13       500      610      700      900      950      970     1000      129      960     1100   
                                          VAR    BASINP    GEOM    SYMINP    ZMAT    AOBASIS   BASIS     P2S    ABASIS      S 
                                         1400     1410     1200     1210     1080     1600     1650     1300     1700   
                                           T        V       H0       H01     AOSYM     SMH    MOLCAS    ERIS     OPER   

              2       4        2.86       700     1000      520     2100   
                                         GEOM     BASIS   MCVARS     RHF  

 PROGRAMS   *        TOTAL    HF-SCF       INT
 CPU TIMES  *         0.37      0.10      0.17
 REAL TIME  *         0.66 SEC
 DISK USED  *        36.24 MB
 **********************************************************************************************************************************


 PROGRAM * MULTI (Direct Multiconfiguration SCF)       Authors: P.J. Knowles, H.-J. Werner (1984)


 Number of closed-shell orbitals:   7 (   7 )
 Number of active  orbitals:        2 (   2 )
 Number of external orbitals:      27 (  27 )

 State symmetry 1

 Number of electrons:     2    Spin symmetry=Singlet   Space symmetry=1
 Number of states:        3
 Number of CSFs:          3   (4 determinants, 4 intermediate states)

 Molecular orbitals read from record     2100.2  Type=RHF/CANONICAL (state 1.1)

 Wavefunction dump at record             2140.2

 Convergence thresholds  0.10E-01 (gradient)  0.10E-05 (energy)  0.10E-02 (step length)

 Weight factors for state symmetry  1:    0.33333   0.33333   0.33333

 Number of orbital rotations:      257   (    14 Core/Active    189 Core/Virtual   0 Active/Active     54 Active/Virtual)
 Total number of variables:        269

 Micro-Iterations solved by the two-step solver

 ITER. MIC  NCI  NEG     ENERGY(VAR)     ENERGY(PROJ)   ENERGY CHANGE     GRAD(0)  GRAD(ORB)   GRAD(CI)     STEP       TIME

   1   12    6    0     -77.68871145     -77.70876102   -0.02004957    0.16669685 0.00169439 0.00000000  0.14D+00      0.16
   2    7    5    0     -77.70843506     -77.70846372   -0.00002866    0.00787747 0.00001091 0.00000000  0.54D-02      0.26
   3    8    5    0     -77.70846377     -77.70846377   -0.00000000    0.00001968 0.00000000 0.00000000  0.24D-04      0.37

 ** WVFN ****  CONVERGENCE REACHED, FINAL GRADIENT:  0.24D-09



 Results for state 1.1
 =====================

 !MCSCF STATE  1.1 Energy             -77.839249180449
 Nuclear energy                        32.38358249
 Kinetic energy                        77.81959718
 One electron energy                 -167.92573618
 Two electron energy                   57.70290451
 Virial ratio                           2.00025253

 !MCSCF STATE  1.1 Dipole moment       -0.00152067    -0.01456708    -0.00776937
 Dipole moment /Debye                  -0.00386489    -0.03702340    -0.01974648

 Results for state 2.1
 =====================

 !MCSCF STATE  2.1 Energy             -77.736147753559
 Nuclear energy                        32.38358249
 Kinetic energy                        77.89548923
 One electron energy                 -167.62104111
 Two electron energy                   57.50131087
 Virial ratio                           1.99795442

 !MCSCF STATE  2.1 Dipole moment        0.01643935    -0.01275290    -0.00119147
 Dipole moment /Debye                   0.04178193    -0.03241251    -0.00302823

 Results for state 3.1
 =====================

 !MCSCF STATE  3.1 Energy             -77.549994386958
 Nuclear energy                        32.38358249
 Kinetic energy                        77.95708968
 One electron energy                 -167.36299833
 Two electron energy                   57.42942145
 Virial ratio                           1.99477796

 !MCSCF STATE  3.1 Dipole moment        0.03968442    -0.01388250     0.00659030
 Dipole moment /Debye                   0.10086112    -0.03528349     0.01674977

 State-averaged charge density matrix saved on record  2140.2 (density set 1)

 !MCSCF expec         <1.1|DMX|1.1>    -0.001520665552 au =    -0.003864893153 Debye
 !MCSCF trans         <2.1|DMX|1.1>     0.012206246077 au =     0.031023150905 Debye
 !MCSCF expec         <2.1|DMX|2.1>     0.016439354546 au =     0.041781934726 Debye
 !MCSCF trans         <3.1|DMX|1.1>    -0.001068503827 au =    -0.002715687956 Debye
 !MCSCF trans         <3.1|DMX|2.1>     0.011832268164 au =     0.030072656119 Debye
 !MCSCF expec         <3.1|DMX|3.1>     0.039684415222 au =     0.100861116040 Debye

 !MCSCF expec         <1.1|DMY|1.1>    -0.014567080593 au =    -0.037023400694 Debye
 !MCSCF trans         <2.1|DMY|1.1>    -0.006344245057 au =    -0.016124406353 Debye
 !MCSCF expec         <2.1|DMY|2.1>    -0.012752898531 au =    -0.032412511850 Debye
 !MCSCF trans         <3.1|DMY|1.1>    -0.000525282841 au =    -0.001335048363 Debye
 !MCSCF trans         <3.1|DMY|2.1>    -0.007004217212 au =    -0.017801778381 Debye
 !MCSCF expec         <3.1|DMY|3.1>    -0.013882501183 au =    -0.035283487357 Debye

 !MCSCF expec         <1.1|DMZ|1.1>    -0.007769372382 au =    -0.019746481459 Debye
 !MCSCF trans         <2.1|DMZ|1.1>     0.002876122682 au =     0.007309895886 Debye
 !MCSCF expec         <2.1|DMZ|2.1>    -0.001191474035 au =    -0.003028226579 Debye
 !MCSCF trans         <3.1|DMZ|1.1>    -0.000479163303 au =    -0.001217831868 Debye
 !MCSCF trans         <3.1|DMZ|2.1>     0.002608226444 au =     0.006629016166 Debye
 !MCSCF expec         <3.1|DMZ|3.1>     0.006590298034 au =     0.016749769678 Debye


 NATURAL ORBITALS (state averaged)
 =================================

  Orbital  Occupation    Energy     Coefficients
    1.1     2.00000   -11.25821     1 1s    0.99522
    2.1     2.00000   -11.25013     2 1s    0.99519
    3.1     2.00000    -1.05042     1 1s    0.27220     2 1s    0.28375
    4.1     2.00000    -0.78660     1 1s   -0.32595     2 1s    0.30533
    5.1     2.00000    -0.62570     1 2py   0.27342     2 2py   0.32723
    6.1     2.00000    -0.55904     1 2px   0.26025     1 2py  -0.26421     2 2px  -0.25391
    7.1     2.00000    -0.41940     1 2pz   0.32374     1 2pz   0.27904     2 2pz   0.32634     2 2pz   0.28213
    8.1     1.00000    -0.08700     1 1s    0.27732     1 2pz   0.40244     1 2pz   0.42605     2 1s    0.25658     2 2pz  -0.40643
                                    2 2pz  -0.43296
    9.1     1.00000    -0.23071     1 2px  -0.30998     2 2px   0.31050     4 1s    0.29373     5 1s    0.29495
   10.1    -0.00000     0.21918     1 1s   -1.13884     1 2px   0.47329     1 2py   0.35764     1 2pz   0.38923     2 1s   -1.07183
                                    2 2px  -0.48504     2 2py  -0.39706     2 2pz  -0.36255     3 1s    0.57917     4 1s    1.08295
                                    5 1s    1.10331     6 1s    0.51370
   11.1    -0.00000     0.27961     1 1s   -1.62647     1 2py  -0.50459     1 2pz   0.53001     2 1s    1.54742     2 2pz   0.38819
                                    3 1s    1.61555     5 1s   -0.30685     6 1s   -1.14992
   12.1    -0.00000     0.31703     1 2px   0.36217     1 2py  -1.10504     2 1s   -1.57925     2 2px  -0.39461     2 2py   0.79585
                                    2 2pz  -0.63412     3 1s    1.13807     4 1s   -0.86626     6 1s    1.87594
   13.1    -0.00000     0.31983     1 1s   -1.13063     1 2px   0.27701     1 2py   0.57044     1 2pz   0.40247     2 1s    0.60534
                                    2 2py   0.27986     2 2py   1.09176     4 1s    1.56615     5 1s   -1.70197     6 1s    0.70810
   14.1    -0.00000     0.42981     1 1s    1.94893     1 2px   1.76676     1 2py  -0.47741     1 2pz  -0.75223     2 1s   -1.81134
                                    2 2px   1.81867     2 2py  -0.58265     2 2pz  -0.70569     3 1s    0.54025     6 1s   -0.73685
   15.1    -0.00000     0.69911     1 2px   0.52510     1 2px  -0.86966     2 2px  -0.54473     2 2px   0.95249     4 1s   -0.26065
                                    4 1s    0.47769     5 1s    0.48649     6 1s   -0.27643
   16.1    -0.00000     0.75304     1 1s   -0.52308     1 2px  -0.58236     1 2py   0.42888     2 2py  -0.48463     2 2px  -0.71245
                                    2 2py   1.12822     3 1s   -0.44068     5 1s   -0.33456     6 1s    0.49950     6 1s    0.26147
   17.1    -0.00000     0.78929     1 2py  -0.62246     1 2pz  -0.43105     1 2px  -0.29413     1 2py   1.35947     1 2pz   0.55335
                                    2 1s    0.43328     2 2py   0.43349     2 2py  -0.90742     4 1s    0.36861
   18.1    -0.00000     0.80046     1 1s   -0.34620     1 2pz  -0.62071     1 2pz   0.62150     2 1s    0.29981     2 2pz  -0.79558
                                    2 2py   0.36030     2 2pz   0.86074
   19.1    -0.00000     0.86341     1 1s   -0.32258     1 2px  -0.27569     1 2pz  -0.68630     1 2px   0.57762     1 2py  -0.64836
                                    1 2pz   0.99757     2 1s   -0.30399     2 2pz   0.62802     2 2px  -0.39868     2 2py   0.44782
                                    2 2pz  -1.01272     3 1s    0.29901
   20.1    -0.00000     0.98052     1 2px   0.70814     1 2py   0.37119     1 2px  -1.06637     1 2py  -0.78636     2 2px   0.71809
                                    2 2py   0.38453     2 2px  -1.07720     2 2py  -0.79792     4 1s   -1.00843     5 1s    1.01428
   21.1    -0.00000     1.09297     1 1s   -0.60635     1 1s    1.05415     1 2px   0.32250     1 2py   0.33719     1 2px  -0.42279
                                    1 2py  -0.31614     2 1s   -0.68636     2 1s    1.27872     2 2py  -0.48748     2 2px   0.29419
                                    2 2py   0.53531     4 1s    0.58495     4 1s   -1.02497     5 1s    0.72805     5 1s   -1.27637
   22.1    -0.00000     1.12009     1 2px   0.34995     1 2py  -0.72230     1 2px  -0.43986     1 2py   0.97055     2 2px   0.27920
                                    2 2py  -0.45825     2 2px  -0.41952     2 2py   0.75086     3 1s    0.56902     3 1s   -1.16652
                                    4 1s   -0.58529     4 1s    1.01747     5 1s    0.43213     5 1s   -0.74049     6 1s    0.66529
   23.1    -0.00000     1.14353     1 1s   -0.63902     1 1s    0.56452     1 2px   0.35821     1 2pz   0.27548     1 2px  -0.89822
                                    2 1s    0.26790     2 2px  -0.66973     3 1s    0.75922     3 1s   -1.21663     4 1s    0.61072
                                    4 1s   -0.79639     5 1s   -0.57063     5 1s    0.71992     6 1s    0.31957
   24.1    -0.00000     1.21996     1 1s   -0.51914     1 1s    1.59199     1 2px   0.59408     1 2py  -0.28675     1 2pz  -0.25602
                                    2 1s   -0.45146     2 2px  -0.45918     2 2py   0.45374     2 2px   0.96425     2 2py  -0.73326
                                    3 1s    0.33512     6 1s    1.02095     6 1s   -1.40095
   25.1    -0.00000     1.24987     1 1s   -1.08841     1 1s    1.66621     1 2px  -0.61169     1 2py   0.59150     1 2pz  -0.84972
                                    2 1s   -1.45176     2 1s    2.90584     2 2px   0.52559     2 2py  -0.58095     2 2pz   1.12853
                                    3 1s   -0.36517     3 1s   -0.80846     4 1s   -0.37832     4 1s   -0.32824     5 1s   -0.40208
                                    5 1s   -0.46020     6 1s   -0.27610     6 1s   -1.30095
   26.1    -0.00000     1.28288     1 1s   -1.64313     1 1s    5.07578     1 2px   1.15049     1 2py  -0.66623     1 2pz  -1.27482
                                    2 1s    1.53629     2 1s   -4.89026     2 2px   1.18879     2 2py  -0.67073     2 2pz  -1.07676
                                    3 1s   -0.42680     4 1s   -0.26686     4 1s   -0.69369     5 1s    0.54655     6 1s    0.64884
   27.1    -0.00000     1.69027     1 1s    0.61203     1 3d0   0.34463     1 3d2- -0.30076     1 3d2+ -0.32516     2 1s   -0.62315
                                    2 3d0  -0.34148     2 3d2-  0.30132     2 3d2+  0.33228
   28.1    -0.00000     1.91364     1 1s    0.39551     1 1s   -1.02643     1 2pz   0.43154     1 3d0   0.36308     1 3d2+  0.28655
                                    2 2px  -0.29522     2 3d0   0.30331     2 3d1+  0.44023     2 3d2+  0.38568     2 3d1-  0.41689
                                    3 1s    0.31666     6 1s    0.28975
   29.1    -0.00000     1.93989     1 1s    1.05017     1 2px   0.34847     1 3d2- -0.31533     1 3d1+  0.48966     1 3d2+  0.27958
                                    1 3d1-  0.45338     2 1s    0.37876     2 1s   -1.50653     2 2pz  -0.44903     2 3d2-  0.25411
                                    2 3d1+ -0.26715     2 3d1- -0.28107     6 1s    0.39916
   30.1    -0.00000     2.18072     1 1s   -0.32331     1 1s    1.58312     1 2px   0.35924     1 2py  -0.25194     1 2pz  -0.42022
                                    1 3d0  -0.53597     1 3d2+ -0.36288     2 1s    0.36935     2 1s   -1.66834     2 2px   0.38738
                                    2 2py  -0.30241     2 2pz  -0.44714     2 3d0   0.59938     2 3d2+  0.35112     3 1s   -0.35593
                                    4 1s   -0.28630     5 1s    0.36285     6 1s    0.34572
   31.1    -0.00000     2.24540     1 1s   -0.49493     1 1s    0.36040     1 2px  -0.27050     1 2px   0.29536     1 3d2- -0.31505
                                    1 3d1+ -0.39262     1 3d2+  0.37842     2 1s   -0.48486     2 1s    0.29339     2 2px   0.26320
                                    2 2px  -0.27942     2 3d2- -0.31772     2 3d1+ -0.39555     2 3d2+  0.39723
   32.1    -0.00000     2.34385     1 2px  -0.25384     1 2py   0.42025     1 3d0   0.56550     1 3d2- -0.36496     1 3d1- -0.41212
                                    2 2py  -0.33353     2 3d0   0.45981     2 3d2- -0.35572     2 3d1- -0.33622     3 1s   -0.26219
                                    4 1s    0.44295     5 1s    0.32701     6 1s   -0.31599
   33.1    -0.00000     2.57238     1 1s   -0.28808     1 3d2- -0.60116     1 3d1+  0.27068     1 3d1- -0.53744     2 1s    0.27618
                                    2 2py   0.33808     2 3d2-  0.32926     2 3d1-  0.62087     3 1s   -0.50444     4 1s    0.37611
                                    5 1s   -0.40603     6 1s    0.43495
   34.1    -0.00000     2.63677     1 2py  -0.36467     1 3d2- -0.36503     1 3d2+ -0.52743     1 3d1-  0.58493     2 2py   0.28697
                                    2 3d2- -0.48782     2 3d2+ -0.50791     2 3d1-  0.43710     4 1s   -0.40686     5 1s   -0.30611
   35.1    -0.00000     2.73676     1 3d0   0.39499     1 3d2-  0.34443     1 3d1+ -0.46253     2 3d0   0.40462     2 3d2-  0.60969
                                    2 3d1+ -0.51665     2 3d1-  0.39201     3 1s    0.31450     6 1s    0.65378
   36.1    -0.00000     2.95533     1 1s    1.75440     1 2px   0.42851     1 2px   0.88238     1 2pz  -0.44876     1 3d2- -0.35738
                                    1 3d1+ -0.68997     1 3d2+  0.64549     2 1s   -1.73933     2 2px   0.43187     2 2px   0.88928
                                    2 2py  -0.25654     2 2pz  -0.44525     2 3d2-  0.32870     2 3d1+  0.70959     2 3d2+ -0.63737


 Natural orbital dump (state averaged) at molpro section  2140.2    (Orbital set 2)



 **********************************************************************************************************************************
 DATASETS  * FILE   NREC   LENGTH (MB)   RECORD NAMES
              1      20       31.86       500      610      700      900      950      970     1000      129      960     1100   
                                          VAR    BASINP    GEOM    SYMINP    ZMAT    AOBASIS   BASIS     P2S    ABASIS      S 
                                         1400     1410     1200     1210     1080     1600     1650     1300     1700     1380   
                                           T        V       H0       H01     AOSYM     SMH    MOLCAS    ERIS     OPER     JKOP   

              2       5        5.42       700     1000      520     2100     2140   
                                         GEOM     BASIS   MCVARS     RHF     MCSCF   

 PROGRAMS   *        TOTAL     MULTI    HF-SCF       INT
 CPU TIMES  *         0.80      0.42      0.10      0.17
 REAL TIME  *         1.23 SEC
 DISK USED  *        39.04 MB
 **********************************************************************************************************************************
 Molecular orbitals read from record     2140.2  Type=MCSCF/NATURAL (state averaged)
 Occupation numbers read from record     2140.2  Type=MCSCF/NATURAL (state averaged)
 Orbital energies read from record       2140.2  Type=MCSCF/NATURAL (state averaged)
 Redundancy group numbers read from rec  2140.2  Type=MCSCF/NATURAL (state averaged)

 MULTI/6-31G* energy=    -77.549994386958

           MULTI          HF-SCF
    -77.54999439    -77.84563150
 **********************************************************************************************************************************
 Molpro calculation terminated
