
 Primary working directories    : /scratch.local/johan406.molpro_temp/molpro.Lgc8MMibjh
 Secondary working directories  : /scratch.local/johan406.molpro_temp/molpro.Lgc8MMibjh
 Wavefunction directory         : /home/goodpast/johan406/wfu/
 Main file repository           : /scratch.local/johan406.molpro_temp/molpro.Lgc8MMibjh/

 id        : roweumn

 Nodes     nprocs
 acn09        1

 Using customized tuning parameters: mindgm=1; mindgv=20; mindgc=4; mindgr=1; noblas=0; minvec=7
 default implementation of scratch files=df  


 Variables initialized (934), CPU time= 0.01 sec
                                                                                 !leave this line blank
 
 gprint, orbitals=30
 memory, 125., m
 symmetry, nosym
 nelect=16
 basis=6-31g*
 
 geometry={
 C -0.6231 0.1332 0.3009
 C 0.6387 -0.1932 -0.3568
 H -1.3108 0.9513 -0.1852
 H -0.9588 -0.8617 -0.1318
 H 0.9745 0.8208 0.0826
 H 1.229 -0.8892 0.0631
 }
 
 hf
 {multi,
 closed 7
 occ 9
 wf,spin=0;STATE,3
 }
 
 Commands  initialized (763), CPU time= 0.01 sec, 617 directives.
 Default parameters read. Elapsed time= 0.08 sec

 Checking input...
 Passed
1


                                         ***  PROGRAM SYSTEM MOLPRO  ***
                                       Copyright, TTI GmbH Stuttgart, 2015
                                    Version 2019.2 linked Oct 25 2019 22:50:27


 **********************************************************************************************************************************
 LABEL *                                                                                 
  64 bit serial version                                                                  DATE: 07-Feb-23          TIME: 16:10:53  
 **********************************************************************************************************************************

 SHA1:             8dbd9ae1082e4ce945b0f27595c9eb2d4aa09004
 **********************************************************************************************************************************


 Variable memory set to  125000000 words,  buffer space 

 SETTING NELECT         =        16.00000000                                  
 SETTING BASIS          =    6-31G*
 ZSYMEL=NOSYM


Geometry recognized as XYZ



 Recomputing integrals since basis changed


 Using spherical harmonics

 Library entry C      S 6-31G                selected for orbital group  1
 Library entry C      P 6-31G                selected for orbital group  1
 Library entry C      D 6-31G*               selected for orbital group  1
 Library entry H      S 6-31G                selected for orbital group  2


 PROGRAM * SEWARD (Integral evaluation for generally contracted gaussian basis sets)     Author: Roland Lindh, 1990

 Geometry written to block  1 of record 700


 Point group  C1  



 ATOMIC COORDINATES

 NR  ATOM    CHARGE       X              Y              Z

   1  C       6.00   -1.177488348    0.251711520    0.568618591
   2  C       6.00    1.206968076   -0.365095087   -0.674254281
   3  H       1.00   -2.477053004    1.797696462   -0.349977278
   4  H       1.00   -1.811869408   -1.628377002   -0.249065903
   5  H       1.00    1.841538108    1.551087203    0.156091378
   6  H       1.00    2.322473407   -1.680344470    0.119241718

 Bond lengths in Bohr (Angstrom)

 1-2  2.758770705  1-3  2.218728489  1-4  2.146108131  2-5  2.182637764  2-6  1.898385889
     ( 1.459878587)     ( 1.174100554)     ( 1.135671515)     ( 1.155002165)     ( 1.004582550)

 Bond angles

  1-2-5   83.31626256   1-2-6  118.32502173   2-1-3  118.39311395   2-1-4   83.56776920

  3-1-4  106.23251857   5-2-6  106.16427560

 NUCLEAR CHARGE:                   16
 NUMBER OF PRIMITIVE AOS:          72
 NUMBER OF SYMMETRY AOS:           70
 NUMBER OF CONTRACTIONS:           36   (   36A   )
 NUMBER OF CORE ORBITALS:           2   (    2A   )
 NUMBER OF VALENCE ORBITALS:       12   (   12A   )


 NUCLEAR REPULSION ENERGY   32.41715367

 Eigenvalues of metric

         1 0.922E-02 0.258E-01 0.595E-01 0.648E-01 0.820E-01 0.212E+00 0.237E+00 0.271E+00


 Contracted 2-electron integrals neglected if value below      1.0D-11
 AO integral compression algorithm  1   Integral accuracy      1.0D-11

     1.573 MB (compressed) written to integral file ( 59.2%)


 NUMBER OF SORTED TWO-ELECTRON INTEGRALS:     222111.     BUFFER LENGTH:  32768
 NUMBER OF SEGMENTS:   1  SEGMENT LENGTH:     222111      RECORD LENGTH: 524288

 Memory used in sort:       0.78 MW

 SORT1 READ      284735. AND WROTE      212531. INTEGRALS IN      1 RECORDS. CPU TIME:     0.00 SEC, REAL TIME:     0.01 SEC
 SORT2 READ      212531. AND WROTE      222111. INTEGRALS IN      6 RECORDS. CPU TIME:     0.02 SEC, REAL TIME:     0.02 SEC

 FILE SIZES:   FILE 1:    31.7 MBYTE,  FILE 4:     4.2 MBYTE,   TOTAL:     35.9 MBYTE

 OPERATOR DM      FOR CENTER  0  COORDINATES:    0.000000    0.000000    0.000000


 **********************************************************************************************************************************
 DATASETS  * FILE   NREC   LENGTH (MB)   RECORD NAMES
              1      19       31.13       500      610      700      900      950      970     1000      129      960     1100   
                                          VAR    BASINP    GEOM    SYMINP    ZMAT    AOBASIS   BASIS     P2S    ABASIS      S 
                                         1400     1410     1200     1210     1080     1600     1650     1300     1700   
                                           T        V       H0       H01     AOSYM     SMH    MOLCAS    ERIS     OPER   

 PROGRAMS   *        TOTAL       INT
 CPU TIMES  *         0.28      0.18
 REAL TIME  *         0.43 SEC
 DISK USED  *        36.24 MB
 **********************************************************************************************************************************


 PROGRAM * RHF-SCF (CLOSED SHELL)       Authors: W. Meyer, H.-J. Werner


 NUMBER OF ELECTRONS:       8+    8-    SPACE SYMMETRY=1    SPIN SYMMETRY: Singlet 
 CONVERGENCE THRESHOLDS:    1.00E-05 (Density)    1.00E-07 (Energy)
 MAX. NUMBER OF ITERATIONS:       60
 INTERPOLATION TYPE:            DIIS
 INTERPOLATION STEPS:              2 (START)      1 (STEP)
 LEVEL SHIFTS:                  0.00 (CLOSED)  0.00 (OPEN) 



 Orbital guess generated from atomic densities. Full valence occupancy:    8

 Molecular orbital dump at record        2100.2

 Initial occupancy:   8

 ITERATION    DDIFF          GRAD             ENERGY        2-EL.EN.            DIPOLE MOMENTS         DIIS   ORB.
    1      0.000D+00      0.000D+00       -77.81665542    116.030434   -0.12623    0.09720    0.06747    0    start
    2      0.000D+00      0.727D-02       -77.83520366    114.975963    0.03669   -0.04861   -0.08547    1    diag
    3      0.798D-02      0.273D-02       -77.83748206    115.362481   -0.04747    0.00712    0.04647    2    diag
    4      0.326D-02      0.135D-02       -77.83818353    115.309695    0.01396   -0.03435   -0.03415    3    diag
    5      0.182D-02      0.542D-03       -77.83833663    115.266248    0.00156   -0.02654   -0.01092    4    diag
    6      0.747D-03      0.229D-03       -77.83842907    115.276611    0.00526   -0.02806   -0.01382    5    diag
    7      0.777D-03      0.103D-03       -77.83845905    115.277777    0.00546   -0.02740   -0.01394    6    diag
    8      0.519D-03      0.312D-04       -77.83846148    115.278872    0.00533   -0.02741   -0.01405    7    diag
    9      0.152D-03      0.952D-05       -77.83846166    115.279095    0.00523   -0.02735   -0.01406    8    diag
   10      0.409D-04      0.278D-05       -77.83846168    115.279083    0.00519   -0.02737   -0.01403    9    orth
   11      0.913D-05      0.645D-06       -77.83846168    115.279086    0.00519   -0.02737   -0.01404    0    orth

 Final occupancy:   8

 !RHF STATE  1.1 Energy               -77.838461675558
 Nuclear energy                        32.41715367
 One-electron energy                 -167.89515814
 Two-electron energy                   57.63954280
 Virial quotient                       -1.00068675
 !RHF STATE  1.1 Dipole moment          0.00518600    -0.02736845    -0.01403997
 Dipole moment /Debye                   0.01318064    -0.06955911    -0.03568370

 ELECTRON ORBITALS
 =================

  Orbital  Occupation    Energy     Coefficients
    1.1     2.00000   -11.26665     1 1s    0.99590
    2.1     2.00000   -11.25216     2 1s    0.99584
    3.1     2.00000    -1.03908     1 1s    0.27048     2 1s    0.29555     2 1s    0.25518
    4.1     2.00000    -0.78850     1 1s   -0.30885     2 1s    0.26290
    5.1     2.00000    -0.62423     1 2py   0.26241     2 2py   0.34446
    6.1     2.00000    -0.55823     1 2px   0.29536     1 2py  -0.25409     2 2px  -0.28930
    7.1     2.00000    -0.39214     1 2pz   0.29190     1 2pz   0.27178     2 2pz   0.31823     2 2pz   0.29123
    8.1     2.00000    -0.38704     1 2px  -0.25496     2 2px   0.28361     4 1s    0.27773     5 1s    0.28579
    9.1     0.00000     0.06262     1 1s    0.43200     1 2pz   0.32474     1 2pz   0.45376     2 1s    0.36022     2 2pz  -0.33526
                                    2 2pz  -0.48010
   10.1     0.00000     0.23030     1 1s   -1.18271     1 2px   0.47471     1 2py   0.29999     1 2pz   0.47521     2 1s   -1.00545
                                    2 2px  -0.49516     2 2py  -0.38584     2 2pz  -0.40695     3 1s    0.68064     4 1s    1.04830
                                    5 1s    1.08585     6 1s    0.51058
   11.1     0.00000     0.27643     1 1s   -1.35628     1 2py  -0.71157     1 2pz   0.52531     2 1s    1.34887     2 2pz   0.27692
                                    3 1s    1.64378     4 1s   -0.25708     5 1s   -0.31536     6 1s   -0.90025
   12.1     0.00000     0.31839     1 2px   0.45957     1 2py  -0.77379     2 1s   -1.70173     2 2px  -0.32510     2 2py   1.11206
                                    2 2pz  -0.67588     3 1s    0.78978     4 1s   -0.34882     5 1s   -0.39289     6 1s    2.28824
   13.1     0.00000     0.33514     1 1s    1.09502     1 2px  -0.29051     1 2py  -0.79858     1 2pz  -0.32728     2 1s   -1.03957
                                    2 2px  -0.27739     2 2py  -0.71397     2 2pz  -0.31785     4 1s   -1.76145     5 1s    1.63021
   14.1     0.00000     0.42398     1 1s    2.12996     1 2px   1.72895     1 2py  -0.54023     1 2pz  -0.82819     2 1s   -1.85242
                                    2 2px   1.83308     2 2py  -0.74230     2 2pz  -0.73320     3 1s    0.46892     6 1s   -0.85365
   15.1     0.00000     0.70169     1 2px   0.52397     1 2px  -0.85810     2 2px  -0.56991     2 2px   1.03114     4 1s    0.41176
                                    5 1s    0.42117     6 1s   -0.34578
   16.1     0.00000     0.75149     1 1s   -0.44766     1 2px  -0.50101     2 2py  -0.56278     2 2px  -0.62290     2 2py   1.28799
                                    3 1s   -0.40557     5 1s   -0.35273     6 1s    0.48899     6 1s    0.39857
   17.1     0.00000     0.79177     1 2py  -0.61928     1 2pz  -0.60327     1 2px  -0.26642     1 2py   1.28953     1 2pz   0.68219
                                    2 1s    0.46306     2 2py   0.29911     2 2py  -0.59301     4 1s    0.38704
   18.1     0.00000     0.80212     1 2py   0.30006     1 2pz  -0.45771     1 2py  -0.57392     1 2pz   0.37147     2 2py  -0.25927
                                    2 2pz  -0.82031     2 2py   0.50843     2 2pz   0.79559
   19.1     0.00000     0.86686     1 1s   -0.37735     1 1s    0.40532     1 2px  -0.28366     1 2py   0.27346     1 2pz  -0.71431
                                    1 2px   0.60478     1 2py  -0.73561     1 2pz   0.90824     2 1s   -0.33994     2 2pz   0.62252
                                    2 2px  -0.28607     2 2py   0.36923     2 2pz  -0.94383     3 1s    0.25755
   20.1     0.00000     0.97354     1 1s   -0.27924     1 2px   0.70497     1 2py   0.36131     1 2px  -1.14162     1 2py  -0.76606
                                    2 2px   0.72289     2 2py   0.38273     2 2px  -1.16026     2 2py  -0.78230     4 1s   -1.04699
                                    5 1s    1.04584
   21.1     0.00000     1.10072     1 1s   -0.57606     1 1s    0.68167     1 2px   0.51885     1 2py  -0.53369     1 2px  -0.84215
                                    1 2py   0.78005     2 1s    0.40458     2 2py  -0.29165     2 2px  -0.54542     2 2py   0.61431
                                    3 1s    0.91020     3 1s   -1.66093     5 1s   -0.36280     6 1s    0.59651
   22.1     0.00000     1.11839     1 1s   -0.51467     1 1s    0.89030     1 2py   0.39000     1 2px  -0.32411     1 2py  -0.37281
                                    2 1s   -0.72697     2 1s    1.42069     2 2py  -0.44236     2 2px   0.34736     2 2py   0.42989
                                    2 2pz   0.26911     3 1s   -0.25497     4 1s    0.58032     4 1s   -1.05481     5 1s    0.71030
                                    5 1s   -1.29033
   23.1     0.00000     1.17022     1 1s   -0.56699     1 1s    0.69078     1 2py   0.38648     1 2pz   0.27525     1 2px  -0.40360
                                    1 2py  -0.41111     2 2py   0.43669     2 2py  -0.48071     3 1s    0.26733     3 1s   -0.29165
                                    4 1s    0.83432     4 1s   -1.25885     5 1s   -0.68365     5 1s    0.95997     6 1s   -0.31866
   24.1     0.00000     1.24978     1 1s   -0.49228     1 1s    2.24609     1 2px   1.07933     1 2py  -0.68365     1 2pz  -0.32632
                                    2 1s    0.59626     2 1s   -2.58712     2 2px  -0.41756     2 2py   0.36355     2 2px   1.09222
                                    2 2py  -0.70713     2 2pz  -0.83561     5 1s    0.48054     5 1s    0.29157     6 1s    0.96381
                                    6 1s   -0.71809
   25.1     0.00000     1.25944     1 1s   -1.22060     1 1s    2.23133     1 2px  -0.25941     1 2py   0.37900     1 2pz  -0.95745
                                    2 1s   -1.33859     2 1s    2.37673     2 2py   0.31907     2 2px   0.92595     2 2py  -0.86092
                                    2 2pz   0.96519     3 1s   -0.32341     3 1s   -0.68775     4 1s   -0.46664     4 1s   -0.29961
                                    5 1s   -0.29546     5 1s   -0.35122     6 1s   -1.77439
   26.1     0.00000     1.29817     1 1s   -1.48457     1 1s    4.47403     1 2px   0.91591     1 2py  -0.57647     1 2pz  -1.18373
                                    2 1s    1.51531     2 1s   -4.54040     2 2px   0.86532     2 2py  -0.46375     2 2pz  -0.96911
                                    3 1s   -0.29955     3 1s   -0.34836     4 1s   -0.71402     5 1s    0.51162     6 1s   -0.45213
                                    6 1s    1.01486
   27.1     0.00000     1.69529     1 1s    0.58218     1 3d0   0.35238     1 3d2- -0.29608     1 3d2+ -0.32016     2 1s   -0.60636
                                    2 3d0  -0.34562     2 3d2-  0.29791     2 3d2+  0.33418
   28.1     0.00000     1.91067     1 1s    0.43008     1 1s   -1.15948     1 2pz   0.45680     1 3d0   0.35654     1 3d2+  0.25032
                                    2 2px  -0.33420     2 2py   0.26978     2 3d0   0.27123     2 3d1+  0.46808     2 3d2+  0.38026
                                    2 3d1-  0.45116     3 1s    0.34036     6 1s    0.29705
   29.1     0.00000     1.94740     1 1s    0.89634     1 2px   0.35479     1 3d2- -0.30832     1 3d1+  0.51655     1 3d2+  0.30842
                                    1 3d1-  0.46896     2 1s    0.40170     2 1s   -1.56707     2 2pz  -0.49017     5 1s    0.27659
                                    6 1s    0.42121
   30.1     0.00000     2.17727     1 1s   -0.28337     1 1s    1.51500     1 2px   0.34189     1 2pz  -0.39973     1 3d0  -0.50020
                                    1 3d2+ -0.36770     2 1s    0.38343     2 1s   -1.68836     2 2px   0.39692     2 2py  -0.31279
                                    2 2pz  -0.45937     2 3d0   0.61508     2 3d2+  0.33632     3 1s   -0.35378     4 1s   -0.25451
                                    5 1s    0.38937     6 1s    0.34123
   31.1     0.00000     2.24959     1 1s   -0.51048     1 1s    0.43004     1 2px  -0.26433     1 2px   0.31915     1 3d2- -0.30741
                                    1 3d1+ -0.38479     1 3d2+  0.36461     2 1s   -0.47915     2 2px   0.25109     2 2px  -0.26557
                                    2 3d2- -0.30744     2 3d1+ -0.38437     2 3d2+  0.41142
   32.1     0.00000     2.35087     1 1s   -0.37229     1 2px  -0.27472     1 2py   0.43071     1 3d0   0.59993     1 3d2- -0.36939
                                    1 3d1- -0.42228     2 1s    0.33366     2 2py  -0.28101     2 3d0   0.41894     2 3d2- -0.35485
                                    2 3d1- -0.28922     4 1s    0.49444     5 1s    0.28839     6 1s   -0.32215
   33.1     0.00000     2.56532     1 1s    0.35647     1 3d2-  0.64280     1 3d1+ -0.34481     1 3d1-  0.49505     2 1s   -0.31389
                                    2 2py  -0.34971     2 3d0   0.30621     2 3d1- -0.59467     3 1s    0.47606     4 1s   -0.37485
                                    5 1s    0.39298     6 1s   -0.36557
   34.1     0.00000     2.64584     1 1s    0.25312     1 2py  -0.37442     1 3d2- -0.31403     1 3d2+ -0.54087     1 3d1-  0.60779
                                    2 2py   0.27199     2 3d2- -0.45371     2 3d2+ -0.51824     2 3d1-  0.43261     4 1s   -0.43987
                                    5 1s   -0.31157
   35.1     0.00000     2.75618     1 3d0   0.35277     1 3d2-  0.25683     1 3d1+ -0.41300     2 1s   -0.26496     2 3d0   0.37135
                                    2 3d2-  0.72211     2 3d1+ -0.50693     2 3d1-  0.46643     5 1s   -0.27809     6 1s    0.81076
   36.1     0.00000     2.95962     1 1s    1.72348     1 2px   0.43491     1 2px   0.86583     1 2pz  -0.44065     1 3d2- -0.36811
                                    1 3d1+ -0.67951     1 3d2+  0.65073     2 1s   -1.69474     2 2px   0.44192     2 2px   0.87970
                                    2 2py  -0.25654     2 2pz  -0.43348     2 3d2-  0.31216     2 3d1+  0.71730     2 3d2+ -0.63616


 HOMO      8.1    -0.387043 =     -10.5320eV
 LUMO      9.1     0.062625 =       1.7041eV
 LUMO-HOMO         0.449668 =      12.2361eV


 **********************************************************************************************************************************
 DATASETS  * FILE   NREC   LENGTH (MB)   RECORD NAMES
              1      19       31.13       500      610      700      900      950      970     1000      129      960     1100   
                                          VAR    BASINP    GEOM    SYMINP    ZMAT    AOBASIS   BASIS     P2S    ABASIS      S 
                                         1400     1410     1200     1210     1080     1600     1650     1300     1700   
                                           T        V       H0       H01     AOSYM     SMH    MOLCAS    ERIS     OPER   

              2       4        2.86       700     1000      520     2100   
                                         GEOM     BASIS   MCVARS     RHF  

 PROGRAMS   *        TOTAL    HF-SCF       INT
 CPU TIMES  *         0.39      0.11      0.18
 REAL TIME  *         0.57 SEC
 DISK USED  *        36.24 MB
 **********************************************************************************************************************************


 PROGRAM * MULTI (Direct Multiconfiguration SCF)       Authors: P.J. Knowles, H.-J. Werner (1984)


 Number of closed-shell orbitals:   7 (   7 )
 Number of active  orbitals:        2 (   2 )
 Number of external orbitals:      27 (  27 )

 State symmetry 1

 Number of electrons:     2    Spin symmetry=Singlet   Space symmetry=1
 Number of states:        3
 Number of CSFs:          3   (4 determinants, 4 intermediate states)

 Molecular orbitals read from record     2100.2  Type=RHF/CANONICAL (state 1.1)

 Wavefunction dump at record             2140.2

 Convergence thresholds  0.10E-01 (gradient)  0.10E-05 (energy)  0.10E-02 (step length)

 Weight factors for state symmetry  1:    0.33333   0.33333   0.33333

 Number of orbital rotations:      257   (    14 Core/Active    189 Core/Virtual   0 Active/Active     54 Active/Virtual)
 Total number of variables:        269

 Micro-Iterations solved by the two-step solver

 ITER. MIC  NCI  NEG     ENERGY(VAR)     ENERGY(PROJ)   ENERGY CHANGE     GRAD(0)  GRAD(ORB)   GRAD(CI)     STEP       TIME

   1   13    7    0     -77.68059636     -77.70195031   -0.02135394    0.16534765 0.00122504 0.00000000  0.16D+00      0.17
   2    7    5    0     -77.70145878     -77.70152706   -0.00006828    0.01266002 0.00002645 0.00000000  0.73D-02      0.27
   3    8    5    0     -77.70152723     -77.70152723   -0.00000000    0.00004689 0.00000000 0.00000000  0.52D-04      0.38
   4    3    3    0     -77.70152723     -77.70152723    0.00000000    0.00000000 0.00000000 0.00000000  0.17D-08      0.44

 ** WVFN ****  CONVERGENCE REACHED, FINAL GRADIENT:  0.30D-12



 Results for state 1.1
 =====================

 !MCSCF STATE  1.1 Energy             -77.832083255832
 Nuclear energy                        32.41715367
 Kinetic energy                        77.84097644
 One electron energy                 -167.97201668
 Two electron energy                   57.72277976
 Virial ratio                           1.99988575

 !MCSCF STATE  1.1 Dipole moment       -0.00337343    -0.02696145    -0.01414986
 Dipole moment /Debye                  -0.00857384    -0.06852469    -0.03596300

 Results for state 2.1
 =====================

 !MCSCF STATE  2.1 Energy             -77.729176582991
 Nuclear energy                        32.41715367
 Kinetic energy                        77.91699117
 One electron energy                 -167.66693460
 Two electron energy                   57.52060434
 Virial ratio                           1.99758956

 !MCSCF STATE  2.1 Dipole moment        0.03034775    -0.02351081    -0.00204523
 Dipole moment /Debye                   0.07713124    -0.05975460    -0.00519812

 Results for state 3.1
 =====================

 !MCSCF STATE  3.1 Energy             -77.543321851549
 Nuclear energy                        32.41715367
 Kinetic energy                        77.97846774
 One electron energy                 -167.40809032
 Two electron energy                   57.44761480
 Virial ratio                           1.99441967

 !MCSCF STATE  3.1 Dipole moment        0.07403370    -0.02559654     0.01237461
 Dipole moment /Debye                   0.18816256    -0.06505566     0.03145107

 State-averaged charge density matrix saved on record  2140.2 (density set 1)

 !MCSCF expec         <1.1|DMX|1.1>    -0.003373429359 au =    -0.008573840589 Debye
 !MCSCF trans         <2.1|DMX|1.1>     0.022879343253 au =     0.058149681226 Debye
 !MCSCF expec         <2.1|DMX|2.1>     0.030347751992 au =     0.077131239509 Debye
 !MCSCF trans         <3.1|DMX|1.1>    -0.002009702213 au =    -0.005107818950 Debye
 !MCSCF trans         <3.1|DMX|2.1>     0.022157971818 au =     0.056316258014 Debye
 !MCSCF expec         <3.1|DMX|3.1>     0.074033695828 au =     0.188162560642 Debye

 !MCSCF expec         <1.1|DMY|1.1>    -0.026961453382 au =    -0.068524690686 Debye
 !MCSCF trans         <2.1|DMY|1.1>    -0.011852565461 au =    -0.030124243324 Debye
 !MCSCF expec         <2.1|DMY|2.1>    -0.023510809424 au =    -0.059754603015 Debye
 !MCSCF trans         <3.1|DMY|1.1>    -0.000991739698 au =    -0.002520585782 Debye
 !MCSCF trans         <3.1|DMY|2.1>    -0.013092187160 au =    -0.033274841042 Debye
 !MCSCF expec         <3.1|DMY|3.1>    -0.025596540800 au =    -0.065055656165 Debye

 !MCSCF expec         <1.1|DMZ|1.1>    -0.014149858554 au =    -0.035962997504 Debye
 !MCSCF trans         <2.1|DMZ|1.1>     0.005481145255 au =     0.013930769158 Debye
 !MCSCF expec         <2.1|DMZ|2.1>    -0.002045233223 au =    -0.005198123856 Debye
 !MCSCF trans         <3.1|DMZ|1.1>    -0.000872694169 au =    -0.002218022046 Debye
 !MCSCF trans         <3.1|DMZ|2.1>     0.004997834687 au =     0.012702396683 Debye
 !MCSCF expec         <3.1|DMZ|3.1>     0.012374614574 au =     0.031451072909 Debye


 NATURAL ORBITALS (state averaged)
 =================================

  Orbital  Occupation    Energy     Coefficients
    1.1     2.00000   -11.26169     1 1s    0.99598
    2.1     2.00000   -11.24675     2 1s    0.99591
    3.1     2.00000    -1.05172     1 1s    0.26716     2 1s    0.28895     2 1s    0.25186
    4.1     2.00000    -0.78956     1 1s   -0.33015     2 1s    0.29077
    5.1     2.00000    -0.62751     1 2py   0.25053     2 2py   0.34390
    6.1     2.00000    -0.55632     1 2px   0.25832     1 2py  -0.28125
    7.1     2.00000    -0.41953     1 2pz   0.32259     1 2pz   0.27741     2 2pz   0.32757     2 2pz   0.28316
    8.1     1.00000    -0.08738     1 1s    0.28530     1 2pz   0.40059     1 2pz   0.42258     2 2pz  -0.40801     2 2pz  -0.43527
    9.1     1.00000    -0.23083     1 2px  -0.30976     2 2px   0.31076     4 1s    0.29314     5 1s    0.29550
   10.1    -0.00000     0.21841     1 1s   -1.16770     1 2px   0.46938     1 2py   0.32771     1 2pz   0.40423     2 1s   -1.04135
                                    2 2px  -0.49043     2 2py  -0.40200     2 2pz  -0.35390     3 1s    0.62041     4 1s    1.06440
                                    5 1s    1.10194     6 1s    0.49597
   11.1    -0.00000     0.27558     1 1s   -1.48819     1 2py  -0.62948     1 2pz   0.53021     2 1s    1.41330     2 2pz   0.31305
                                    3 1s    1.64211     5 1s   -0.38860     6 1s   -0.92584
   12.1    -0.00000     0.31858     1 1s    0.95425     1 2py  -0.27280     1 2py  -1.17010     2 1s   -1.81876     2 2px  -0.30761
                                    2 2pz  -0.63532     3 1s    0.58516     4 1s   -1.67571     5 1s    1.17492     6 1s    1.18062
   13.1    -0.00000     0.32129     1 1s   -0.61878     1 2px   0.46491     1 2pz   0.34158     2 1s   -0.85264     2 2py   0.31025
                                    2 2py   1.35555     2 2pz  -0.35090     3 1s    0.62396     4 1s    0.70252     5 1s   -1.18830
                                    6 1s    1.95821
   14.1    -0.00000     0.43006     1 1s    1.98634     1 2px   1.74437     1 2py  -0.43696     1 2pz  -0.76737     2 1s   -1.72614
                                    2 2px   1.84095     2 2py  -0.63266     2 2pz  -0.68059     3 1s    0.47475     6 1s   -0.84429
   15.1    -0.00000     0.69858     1 2px   0.51490     1 2px  -0.84130     2 2px  -0.55318     2 2px   1.00254     4 1s   -0.26555
                                    4 1s    0.46784     5 1s    0.48310     6 1s   -0.33820
   16.1    -0.00000     0.74841     1 1s   -0.54109     1 2px  -0.51311     2 2py  -0.53915     2 2px  -0.70610     2 2py   1.29438
                                    3 1s   -0.40374     5 1s   -0.37052     6 1s    0.49259     6 1s    0.39502
   17.1    -0.00000     0.79084     1 1s   -0.34091     1 2py  -0.59723     1 2pz  -0.57872     1 2px  -0.32786     1 2py   1.30865
                                    1 2pz   0.75844     2 1s    0.55655     2 2py   0.30751     2 2py  -0.60128     4 1s    0.39237
   18.1    -0.00000     0.80191     1 2py   0.27551     1 2pz  -0.47349     1 2py  -0.49535     1 2pz   0.40727     2 2pz  -0.82089
                                    2 2py   0.49202     2 2pz   0.89645
   19.1    -0.00000     0.86500     1 1s   -0.33457     1 1s    0.34766     1 2px  -0.29626     1 2py   0.27498     1 2pz  -0.69737
                                    1 2px   0.64756     1 2py  -0.74740     1 2pz   0.96216     2 1s   -0.30027     2 2pz   0.58956
                                    2 2px  -0.31247     2 2py   0.37042     2 2pz  -0.99150     3 1s    0.31005
   20.1    -0.00000     0.98019     1 2px   0.70123     1 2py   0.36588     1 2px  -1.06090     1 2py  -0.78115     2 2px   0.72001
                                    2 2py   0.39134     2 2px  -1.08111     2 2py  -0.80392     4 1s   -1.00428     5 1s    1.01619
   21.1    -0.00000     1.09140     1 1s   -0.61738     1 1s    0.99914     1 2px   0.40581     1 2px  -0.54844     2 1s   -0.71472
                                    2 1s    1.34729     2 2py  -0.54656     2 2py   0.65943     3 1s   -0.34501     4 1s    0.49363
                                    4 1s   -0.85949     5 1s    0.76906     5 1s   -1.34956
   22.1    -0.00000     1.10571     1 1s   -0.27646     1 2px   0.40268     1 2py  -0.68789     1 2px  -0.63305     1 2py   0.91678
                                    2 2px   0.30688     2 2px  -0.63332     2 2py   0.48041     3 1s    0.88648     3 1s   -1.55279
                                    4 1s   -0.35246     4 1s    0.65771     6 1s    0.61268
   23.1    -0.00000     1.13441     1 1s   -0.61763     1 1s    0.69655     1 2py   0.32787     1 2pz   0.27239     1 2px  -0.58310
                                    1 2py  -0.30609     2 2py   0.36648     2 2px  -0.34518     2 2py  -0.33972     3 1s    0.40087
                                    3 1s   -0.53632     4 1s    0.83154     4 1s   -1.25204     5 1s   -0.66562     5 1s    0.92992
   24.1    -0.00000     1.24300     1 1s    1.30048     1 2px   1.14374     1 2py  -0.79744     2 1s    1.15881     2 1s   -3.51467
                                    2 2px  -0.33626     2 2px   0.66435     2 2py  -0.33316     2 2pz  -1.18557     3 1s    0.35559
                                    3 1s    0.34160     5 1s    0.49223     5 1s    0.50352     6 1s    0.85877
   25.1    -0.00000     1.25561     1 1s   -1.48246     1 1s    3.34824     1 2pz  -1.09365     2 1s   -0.88046     2 1s    0.83264
                                    2 2px  -0.26132     2 2py   0.44175     2 2px   1.34383     2 2py  -1.12096     2 2pz   0.46597
                                    3 1s   -0.64647     4 1s   -0.42330     4 1s   -0.45054     6 1s    0.39268     6 1s   -1.83464
   26.1    -0.00000     1.29441     1 1s   -1.36325     1 1s    4.17797     1 2px   0.88009     1 2py  -0.52862     1 2pz  -1.08677
                                    2 1s    1.55748     2 1s   -4.52075     2 2px   0.27741     2 2px   0.75932     2 2py  -0.33259
                                    2 2pz  -0.95589     3 1s   -0.30114     3 1s   -0.30756     4 1s   -0.63836     5 1s    0.45646
                                    6 1s   -0.51024     6 1s    1.17487
   27.1    -0.00000     1.68993     1 1s    0.60976     1 3d0   0.34576     1 3d2- -0.30036     1 3d2+ -0.32246     2 1s   -0.63125
                                    2 3d0  -0.33977     2 3d2-  0.30141     2 3d2+  0.33593
   28.1    -0.00000     1.90774     1 1s    0.41922     1 1s   -1.14008     1 2pz   0.44857     1 3d0   0.35388     1 3d2+  0.25307
                                    2 2px  -0.33339     2 2py   0.27356     2 3d0   0.26794     2 3d1+  0.46759     2 3d2+  0.38795
                                    2 3d1-  0.45081     3 1s    0.34167     6 1s    0.29631
   29.1    -0.00000     1.94440     1 1s    0.86873     1 2px   0.34700     1 3d2- -0.31011     1 3d1+  0.51673     1 3d2+  0.31460
                                    1 3d1-  0.46862     2 1s    0.38923     2 1s   -1.52932     2 2pz  -0.47904     5 1s    0.26870
                                    6 1s    0.42283
   30.1    -0.00000     2.17727     1 1s   -0.29508     1 1s    1.50986     1 2px   0.33896     1 2pz  -0.39817     1 3d0  -0.50347
                                    1 3d2+ -0.36465     2 1s    0.37862     2 1s   -1.66717     2 2px   0.38898     2 2py  -0.31548
                                    2 2pz  -0.44870     2 3d0   0.61837     2 3d2+  0.34440     3 1s   -0.35446     5 1s    0.38661
                                    6 1s    0.33845
   31.1    -0.00000     2.24470     1 1s   -0.49877     1 1s    0.38618     1 2px  -0.27221     1 2px   0.29948     1 3d2- -0.31618
                                    1 3d1+ -0.39046     1 3d2+  0.37021     2 1s   -0.48185     2 1s    0.26995     2 2px   0.25839
                                    2 2px  -0.27127     2 3d2- -0.32176     2 3d1+ -0.39642     2 3d2+  0.40392
   32.1    -0.00000     2.34502     1 1s   -0.40112     1 2px  -0.29172     1 2py   0.45033     1 3d0   0.60500     1 3d2- -0.36573
                                    1 3d1- -0.43802     2 1s    0.33647     2 2py  -0.29053     2 3d0   0.41210     2 3d2- -0.34748
                                    2 3d1- -0.29735     4 1s    0.48613     5 1s    0.27307     6 1s   -0.33745
   33.1    -0.00000     2.56119     1 1s    0.33359     1 3d2-  0.64098     1 3d1+ -0.33247     1 3d1-  0.48303     2 1s   -0.29632
                                    2 2py  -0.36088     2 3d0   0.29754     2 3d1- -0.61252     3 1s    0.47316     4 1s   -0.35469
                                    5 1s    0.39598     6 1s   -0.38402
   34.1    -0.00000     2.63787     1 1s    0.25515     1 2py  -0.38203     1 3d2- -0.31224     1 3d2+ -0.53731     1 3d1-  0.61730
                                    2 2py   0.26997     2 3d2- -0.47165     2 3d2+ -0.51013     2 3d1-  0.41997     4 1s   -0.43420
                                    5 1s   -0.29446
   35.1    -0.00000     2.75934     1 3d0   0.35921     1 3d2-  0.25542     1 3d1+ -0.42757     2 1s   -0.27589     2 3d0   0.38655
                                    2 3d2-  0.70598     2 3d1+ -0.50762     2 3d1-  0.45933     5 1s   -0.26562     6 1s    0.80196
   36.1    -0.00000     2.95521     1 1s    1.75361     1 2px   0.42856     1 2px   0.87756     1 2pz  -0.44838     1 3d2- -0.36670
                                    1 3d1+ -0.68105     1 3d2+  0.64820     2 1s   -1.72380     2 2px   0.43592     2 2px   0.89186
                                    2 2py  -0.26472     2 2pz  -0.44135     2 3d2-  0.30846     2 3d1+  0.72147     2 3d2+ -0.63307


 Natural orbital dump (state averaged) at molpro section  2140.2    (Orbital set 2)



 **********************************************************************************************************************************
 DATASETS  * FILE   NREC   LENGTH (MB)   RECORD NAMES
              1      20       31.86       500      610      700      900      950      970     1000      129      960     1100   
                                          VAR    BASINP    GEOM    SYMINP    ZMAT    AOBASIS   BASIS     P2S    ABASIS      S 
                                         1400     1410     1200     1210     1080     1600     1650     1300     1700     1380   
                                           T        V       H0       H01     AOSYM     SMH    MOLCAS    ERIS     OPER     JKOP   

              2       5        5.42       700     1000      520     2100     2140   
                                         GEOM     BASIS   MCVARS     RHF     MCSCF   

 PROGRAMS   *        TOTAL     MULTI    HF-SCF       INT
 CPU TIMES  *         0.88      0.49      0.11      0.18
 REAL TIME  *         1.38 SEC
 DISK USED  *        39.04 MB
 **********************************************************************************************************************************
 Molecular orbitals read from record     2140.2  Type=MCSCF/NATURAL (state averaged)
 Occupation numbers read from record     2140.2  Type=MCSCF/NATURAL (state averaged)
 Orbital energies read from record       2140.2  Type=MCSCF/NATURAL (state averaged)
 Redundancy group numbers read from rec  2140.2  Type=MCSCF/NATURAL (state averaged)

 MULTI/6-31G* energy=    -77.543321851549

           MULTI          HF-SCF
    -77.54332185    -77.83846168
 **********************************************************************************************************************************
 Molpro calculation terminated
