
 Primary working directories    : /scratch.local/johan406.molpro_temp/molpro.EvV32YeolD
 Secondary working directories  : /scratch.local/johan406.molpro_temp/molpro.EvV32YeolD
 Wavefunction directory         : /home/goodpast/johan406/wfu/
 Main file repository           : /scratch.local/johan406.molpro_temp/molpro.EvV32YeolD/

 id        : roweumn

 Nodes     nprocs
 acn09        1

 Using customized tuning parameters: mindgm=1; mindgv=20; mindgc=4; mindgr=1; noblas=0; minvec=7
 default implementation of scratch files=df  


 Variables initialized (934), CPU time= 0.00 sec
                                                                                 !leave this line blank
 
 gprint, orbitals=30
 memory, 125., m
 symmetry, nosym
 nelect=16
 basis=6-31g*
 
 geometry={
 C -0.6212 0.1307 0.3022
 C 0.6406 -0.1964 -0.3555
 H -1.3358 0.9827 -0.2025
 H -0.9569 -0.8591 -0.1286
 H 0.9764 0.8233 0.0858
 H 1.2021 -0.8566 0.0452
 }
 
 hf
 {multi,
 closed 7
 occ 9
 wf,spin=0;STATE,3
 }
 
 Commands  initialized (763), CPU time= 0.01 sec, 617 directives.
 Default parameters read. Elapsed time= 0.08 sec

 Checking input...
 Passed
1


                                         ***  PROGRAM SYSTEM MOLPRO  ***
                                       Copyright, TTI GmbH Stuttgart, 2015
                                    Version 2019.2 linked Oct 25 2019 22:50:27


 **********************************************************************************************************************************
 LABEL *                                                                                 
  64 bit serial version                                                                  DATE: 07-Feb-23          TIME: 16:12:19  
 **********************************************************************************************************************************

 SHA1:             8dbd9ae1082e4ce945b0f27595c9eb2d4aa09004
 **********************************************************************************************************************************


 Variable memory set to  125000000 words,  buffer space 

 SETTING NELECT         =        16.00000000                                  
 SETTING BASIS          =    6-31G*
 ZSYMEL=NOSYM


Geometry recognized as XYZ



 Recomputing integrals since basis changed


 Using spherical harmonics

 Library entry C      S 6-31G                selected for orbital group  1
 Library entry C      P 6-31G                selected for orbital group  1
 Library entry C      D 6-31G*               selected for orbital group  1
 Library entry H      S 6-31G                selected for orbital group  2


 PROGRAM * SEWARD (Integral evaluation for generally contracted gaussian basis sets)     Author: Roland Lindh, 1990

 Geometry written to block  1 of record 700


 Point group  C1  



 ATOMIC COORDINATES

 NR  ATOM    CHARGE       X              Y              Z

   1  C       6.00   -1.173897869    0.246987204    0.571075235
   2  C       6.00    1.210558555   -0.371142211   -0.671797637
   3  H       1.00   -2.524296157    1.857033863   -0.382669540
   4  H       1.00   -1.808278929   -1.623463714   -0.243018780
   5  H       1.00    1.845128588    1.555811518    0.162138501
   6  H       1.00    2.271639774   -1.618739398    0.085415621

 Bond lengths in Bohr (Angstrom)

 1-2  2.759066760  1-3  2.307694710  1-4  2.136299378  2-5  2.193462852  2-6  1.804373579
     ( 1.460035253)     ( 1.221179450)     ( 1.130480946)     ( 1.160730554)     ( 0.954833378)

 Bond angles

  1-2-5   83.21994012   1-2-6  118.29952913   2-1-3  118.41494069   2-1-4   83.61640607

  3-1-4  106.23634156   5-2-6  106.12563075

 NUCLEAR CHARGE:                   16
 NUMBER OF PRIMITIVE AOS:          72
 NUMBER OF SYMMETRY AOS:           70
 NUMBER OF CONTRACTIONS:           36   (   36A   )
 NUMBER OF CORE ORBITALS:           2   (    2A   )
 NUMBER OF VALENCE ORBITALS:       12   (   12A   )


 NUCLEAR REPULSION ENERGY   32.48138866

 Eigenvalues of metric

         1 0.917E-02 0.238E-01 0.594E-01 0.654E-01 0.845E-01 0.202E+00 0.237E+00 0.268E+00


 Contracted 2-electron integrals neglected if value below      1.0D-11
 AO integral compression algorithm  1   Integral accuracy      1.0D-11

     1.573 MB (compressed) written to integral file ( 59.2%)


 NUMBER OF SORTED TWO-ELECTRON INTEGRALS:     222111.     BUFFER LENGTH:  32768
 NUMBER OF SEGMENTS:   1  SEGMENT LENGTH:     222111      RECORD LENGTH: 524288

 Memory used in sort:       0.78 MW

 SORT1 READ      284735. AND WROTE      212530. INTEGRALS IN      1 RECORDS. CPU TIME:     0.00 SEC, REAL TIME:     0.00 SEC
 SORT2 READ      212530. AND WROTE      222111. INTEGRALS IN      6 RECORDS. CPU TIME:     0.02 SEC, REAL TIME:     0.03 SEC

 FILE SIZES:   FILE 1:    31.7 MBYTE,  FILE 4:     4.2 MBYTE,   TOTAL:     35.9 MBYTE

 OPERATOR DM      FOR CENTER  0  COORDINATES:    0.000000    0.000000    0.000000


 **********************************************************************************************************************************
 DATASETS  * FILE   NREC   LENGTH (MB)   RECORD NAMES
              1      19       31.13       500      610      700      900      950      970     1000      129      960     1100   
                                          VAR    BASINP    GEOM    SYMINP    ZMAT    AOBASIS   BASIS     P2S    ABASIS      S 
                                         1400     1410     1200     1210     1080     1600     1650     1300     1700   
                                           T        V       H0       H01     AOSYM     SMH    MOLCAS    ERIS     OPER   

 PROGRAMS   *        TOTAL       INT
 CPU TIMES  *         0.28      0.18
 REAL TIME  *         0.44 SEC
 DISK USED  *        36.24 MB
 **********************************************************************************************************************************


 PROGRAM * RHF-SCF (CLOSED SHELL)       Authors: W. Meyer, H.-J. Werner


 NUMBER OF ELECTRONS:       8+    8-    SPACE SYMMETRY=1    SPIN SYMMETRY: Singlet 
 CONVERGENCE THRESHOLDS:    1.00E-05 (Density)    1.00E-07 (Energy)
 MAX. NUMBER OF ITERATIONS:       60
 INTERPOLATION TYPE:            DIIS
 INTERPOLATION STEPS:              2 (START)      1 (STEP)
 LEVEL SHIFTS:                  0.00 (CLOSED)  0.00 (OPEN) 



 Orbital guess generated from atomic densities. Full valence occupancy:    8

 Molecular orbital dump at record        2100.2

 Initial occupancy:   8

 ITERATION    DDIFF          GRAD             ENERGY        2-EL.EN.            DIPOLE MOMENTS         DIIS   ORB.
    1      0.000D+00      0.000D+00       -77.79954290    116.144514   -0.20180    0.15558    0.10864    0    start
    2      0.000D+00      0.761D-02       -77.81891087    115.041402    0.05879   -0.07703   -0.13655    1    diag
    3      0.863D-02      0.332D-02       -77.82176809    115.398072   -0.06426    0.00456    0.05610    2    diag
    4      0.363D-02      0.160D-02       -77.82271810    115.395264    0.01078   -0.04605   -0.03905    3    diag
    5      0.202D-02      0.552D-03       -77.82288863    115.336812    0.00319   -0.04186   -0.01888    4    diag
    6      0.826D-03      0.231D-03       -77.82298257    115.347246    0.00752   -0.04325   -0.02119    5    diag
    7      0.783D-03      0.105D-03       -77.82301286    115.348298    0.00800   -0.04235   -0.02152    6    diag
    8      0.506D-03      0.344D-04       -77.82301586    115.349488    0.00782   -0.04231   -0.02169    7    diag
    9      0.167D-03      0.110D-04       -77.82301610    115.349763    0.00765   -0.04224   -0.02171    8    diag
   10      0.480D-04      0.312D-05       -77.82301612    115.349763    0.00758   -0.04225   -0.02166    9    orth
   11      0.111D-04      0.773D-06       -77.82301612    115.349757    0.00755   -0.04225   -0.02166    9    diag
   12      0.214D-05      0.210D-06       -77.82301612    115.349759    0.00755   -0.04225   -0.02166    0    orth

 Final occupancy:   8

 !RHF STATE  1.1 Energy               -77.823016117986
 Nuclear energy                        32.48138866
 One-electron energy                 -167.97928433
 Two-electron energy                   57.67487955
 Virial quotient                       -0.99994390
 !RHF STATE  1.1 Dipole moment          0.00754721    -0.04224735    -0.02165761
 Dipole moment /Debye                   0.01918184    -0.10737503    -0.05504454

 ELECTRON ORBITALS
 =================

  Orbital  Occupation    Energy     Coefficients
    1.1     2.00000   -11.27078     1 1s    0.99617
    2.1     2.00000   -11.24830     2 1s    0.99606
    3.1     2.00000    -1.04182     1 1s    0.26295     2 1s    0.30303     2 1s    0.25703
    4.1     2.00000    -0.79394     1 1s   -0.31384
    5.1     2.00000    -0.62701     2 2py   0.35557
    6.1     2.00000    -0.55338     1 2px   0.29006     1 2py  -0.26736     2 2px  -0.28088
    7.1     2.00000    -0.39254     1 2pz   0.28004     1 2pz   0.26091     2 2pz   0.31994     2 2pz   0.29033
    8.1     2.00000    -0.38700     2 2px   0.28457     4 1s    0.26999     5 1s    0.28230
    9.1     0.00000     0.06160     1 1s    0.44964     1 2pz   0.32073     1 2pz   0.44353     2 1s    0.33731     2 2pz  -0.33737
                                    2 2pz  -0.48439
   10.1     0.00000     0.22850     1 1s   -1.22920     1 2px   0.47277     1 2pz   0.50890     2 1s   -0.94073     2 2px  -0.50042
                                    2 2py  -0.37383     2 2pz  -0.39753     3 1s    0.76782     4 1s    1.00515     5 1s    1.06110
                                    6 1s    0.48630
   11.1     0.00000     0.26984     1 1s   -1.10035     1 2py  -0.26292     1 2py  -0.79201     1 2pz   0.48661     2 1s    1.25614
                                    3 1s    1.54624     4 1s   -0.38190     5 1s   -0.45293     6 1s   -0.72060
   12.1     0.00000     0.32352     1 1s    0.32815     1 2px   0.49691     1 2py  -0.66369     2 1s   -2.08055     2 2px  -0.29033
                                    2 2py   1.12773     2 2pz  -0.73982     3 1s    0.55126     4 1s   -0.27243     5 1s   -0.38808
                                    6 1s    2.56152
   13.1     0.00000     0.33491     1 1s    1.13044     1 2px  -0.28573     1 2py  -0.82668     1 2pz  -0.33351     2 1s   -1.07020
                                    2 2px  -0.27523     2 2py  -0.67299     2 2pz  -0.32874     4 1s   -1.80005     5 1s    1.58790
   14.1     0.00000     0.42456     1 1s    2.16156     1 2px   1.69931     1 2py  -0.49202     1 2pz  -0.84359     2 1s   -1.71384
                                    2 2px   1.86234     2 2py  -0.80765     2 2pz  -0.69492     3 1s    0.39904     5 1s    0.25008
                                    6 1s   -1.01305
   15.1     0.00000     0.70005     1 2px   0.50158     1 2px  -0.81914     2 1s    0.30180     2 2px  -0.57829     2 2px   1.10848
                                    2 2py  -0.38152     4 1s    0.39317     5 1s    0.40328     6 1s   -0.47113
   16.1     0.00000     0.74463     1 1s   -0.43440     1 2px   0.27042     1 2px  -0.47319     2 1s   -0.32535     2 2py  -0.58711
                                    2 2px  -0.55795     2 2py   1.38267     2 2pz  -0.27390     3 1s   -0.36942     5 1s   -0.37347
                                    6 1s    0.46032     6 1s    0.53560
   17.1     0.00000     0.79291     1 1s   -0.30122     1 2py  -0.51749     1 2pz  -0.72526     1 2py   1.07116     1 2pz   0.83072
                                    2 1s    0.44697     2 2pz  -0.28791     2 2py  -0.27139     2 2pz   0.30905     4 1s    0.36607
   18.1     0.00000     0.80544     1 2py   0.44916     1 2px   0.27302     1 2py  -0.85400     2 2py  -0.29848     2 2pz  -0.80979
                                    2 2py   0.54069     2 2pz   0.79905
   19.1     0.00000     0.87009     1 1s   -0.39219     1 1s    0.55149     1 2px  -0.31009     1 2py   0.34621     1 2pz  -0.71239
                                    1 2px   0.68264     1 2py  -0.86289     1 2pz   0.84586     2 1s   -0.33482     2 2pz   0.56928
                                    2 2py   0.27944     2 2pz  -0.90280     3 1s    0.26730
   20.1     0.00000     0.97289     1 1s   -0.32090     1 2px   0.69537     1 2py   0.35628     1 2px  -1.13505     1 2py  -0.76115
                                    2 2px   0.72342     2 2py   0.39091     2 2px  -1.16372     2 2py  -0.79002     4 1s   -1.04350
                                    5 1s    1.04502
   21.1     0.00000     1.07378     1 1s   -0.62727     1 1s    0.80807     1 2px   0.50403     1 2py  -0.48363     1 2px  -0.79606
                                    1 2py   0.67056     2 2px  -0.54500     2 2py   0.51314     3 1s    0.94677     3 1s   -1.64822
                                    6 1s    0.56159
   22.1     0.00000     1.11699     1 1s   -0.46983     1 1s    0.74467     1 2px   0.26139     1 2py   0.32076     1 2px  -0.38412
                                    1 2py  -0.27500     2 1s   -0.76668     2 1s    1.55094     2 2py  -0.49018     2 2px   0.28450
                                    2 2py   0.51146     2 2pz   0.29726     4 1s    0.52763     4 1s   -0.94227     5 1s    0.75584
                                    5 1s   -1.37522
   23.1     0.00000     1.16965     1 1s   -0.54707     1 1s    0.66965     1 2py   0.46354     1 2pz   0.26444     1 2px  -0.38733
                                    1 2py  -0.49173     2 2py   0.39908     2 2py  -0.46609     4 1s    0.88064     4 1s   -1.35159
                                    5 1s   -0.65093     5 1s    0.89366     6 1s   -0.32297
   24.1     0.00000     1.25378     1 1s   -0.31719     1 1s   -0.66812     1 2px  -1.03880     1 2py   0.81762     1 2pz  -0.26504
                                    2 1s   -1.57666     2 1s    4.26011     2 2pz   1.41729     3 1s   -0.33461     3 1s   -0.46073
                                    5 1s   -0.55453     5 1s   -0.52026     6 1s   -0.53441     6 1s   -1.07455
   25.1     0.00000     1.27663     1 1s    1.79356     1 1s   -4.87207     1 2px  -0.90975     1 2py   0.46933     1 2pz   1.38958
                                    2 1s    2.03583     2 2py  -0.37988     2 2px  -1.69266     2 2py   1.25004     2 2pz   0.29385
                                    3 1s    0.28065     3 1s    0.43603     4 1s    0.42890     4 1s    0.67173     6 1s   -0.36992
                                    6 1s    1.17915
   26.1     0.00000     1.33572     1 1s   -0.76517     1 1s    2.28945     1 2px   0.38979     1 2py  -0.27617     1 2pz  -0.62389
                                    2 1s    1.39383     2 1s   -3.44459     2 2px   0.44179     2 2py  -0.38330     2 2pz   0.29264
                                    2 2pz  -0.72478     3 1s   -0.27004     4 1s   -0.44880     5 1s    0.33216     6 1s   -0.83814
                                    6 1s    1.73243
   27.1     0.00000     1.69465     1 1s    0.58209     1 3d0   0.35349     1 3d2- -0.29569     1 3d2+ -0.31678     2 1s   -0.62360
                                    2 3d0  -0.34279     2 3d2-  0.29872     2 3d2+  0.33912
   28.1     0.00000     1.90167     1 1s    0.43302     1 1s   -1.18855     1 2pz   0.45163     1 3d0   0.34631     2 2px  -0.35810
                                    2 2py   0.28905     2 3d1+  0.47311     2 3d2+  0.37690     2 3d1-  0.46917     3 1s    0.34550
                                    6 1s    0.31444
   29.1     0.00000     1.95373     1 1s    0.75722     1 2px   0.34062     1 3d2- -0.30092     1 3d1+  0.53054     1 3d2+  0.32534
                                    1 3d1-  0.47024     2 1s    0.38785     2 1s   -1.56063     2 2pz  -0.50147     2 3d0   0.26031
                                    5 1s    0.29460     6 1s    0.44081
   30.1     0.00000     2.17089     1 1s    1.39850     1 2px   0.31253     1 2pz  -0.36304     1 3d0  -0.45952     1 3d2+ -0.36903
                                    2 1s    0.39001     2 1s   -1.66705     2 2px   0.39112     2 2py  -0.31992     2 2pz  -0.45785
                                    2 3d0   0.63096     2 3d2+  0.32573     3 1s   -0.34449     5 1s    0.40970     6 1s    0.33430
   31.1     0.00000     2.24842     1 1s   -0.51565     1 1s    0.47430     1 2px  -0.26406     1 2px   0.32568     1 3d2- -0.31353
                                    1 3d1+ -0.38221     1 3d2+  0.35222     2 1s   -0.47423     2 3d2- -0.31568     2 3d1+ -0.38348
                                    2 3d2+  0.42030
   32.1     0.00000     2.35300     1 1s   -0.55403     1 2px  -0.31522     1 2py   0.45979     1 3d0   0.63946     1 3d2- -0.36878
                                    1 3d1- -0.44856     2 1s    0.51300     2 2pz   0.27910     2 3d0   0.36580     2 3d2- -0.34231
                                    4 1s    0.53933     6 1s   -0.34548
   33.1     0.00000     2.54807     1 1s    0.43013     1 3d2-  0.64865     1 3d1+ -0.39103     1 3d1-  0.44156     2 1s   -0.34361
                                    2 2py  -0.37100     2 3d0   0.37124     2 3d1- -0.57576     3 1s    0.41733     4 1s   -0.35687
                                    5 1s    0.37801     6 1s   -0.32235
   34.1     0.00000     2.64612     1 1s    0.28466     1 2py  -0.38440     1 3d2- -0.28799     1 3d2+ -0.54681     1 3d1-  0.61706
                                    2 2py   0.26359     2 3d2- -0.42104     2 3d2+ -0.52213     2 3d1-  0.43867     4 1s   -0.45393
                                    5 1s   -0.31295
   35.1     0.00000     2.79853     1 3d0   0.29943     1 3d1+ -0.38806     2 1s   -0.44658     2 3d0   0.35335     2 3d2-  0.80835
                                    2 3d1+ -0.47659     2 3d1-  0.51783     5 1s   -0.28588     6 1s    0.98118
   36.1     0.00000     2.95963     1 1s    1.71352     1 2px   0.43573     1 2px   0.85573     1 2pz  -0.43807     1 3d2- -0.37838
                                    1 3d1+ -0.66485     1 3d2+  0.65245     2 1s   -1.66169     2 2px   0.45120     2 2px   0.88319
                                    2 2py  -0.27061     2 2pz  -0.42476     2 3d2-  0.27206     2 3d1+  0.73882     2 3d2+ -0.63010


 HOMO      8.1    -0.386999 =     -10.5308eV
 LUMO      9.1     0.061602 =       1.6763eV
 LUMO-HOMO         0.448600 =      12.2070eV


 **********************************************************************************************************************************
 DATASETS  * FILE   NREC   LENGTH (MB)   RECORD NAMES
              1      19       31.13       500      610      700      900      950      970     1000      129      960     1100   
                                          VAR    BASINP    GEOM    SYMINP    ZMAT    AOBASIS   BASIS     P2S    ABASIS      S 
                                         1400     1410     1200     1210     1080     1600     1650     1300     1700   
                                           T        V       H0       H01     AOSYM     SMH    MOLCAS    ERIS     OPER   

              2       4        2.86       700     1000      520     2100   
                                         GEOM     BASIS   MCVARS     RHF  

 PROGRAMS   *        TOTAL    HF-SCF       INT
 CPU TIMES  *         0.39      0.11      0.18
 REAL TIME  *         0.64 SEC
 DISK USED  *        36.24 MB
 **********************************************************************************************************************************


 PROGRAM * MULTI (Direct Multiconfiguration SCF)       Authors: P.J. Knowles, H.-J. Werner (1984)


 Number of closed-shell orbitals:   7 (   7 )
 Number of active  orbitals:        2 (   2 )
 Number of external orbitals:      27 (  27 )

 State symmetry 1

 Number of electrons:     2    Spin symmetry=Singlet   Space symmetry=1
 Number of states:        3
 Number of CSFs:          3   (4 determinants, 4 intermediate states)

 Molecular orbitals read from record     2100.2  Type=RHF/CANONICAL (state 1.1)

 Wavefunction dump at record             2140.2

 Convergence thresholds  0.10E-01 (gradient)  0.10E-05 (energy)  0.10E-02 (step length)

 Weight factors for state symmetry  1:    0.33333   0.33333   0.33333

 Number of orbital rotations:      257   (    14 Core/Active    189 Core/Virtual   0 Active/Active     54 Active/Virtual)
 Total number of variables:        269

 Micro-Iterations solved by the two-step solver

 ITER. MIC  NCI  NEG     ENERGY(VAR)     ENERGY(PROJ)   ENERGY CHANGE     GRAD(0)  GRAD(ORB)   GRAD(CI)     STEP       TIME

   1   11    6    0     -77.66341826     -77.68716032   -0.02374206    0.16289968 0.00079982 0.00000000  0.19D+00      0.15
   2    7    5    0     -77.68636794     -77.68650657   -0.00013863    0.01902392 0.00002888 0.00000000  0.85D-02      0.25
   3    8    5    0     -77.68650693     -77.68650693   -0.00000000    0.00008455 0.00000000 0.00000000  0.68D-04      0.35
   4    3    3    0     -77.68650693     -77.68650693    0.00000000    0.00000000 0.00000000 0.00000000  0.40D-08      0.40

 ** WVFN ****  CONVERGENCE REACHED, FINAL GRADIENT:  0.58D-12



 Results for state 1.1
 =====================

 !MCSCF STATE  1.1 Energy             -77.816643339701
 Nuclear energy                        32.48138866
 Kinetic energy                        77.88364093
 One electron energy                 -168.05706937
 Two electron energy                   57.75903736
 Virial ratio                           1.99913977

 !MCSCF STATE  1.1 Dipole moment       -0.00582835    -0.04153185    -0.02184693
 Dipole moment /Debye                  -0.01481322    -0.10555651    -0.05552572

 Results for state 2.1
 =====================

 !MCSCF STATE  2.1 Energy             -77.714083484311
 Nuclear energy                        32.48138866
 Kinetic energy                        77.95980332
 One electron energy                 -167.75070950
 Two electron energy                   57.55523735
 Virial ratio                           1.99684812

 !MCSCF STATE  2.1 Dipole moment        0.04684460    -0.03635418    -0.00303492
 Dipole moment /Debye                   0.11905929    -0.09239705    -0.00771349

 Results for state 3.1
 =====================

 !MCSCF STATE  3.1 Energy             -77.528793961913
 Nuclear energy                        32.48138866
 Kinetic energy                        78.02091150
 One electron energy                 -167.48955492
 Two electron energy                   57.47937229
 Virial ratio                           1.99369249

 !MCSCF STATE  3.1 Dipole moment        0.11562868    -0.04015363     0.01940370
 Dipole moment /Debye                   0.29387953    -0.10205367     0.04931605

 State-averaged charge density matrix saved on record  2140.2 (density set 1)

 !MCSCF expec         <1.1|DMX|1.1>    -0.005828352023 au =    -0.014813222935 Debye
 !MCSCF trans         <2.1|DMX|1.1>     0.036555508264 au =     0.092908748695 Debye
 !MCSCF expec         <2.1|DMX|2.1>     0.046844598249 au =     0.119059294018 Debye
 !MCSCF trans         <3.1|DMX|1.1>    -0.003099252793 au =    -0.007876998914 Debye
 !MCSCF trans         <3.1|DMX|2.1>     0.035452805626 au =     0.090106141724 Debye
 !MCSCF expec         <3.1|DMX|3.1>     0.115628676265 au =     0.293879531021 Debye

 !MCSCF expec         <1.1|DMY|1.1>    -0.041531847859 au =    -0.105556513881 Debye
 !MCSCF trans         <2.1|DMY|1.1>    -0.019016565723 au =    -0.048332123111 Debye
 !MCSCF expec         <2.1|DMY|2.1>    -0.036354177290 au =    -0.092397049916 Debye
 !MCSCF trans         <3.1|DMY|1.1>    -0.001568764704 au =    -0.003987140996 Debye
 !MCSCF trans         <3.1|DMY|2.1>    -0.020983571020 au =    -0.053331424433 Debye
 !MCSCF expec         <3.1|DMY|3.1>    -0.040153632922 au =    -0.102053670363 Debye

 !MCSCF expec         <1.1|DMZ|1.1>    -0.021846930892 au =    -0.055525722617 Debye
 !MCSCF trans         <2.1|DMZ|1.1>     0.008501017856 au =     0.021606016962 Debye
 !MCSCF expec         <2.1|DMZ|2.1>    -0.003034920649 au =    -0.007713493622 Debye
 !MCSCF trans         <3.1|DMZ|1.1>    -0.001361541395 au =    -0.003460466380 Debye
 !MCSCF trans         <3.1|DMZ|2.1>     0.007732779633 au =     0.019653478059 Debye
 !MCSCF expec         <3.1|DMZ|3.1>     0.019403696365 au =     0.049316046608 Debye


 NATURAL ORBITALS (state averaged)
 =================================

  Orbital  Occupation    Energy     Coefficients
    1.1     2.00000   -11.26602     1 1s    0.99618
    2.1     2.00000   -11.24288     2 1s    0.99606
    3.1     2.00000    -1.05437     1 1s    0.26072     2 1s    0.29564     2 1s    0.25450
    4.1     2.00000    -0.79534     1 1s   -0.33249     2 1s    0.26794
    5.1     2.00000    -0.63066     2 2py   0.35745
    6.1     2.00000    -0.55110     1 2px   0.25393     1 2py  -0.29384     3 1s   -0.25339
    7.1     2.00000    -0.41979     1 2pz   0.32109     1 2pz   0.27520     2 2pz   0.32919     2 2pz   0.28414
    8.1     1.00000    -0.08817     1 1s    0.29434     1 2pz   0.39817     1 2pz   0.41785     2 2pz  -0.40996     2 2pz  -0.43743
    9.1     1.00000    -0.23116     1 2px  -0.30948     2 2px   0.31119     4 1s    0.29227     5 1s    0.29604
   10.1    -0.00000     0.21681     1 1s   -1.20393     1 2px   0.46593     1 2py   0.27806     1 2pz   0.42681     2 1s   -0.99852
                                    2 2px  -0.49577     2 2py  -0.39686     2 2pz  -0.34474     3 1s    0.68486     4 1s    1.03284
                                    5 1s    1.08870     6 1s    0.48009
   11.1    -0.00000     0.26876     1 1s   -1.25899     1 2py  -0.71974     1 2pz   0.49700     2 1s    1.28937     3 1s    1.57356
                                    5 1s   -0.47823     6 1s   -0.73861
   12.1    -0.00000     0.31874     1 1s    1.22717     1 2py  -0.25694     1 2py  -1.02548     1 2pz  -0.32905     2 1s   -1.50458
                                    2 2py  -0.48583     2 2pz  -0.49355     3 1s    0.25062     4 1s   -1.84186     5 1s    1.48469
                                    6 1s    0.52498
   13.1    -0.00000     0.32564     1 2px   0.50278     1 2py  -0.46741     2 1s   -1.80645     2 2py   0.26537     2 2px  -0.27574
                                    2 2py   1.26204     2 2pz  -0.61769     3 1s    0.55524     5 1s   -0.67541     6 1s    2.51306
   14.1    -0.00000     0.43047     1 1s    2.01721     1 2px   1.71680     1 2py  -0.39066     1 2pz  -0.78184     2 1s   -1.59810
                                    2 2px   1.86774     2 2py  -0.69579     2 2pz  -0.64599     3 1s    0.40658     6 1s   -0.99516
   15.1    -0.00000     0.69733     1 2px   0.49806     1 2px  -0.80694     2 2px  -0.56318     2 2px   1.07982     2 2py  -0.31175
                                    4 1s   -0.26588     4 1s    0.44970     5 1s    0.46950     6 1s   -0.45408
   16.1    -0.00000     0.74115     1 1s   -0.52038     1 2px  -0.46488     2 1s   -0.26050     2 2py  -0.56460     2 2px  -0.65877
                                    2 2py   1.39844     3 1s   -0.36835     5 1s   -0.39463     6 1s    0.46957     6 1s    0.54346
   17.1    -0.00000     0.79210     1 1s   -0.51523     1 2py  -0.50747     1 2pz  -0.70219     1 2px  -0.30464     1 2py   1.12140
                                    1 2pz   0.91650     2 1s    0.60479     2 2pz  -0.26074     2 2py  -0.28359     2 2pz   0.30220
                                    4 1s    0.37571
   18.1    -0.00000     0.80478     1 2py   0.41571     1 2pz  -0.26208     1 2py  -0.77491     2 2py  -0.27592     2 2pz  -0.81536
                                    2 2py   0.53216     2 2pz   0.90968
   19.1    -0.00000     0.86824     1 1s   -0.35054     1 1s    0.50257     1 2px  -0.32120     1 2py   0.34797     1 2pz  -0.69919
                                    1 2px   0.72638     1 2py  -0.87665     1 2pz   0.89522     2 1s   -0.29855     2 2pz   0.53322
                                    2 2py   0.27740     2 2pz  -0.94405     3 1s    0.31970
   20.1    -0.00000     0.97944     1 1s   -0.26512     1 2px   0.69072     1 2py   0.35899     1 2px  -1.05420     1 2py  -0.77261
                                    2 2px   0.72002     2 2py   0.40058     2 2px  -1.08534     2 2py  -0.81250     4 1s   -0.99578
                                    5 1s    1.01879
   21.1    -0.00000     1.07862     1 1s   -0.69001     1 1s    0.91912     1 2px   0.57294     1 2py  -0.38686     1 2px  -0.86102
                                    1 2py   0.56180     2 1s   -0.33507     2 1s    0.53366     2 2py  -0.33311     2 2px  -0.47932
                                    2 2py   0.64298     3 1s    0.85161     3 1s   -1.53302     5 1s    0.29133     5 1s   -0.53808
                                    6 1s    0.55584
   22.1    -0.00000     1.09173     1 1s    0.48797     1 2py   0.43835     1 2py  -0.46937     2 1s   -0.65353     2 1s    1.28578
                                    2 2px  -0.27993     2 2py  -0.45246     2 2px   0.45299     2 2py   0.40908     3 1s   -0.45164
                                    3 1s    0.56558     4 1s    0.48081     4 1s   -0.84113     5 1s    0.75530     5 1s   -1.28620
   23.1    -0.00000     1.13276     1 1s   -0.57341     1 1s    0.69378     1 2py   0.49322     1 2pz   0.25298     1 2px  -0.46201
                                    1 2py  -0.51702     2 1s    0.26381     2 2py   0.36015     2 2py  -0.40762     4 1s    0.91085
                                    4 1s   -1.42270     5 1s   -0.61294     5 1s    0.85184
   24.1    -0.00000     1.24355     1 1s   -0.32547     1 1s   -0.66480     1 2px  -1.07961     1 2py   0.81894     1 2pz  -0.25894
                                    2 1s   -1.60945     2 1s    4.33978     2 2pz   1.41609     3 1s   -0.34427     3 1s   -0.45972
                                    5 1s   -0.51181     5 1s   -0.57426     6 1s   -0.55207     6 1s   -1.05290
   25.1    -0.00000     1.27223     1 1s    1.85678     1 1s   -5.00032     1 2px  -0.92914     1 2py   0.45547     1 2pz   1.40461
                                    2 1s    2.15524     2 2py  -0.35711     2 2px  -1.70251     2 2py   1.23595     2 2pz   0.31891
                                    3 1s    0.28954     3 1s    0.45830     4 1s    0.40548     4 1s    0.70611     6 1s   -0.32442
                                    6 1s    1.10630
   26.1    -0.00000     1.33537     1 1s   -0.65816     1 1s    2.04060     1 2px   0.35603     1 2pz  -0.54765     2 1s    1.39206
                                    2 1s   -3.37055     2 2px   0.45255     2 2py  -0.42517     2 2pz   0.26476     2 2py   0.27734
                                    2 2pz  -0.69868     3 1s   -0.26628     4 1s   -0.37899     5 1s    0.27926     6 1s   -0.84913
                                    6 1s    1.80337
   27.1    -0.00000     1.68918     1 1s    0.60837     1 3d0   0.34683     1 3d2- -0.29989     1 3d2+ -0.31931     2 1s   -0.64466
                                    2 3d0  -0.33735     2 3d2-  0.30165     2 3d2+  0.34075
   28.1    -0.00000     1.89859     1 1s    0.42256     1 1s   -1.16657     1 2pz   0.44311     1 3d0   0.34354     2 2px  -0.35614
                                    2 2py   0.29274     2 3d1+  0.47323     2 3d2+  0.38438     2 3d1-  0.46821     3 1s    0.34660
                                    6 1s    0.31540
   29.1    -0.00000     1.95077     1 1s    0.73474     1 2px   0.33368     1 3d2- -0.30419     1 3d1+  0.52913     1 3d2+  0.33155
                                    1 3d1-  0.46989     2 1s    0.37357     2 1s   -1.52118     2 2pz  -0.48942     2 3d0   0.26097
                                    5 1s    0.28677     6 1s    0.44225
   30.1    -0.00000     2.17064     1 1s   -0.25550     1 1s    1.39628     1 2px   0.31073     1 2pz  -0.36346     1 3d0  -0.46279
                                    1 3d2+ -0.36358     2 1s    0.38148     2 1s   -1.64090     2 2px   0.38242     2 2py  -0.32302
                                    2 2pz  -0.44485     2 3d0   0.63416     2 3d2+  0.33610     3 1s   -0.34604     5 1s    0.40781
                                    6 1s    0.33059
   31.1    -0.00000     2.24323     1 1s   -0.50223     1 1s    0.41168     1 2px  -0.27351     1 2px   0.30216     1 3d2- -0.31868
                                    1 3d1+ -0.38688     1 3d2+  0.36086     2 1s   -0.48016     2 2px   0.25117     2 2px  -0.26102
                                    2 3d2- -0.32847     2 3d1+ -0.39725     2 3d2+  0.41077
   32.1    -0.00000     2.34731     1 1s   -0.58813     1 2px  -0.33179     1 2py   0.47981     1 3d0   0.64553     1 3d2- -0.36654
                                    1 3d1- -0.46450     2 1s    0.52241     2 2pz   0.28325     2 3d0   0.35514     2 3d2- -0.33401
                                    4 1s    0.53217     6 1s   -0.36080
   33.1    -0.00000     2.54479     1 1s    0.40225     1 3d2-  0.64723     1 3d1+ -0.38042     1 3d1-  0.42673     2 1s   -0.32248
                                    2 2py  -0.38359     2 3d0   0.36394     2 3d1- -0.59582     3 1s    0.41489     4 1s   -0.33379
                                    5 1s    0.38247     6 1s   -0.34394
   34.1    -0.00000     2.63837     1 1s    0.28799     1 2py  -0.39184     1 3d2- -0.28312     1 3d2+ -0.54423     1 3d1-  0.62789
                                    2 2py   0.25987     2 3d2- -0.43933     2 3d2+ -0.51405     2 3d1-  0.42371     4 1s   -0.44908
                                    5 1s   -0.29453
   35.1    -0.00000     2.80033     1 1s    0.26314     1 3d0   0.30470     1 3d1+ -0.40478     2 1s   -0.46360     2 3d0   0.36949
                                    2 3d2-  0.79654     2 3d1+ -0.47502     2 3d1-  0.51138     5 1s   -0.27499     6 1s    0.97412
   36.1    -0.00000     2.95522     1 1s    1.74223     1 2px   0.42931     1 2px   0.86660     1 2pz  -0.44525     1 3d2- -0.37740
                                    1 3d1+ -0.66488     1 3d2+  0.64989     2 1s   -1.68839     2 2px   0.44555     2 2px   0.89507
                                    2 2py  -0.27918     2 2pz  -0.43221     2 3d2-  0.26623     2 3d1+  0.74428     2 3d2+ -0.62655


 Natural orbital dump (state averaged) at molpro section  2140.2    (Orbital set 2)



 **********************************************************************************************************************************
 DATASETS  * FILE   NREC   LENGTH (MB)   RECORD NAMES
              1      20       31.86       500      610      700      900      950      970     1000      129      960     1100   
                                          VAR    BASINP    GEOM    SYMINP    ZMAT    AOBASIS   BASIS     P2S    ABASIS      S 
                                         1400     1410     1200     1210     1080     1600     1650     1300     1700     1380   
                                           T        V       H0       H01     AOSYM     SMH    MOLCAS    ERIS     OPER     JKOP   

              2       5        5.42       700     1000      520     2100     2140   
                                         GEOM     BASIS   MCVARS     RHF     MCSCF   

 PROGRAMS   *        TOTAL     MULTI    HF-SCF       INT
 CPU TIMES  *         0.84      0.45      0.11      0.18
 REAL TIME  *         1.16 SEC
 DISK USED  *        39.04 MB
 **********************************************************************************************************************************
 Molecular orbitals read from record     2140.2  Type=MCSCF/NATURAL (state averaged)
 Occupation numbers read from record     2140.2  Type=MCSCF/NATURAL (state averaged)
 Orbital energies read from record       2140.2  Type=MCSCF/NATURAL (state averaged)
 Redundancy group numbers read from rec  2140.2  Type=MCSCF/NATURAL (state averaged)

 MULTI/6-31G* energy=    -77.528793961913

           MULTI          HF-SCF
    -77.52879396    -77.82301612
 **********************************************************************************************************************************
 Molpro calculation terminated
