
 Primary working directories    : /scratch.local/johan406.molpro_temp/molpro.mRXokE5snM
 Secondary working directories  : /scratch.local/johan406.molpro_temp/molpro.mRXokE5snM
 Wavefunction directory         : /home/goodpast/johan406/wfu/
 Main file repository           : /scratch.local/johan406.molpro_temp/molpro.mRXokE5snM/

 id        : roweumn

 Nodes     nprocs
 acn09        1

 Using customized tuning parameters: mindgm=1; mindgv=20; mindgc=4; mindgr=1; noblas=0; minvec=7
 default implementation of scratch files=df  


 Variables initialized (934), CPU time= 0.00 sec
                                                                                 !leave this line blank
 
 gprint, orbitals=30
 memory, 125., m
 symmetry, nosym
 nelect=16
 basis=6-31g*
 
 geometry={
 C -0.6165 0.1244 0.3053
 C 0.6453 -0.2042 -0.3524
 H -1.3966 1.0591 -0.2446
 H -0.9522 -0.8529 -0.1208
 H 0.9811 0.8296 0.0936
 H 1.1366 -0.777 0.0015
 }
 
 hf
 {multi,
 closed 7
 occ 9
 wf,spin=0;STATE,3
 }
 
 Commands  initialized (763), CPU time= 0.01 sec, 617 directives.
 Default parameters read. Elapsed time= 0.08 sec

 Checking input...
 Passed
1


                                         ***  PROGRAM SYSTEM MOLPRO  ***
                                       Copyright, TTI GmbH Stuttgart, 2015
                                    Version 2019.2 linked Oct 25 2019 22:50:27


 **********************************************************************************************************************************
 LABEL *                                                                                 
  64 bit serial version                                                                  DATE: 07-Feb-23          TIME: 16:15:39  
 **********************************************************************************************************************************

 SHA1:             8dbd9ae1082e4ce945b0f27595c9eb2d4aa09004
 **********************************************************************************************************************************


 Variable memory set to  125000000 words,  buffer space 

 SETTING NELECT         =        16.00000000                                  
 SETTING BASIS          =    6-31G*
 ZSYMEL=NOSYM


Geometry recognized as XYZ



 Recomputing integrals since basis changed


 Using spherical harmonics

 Library entry C      S 6-31G                selected for orbital group  1
 Library entry C      P 6-31G                selected for orbital group  1
 Library entry C      D 6-31G*               selected for orbital group  1
 Library entry H      S 6-31G                selected for orbital group  2


 PROGRAM * SEWARD (Integral evaluation for generally contracted gaussian basis sets)     Author: Roland Lindh, 1990

 Geometry written to block  1 of record 700


 Point group  C1  



 ATOMIC COORDINATES

 NR  ATOM    CHARGE       X              Y              Z

   1  C       6.00   -1.165016156    0.235081930    0.576933386
   2  C       6.00    1.219440268   -0.385882075   -0.665939486
   3  H       1.00   -2.639191506    2.001408939   -0.462227010
   4  H       1.00   -1.799397216   -1.611747412   -0.228278916
   5  H       1.00    1.854010301    1.567716793    0.176878365
   6  H       1.00    2.147862713   -1.468317199    0.002834589

 Bond lengths in Bohr (Angstrom)

 1-2  2.759703192  1-3  2.524471904  1-4  2.112246386  2-5  2.220263406  2-6  1.575085013
     ( 1.460372038)     ( 1.335893001)     ( 1.117752652)     ( 1.174912797)     ( 0.833499094)

 Bond angles

  1-2-5   82.99246959   1-2-6  118.20997378   2-1-3  118.46371258   2-1-4   83.74670516

  3-1-4  106.22802853   5-2-6  105.96434447

 NUCLEAR CHARGE:                   16
 NUMBER OF PRIMITIVE AOS:          72
 NUMBER OF SYMMETRY AOS:           70
 NUMBER OF CONTRACTIONS:           36   (   36A   )
 NUMBER OF CORE ORBITALS:           2   (    2A   )
 NUMBER OF VALENCE ORBITALS:       12   (   12A   )


 NUCLEAR REPULSION ENERGY   32.75962232

 Eigenvalues of metric

         1 0.877E-02 0.181E-01 0.589E-01 0.676E-01 0.938E-01 0.152E+00 0.236E+00 0.259E+00


 Contracted 2-electron integrals neglected if value below      1.0D-11
 AO integral compression algorithm  1   Integral accuracy      1.0D-11

     1.573 MB (compressed) written to integral file ( 59.2%)


 NUMBER OF SORTED TWO-ELECTRON INTEGRALS:     222111.     BUFFER LENGTH:  32768
 NUMBER OF SEGMENTS:   1  SEGMENT LENGTH:     222111      RECORD LENGTH: 524288

 Memory used in sort:       0.78 MW

 SORT1 READ      284735. AND WROTE      212530. INTEGRALS IN      1 RECORDS. CPU TIME:     0.00 SEC, REAL TIME:     0.01 SEC
 SORT2 READ      212530. AND WROTE      222111. INTEGRALS IN      6 RECORDS. CPU TIME:     0.02 SEC, REAL TIME:     0.02 SEC

 FILE SIZES:   FILE 1:    31.7 MBYTE,  FILE 4:     4.2 MBYTE,   TOTAL:     35.9 MBYTE

 OPERATOR DM      FOR CENTER  0  COORDINATES:    0.000000    0.000000    0.000000


 **********************************************************************************************************************************
 DATASETS  * FILE   NREC   LENGTH (MB)   RECORD NAMES
              1      19       31.13       500      610      700      900      950      970     1000      129      960     1100   
                                          VAR    BASINP    GEOM    SYMINP    ZMAT    AOBASIS   BASIS     P2S    ABASIS      S 
                                         1400     1410     1200     1210     1080     1600     1650     1300     1700   
                                           T        V       H0       H01     AOSYM     SMH    MOLCAS    ERIS     OPER   

 PROGRAMS   *        TOTAL       INT
 CPU TIMES  *         0.27      0.17
 REAL TIME  *         0.43 SEC
 DISK USED  *        36.24 MB
 **********************************************************************************************************************************


 PROGRAM * RHF-SCF (CLOSED SHELL)       Authors: W. Meyer, H.-J. Werner


 NUMBER OF ELECTRONS:       8+    8-    SPACE SYMMETRY=1    SPIN SYMMETRY: Singlet 
 CONVERGENCE THRESHOLDS:    1.00E-05 (Density)    1.00E-07 (Energy)
 MAX. NUMBER OF ITERATIONS:       60
 INTERPOLATION TYPE:            DIIS
 INTERPOLATION STEPS:              2 (START)      1 (STEP)
 LEVEL SHIFTS:                  0.00 (CLOSED)  0.00 (OPEN) 



 Orbital guess generated from atomic densities. Full valence occupancy:    8

 Molecular orbital dump at record        2100.2

 Initial occupancy:   8

 ITERATION    DDIFF          GRAD             ENERGY        2-EL.EN.            DIPOLE MOMENTS         DIIS   ORB.
    1      0.000D+00      0.000D+00       -77.71450604    116.629803   -0.40575    0.31460    0.22350    0    start
    2      0.000D+00      0.912D-02       -77.73768763    115.303260    0.11929   -0.14994   -0.27341    1    diag
    3      0.114D-01      0.543D-02       -77.74447912    115.613586   -0.08674   -0.01298    0.04778    2    diag
    4      0.490D-02      0.174D-02       -77.74577107    115.704936   -0.00008   -0.07066   -0.05074    3    diag
    5      0.237D-02      0.600D-03       -77.74598210    115.624851    0.00260   -0.07458   -0.03415    4    diag
    6      0.966D-03      0.243D-03       -77.74607925    115.635035    0.00942   -0.07629   -0.03642    5    diag
    7      0.791D-03      0.111D-03       -77.74611015    115.635698    0.01079   -0.07509   -0.03718    6    diag
    8      0.462D-03      0.456D-04       -77.74611588    115.637274    0.01067   -0.07471   -0.03755    7    diag
    9      0.232D-03      0.149D-04       -77.74611633    115.637658    0.01032   -0.07460   -0.03763    8    diag
   10      0.669D-04      0.402D-05       -77.74611635    115.637705    0.01017   -0.07461   -0.03755    9    orth
   11      0.156D-04      0.123D-05       -77.74611635    115.637695    0.01011   -0.07460   -0.03753    9    diag
   12      0.343D-05      0.369D-06       -77.74611635    115.637702    0.01010   -0.07460   -0.03753    0    orth

 Final occupancy:   8

 !RHF STATE  1.1 Energy               -77.746116353565
 Nuclear energy                        32.75962232
 One-electron energy                 -168.32458948
 Two-electron energy                   57.81885081
 Virial quotient                       -0.99660347
 !RHF STATE  1.1 Dipole moment          0.01010260    -0.07460402    -0.03752971
 Dipole moment /Debye                   0.02567657    -0.18961208    -0.09538475

 ELECTRON ORBITALS
 =================

  Orbital  Occupation    Energy     Coefficients
    1.1     2.00000   -11.28071     1 1s    0.99632
    2.1     2.00000   -11.24135     2 1s    0.99612
    3.1     2.00000    -1.05374     2 1s    0.32212     2 1s    0.25284
    4.1     2.00000    -0.81432     1 1s   -0.26026     1 1s   -0.31819     2 2px   0.25665
    5.1     2.00000    -0.63475     2 2py   0.36382
    6.1     2.00000    -0.53724     1 2px   0.27918     1 2py  -0.27207     2 2px  -0.26553     3 1s   -0.25128
    7.1     2.00000    -0.39429     2 2pz   0.31785     2 2pz   0.28024
    8.1     2.00000    -0.38706     2 2px  -0.27680     5 1s   -0.26782
    9.1     0.00000     0.05725     1 1s    0.48610     1 2pz   0.30869     1 2pz   0.41437     2 1s    0.27728     2 2pz  -0.34104
                                    2 2pz  -0.48747     3 1s   -0.30457
   10.1     0.00000     0.21903     1 1s   -1.26696     1 2px   0.46295     1 2pz   0.60154     2 1s   -0.70638     2 2px  -0.47790
                                    2 2py  -0.26022     2 2pz  -0.37940     3 1s    1.02173     4 1s    0.79745     5 1s    0.87570
                                    6 1s    0.43808
   11.1     0.00000     0.25380     1 1s   -0.38983     1 2py  -0.28313     1 2py  -0.84140     1 2pz   0.29118     2 1s    1.26581
                                    2 2py   0.43555     3 1s    1.09334     4 1s   -0.68153     5 1s   -0.80812     6 1s   -0.60356
   12.1     0.00000     0.33343     1 1s   -0.74363     1 2px   0.53233     1 2py   0.49656     1 2pz   0.28121     2 1s   -0.46854
                                    2 2py   0.26624     2 2py   1.09369     4 1s    1.54903     5 1s   -1.47896     6 1s    1.35151
   13.1     0.00000     0.33577     1 1s    1.16448     1 2px   0.36150     1 2py  -0.88299     2 1s   -3.08936     2 2px  -0.34343
                                    2 2py   0.69570     2 2pz  -0.90739     4 1s   -1.08126     5 1s    0.42710     6 1s    2.89304
   14.1     0.00000     0.42675     1 1s   -2.18405     1 2px  -1.63292     1 2py   0.39198     1 2pz   0.86265     2 1s    1.25510
                                    2 2px  -1.93355     2 2py   0.96953     2 2pz   0.58891     3 1s   -0.27870     5 1s   -0.27841
                                    6 1s    1.50348
   15.1     0.00000     0.69110     1 2px   0.40472     1 2px  -0.69899     2 1s    0.87341     2 2px  -0.56465     2 2px   1.32716
                                    2 2py  -0.91830     3 1s   -0.29348     4 1s    0.31272     5 1s    0.29743     6 1s   -0.34129
                                    6 1s   -1.04166
   16.1     0.00000     0.72954     1 1s   -0.31267     1 2px   0.38219     1 2px  -0.53843     1 2py  -0.40309     2 1s   -0.73006
                                    2 2py  -0.54806     2 2px  -0.25004     2 2py   1.32772     2 2pz  -0.49681     3 1s   -0.29280
                                    4 1s    0.26309     5 1s   -0.38420     5 1s    0.37034     6 1s    0.34574     6 1s    0.73231
   17.1     0.00000     0.79246     1 1s   -0.39829     1 2py  -0.34695     1 2pz  -0.80393     1 2py   0.71366     1 2pz   0.93346
                                    2 1s    0.33282     2 2pz  -0.44576     2 2pz   0.42194     4 1s    0.29868
   18.1     0.00000     0.81299     1 2py   0.52445     1 2py  -0.95085     1 2pz  -0.37223     2 2py  -0.29265     2 2pz  -0.80869
                                    2 2px   0.34904     2 2py   0.42046     2 2pz   0.87290
   19.1     0.00000     0.88231     1 1s    0.40364     1 1s   -0.89170     1 2px   0.36770     1 2py  -0.53136     1 2pz   0.67013
                                    1 2px  -0.83348     1 2py   1.16147     1 2pz  -0.63372     2 1s    0.32434     2 2pz  -0.42112
                                    2 2pz   0.73792     3 1s   -0.32596     4 1s    0.30764
   20.1     0.00000     0.97002     1 1s    0.33105     1 1s   -0.49352     1 2px   0.66459     1 2py   0.33561     1 2px  -1.12377
                                    1 2py  -0.72533     2 2px   0.71292     2 2py   0.41549     2 2px  -1.16985     2 2py  -0.81574
                                    3 1s    0.26788     4 1s   -1.01170     5 1s    1.04741
   21.1     0.00000     1.02349     1 1s   -0.71014     1 1s    1.06081     1 2px   0.48980     1 2py  -0.33307     1 2px  -0.71891
                                    1 2py   0.37210     2 2px  -0.57486     2 2py   0.39882     3 1s    0.96960     3 1s   -1.55450
                                    6 1s    0.62506
   22.1     0.00000     1.11162     1 1s   -0.31516     1 1s    0.36286     1 2px   0.29557     1 2px  -0.44008     2 1s   -0.81216
                                    2 1s    1.73534     2 2py  -0.54766     2 2py   0.61944     2 2pz   0.33511     4 1s    0.41516
                                    4 1s   -0.70273     5 1s    0.82981     5 1s   -1.48735
   23.1     0.00000     1.17089     1 1s   -0.52505     1 1s    0.56961     1 2py   0.54355     1 2pz   0.25362     1 2px  -0.46281
                                    1 2py  -0.54056     2 1s    0.64929     2 2py   0.29282     2 2py  -0.37066     4 1s    0.95822
                                    4 1s   -1.47244     5 1s   -0.55774     5 1s    0.68829     6 1s   -0.38036
   24.1     0.00000     1.24969     1 1s   -0.30645     1 1s   -0.81163     1 2py  -0.25870     1 2px  -0.96928     1 2py   0.78100
                                    2 1s   -1.65199     2 1s    4.86950     2 2pz   1.50373     3 1s   -0.31025     3 1s   -0.33582
                                    4 1s   -0.27417     5 1s   -0.55449     5 1s   -0.50280     6 1s   -0.40952     6 1s   -1.76584
   25.1     0.00000     1.29211     1 1s   -1.91829     1 1s    5.17762     1 2px   0.98351     1 2py  -0.58222     1 2pz  -1.48716
                                    2 1s    0.55995     2 1s   -2.69353     2 2py   0.26058     2 2px   1.67088     2 2py  -1.19391
                                    2 2pz  -0.44019     3 1s   -0.44036     4 1s   -0.35525     4 1s   -0.86678     5 1s    0.25782
                                    6 1s   -0.79947
   26.1     0.00000     1.49306     1 1s    0.28193     1 1s   -0.82336     2 1s   -1.24150     2 1s    2.83453     2 2px  -0.50830
                                    2 2py   0.50564     2 2pz  -0.30662     2 2px   0.51726     2 2py  -0.64305     2 2pz   0.59898
                                    6 1s    0.89079     6 1s   -2.20136
   27.1     0.00000     1.69194     1 1s    0.59942     1 3d0   0.35242     1 3d2- -0.29798     1 3d2+ -0.30822     2 1s   -0.72171
                                    2 3d0  -0.33182     2 3d2-  0.30603     2 3d2+  0.35268
   28.1     0.00000     1.87685     1 1s    0.38837     1 1s   -1.06016     1 2pz   0.39451     1 3d0   0.33016     1 3d2+  0.25038
                                    2 2px  -0.38328     2 2py   0.32925     2 3d1+  0.44813     2 3d2+  0.37031     2 3d1-  0.48690
                                    3 1s    0.31506     6 1s    0.43395
   29.1     0.00000     1.97198     1 1s    0.55401     1 2px   0.28809     1 3d2- -0.28495     1 3d1+  0.53819     1 3d2+  0.33178
                                    1 3d1-  0.45188     2 1s    0.27889     2 1s   -1.42795     2 2pz  -0.46981     2 3d0   0.26146
                                    2 3d1- -0.25442     5 1s    0.32269     6 1s    0.49164
   30.1     0.00000     2.14985     1 1s    1.06665     1 2pz  -0.25660     1 3d0  -0.36617     1 3d2- -0.27391     1 3d2+ -0.35704
                                    2 1s    0.36786     2 1s   -1.54718     2 2px   0.35439     2 2py  -0.31408     2 2pz  -0.43834
                                    2 3d0   0.64674     2 3d1+  0.26496     2 3d2+  0.30315     3 1s   -0.29606     5 1s    0.43887
                                    6 1s    0.33086
   31.1     0.00000     2.24446     1 1s   -0.51587     1 1s    0.52322     1 2px  -0.26037     1 2px   0.32443     1 3d2- -0.33080
                                    1 3d1+ -0.37128     1 3d2+  0.33083     2 1s   -0.47990     2 3d2- -0.34836     2 3d1+ -0.38155
                                    2 3d2+  0.43089
   32.1     0.00000     2.36211     1 1s   -0.92002     1 2px  -0.39000     1 2py   0.50435     1 3d0   0.70285     1 3d2- -0.37281
                                    1 3d1- -0.49710     2 1s    0.84286     2 2pz   0.35359     2 3d2- -0.29389     4 1s    0.62223
                                    6 1s   -0.38819
   33.1     0.00000     2.51270     1 1s    0.56258     1 2pz  -0.27994     1 3d2-  0.61186     1 3d1+ -0.45203     1 3d1-  0.32770
                                    2 1s   -0.37128     2 2px   0.28878     2 2py  -0.41572     2 3d0   0.47184     2 3d1- -0.54126
                                    3 1s    0.27232     4 1s   -0.30761     5 1s    0.35142     6 1s   -0.29482
   34.1     0.00000     2.64453     1 1s    0.36767     1 2py  -0.40210     1 3d2- -0.27427     1 3d2+ -0.55175     1 3d1-  0.62067
                                    2 3d2- -0.37765     2 3d2+ -0.52438     2 3d1-  0.44900     4 1s   -0.47372     5 1s   -0.31030
   35.1     0.00000     2.93215     1 1s    1.47416     1 2px   0.28718     1 2px   0.77300     1 2pz  -0.37693     1 3d1+ -0.69179
                                    1 3d2+  0.52063     2 1s   -1.63243     2 2pz  -0.31770     2 2px   0.59246     2 2pz  -0.42047
                                    2 3d0   0.32289     2 3d2-  0.82184     2 3d2+ -0.48293     2 3d1-  0.27615     6 1s    0.86666
   36.1     0.00000     2.99209     1 1s    0.91738     1 2px   0.32662     1 2px   0.41403     1 3d0  -0.27562     1 3d2- -0.31226
                                    1 3d2+  0.40765     2 1s    0.29850     2 1s   -0.62707     2 2px   0.52665     2 2py  -0.39579
                                    2 2px   0.65598     2 2py  -0.37561     2 3d2- -0.48873     2 3d1+  0.86525     2 3d2+ -0.40077
                                    2 3d1- -0.59156     6 1s   -1.22621


 HOMO      8.1    -0.387062 =     -10.5325eV
 LUMO      9.1     0.057246 =       1.5578eV
 LUMO-HOMO         0.444309 =      12.0903eV


 **********************************************************************************************************************************
 DATASETS  * FILE   NREC   LENGTH (MB)   RECORD NAMES
              1      19       31.13       500      610      700      900      950      970     1000      129      960     1100   
                                          VAR    BASINP    GEOM    SYMINP    ZMAT    AOBASIS   BASIS     P2S    ABASIS      S 
                                         1400     1410     1200     1210     1080     1600     1650     1300     1700   
                                           T        V       H0       H01     AOSYM     SMH    MOLCAS    ERIS     OPER   

              2       4        2.86       700     1000      520     2100   
                                         GEOM     BASIS   MCVARS     RHF  

 PROGRAMS   *        TOTAL    HF-SCF       INT
 CPU TIMES  *         0.39      0.12      0.17
 REAL TIME  *         0.68 SEC
 DISK USED  *        36.24 MB
 **********************************************************************************************************************************


 PROGRAM * MULTI (Direct Multiconfiguration SCF)       Authors: P.J. Knowles, H.-J. Werner (1984)


 Number of closed-shell orbitals:   7 (   7 )
 Number of active  orbitals:        2 (   2 )
 Number of external orbitals:      27 (  27 )

 State symmetry 1

 Number of electrons:     2    Spin symmetry=Singlet   Space symmetry=1
 Number of states:        3
 Number of CSFs:          3   (4 determinants, 4 intermediate states)

 Molecular orbitals read from record     2100.2  Type=RHF/CANONICAL (state 1.1)

 Wavefunction dump at record             2140.2

 Convergence thresholds  0.10E-01 (gradient)  0.10E-05 (energy)  0.10E-02 (step length)

 Weight factors for state symmetry  1:    0.33333   0.33333   0.33333

 Number of orbital rotations:      257   (    14 Core/Active    189 Core/Virtual   0 Active/Active     54 Active/Virtual)
 Total number of variables:        269

 Micro-Iterations solved by the two-step solver

 ITER. MIC  NCI  NEG     ENERGY(VAR)     ENERGY(PROJ)   ENERGY CHANGE     GRAD(0)  GRAD(ORB)   GRAD(CI)     STEP       TIME

   1    9    6    0     -77.58108291     -77.61154518   -0.03046228    0.15479379 0.00033360 0.00000000  0.23D+00      0.16
   2    6    5    0     -77.61066788     -77.61107143   -0.00040354    0.03155966 0.00005995 0.00000000  0.17D-01      0.25
   3    7    5    0     -77.61107337     -77.61107341   -0.00000003    0.00023656 0.00000002 0.00000000  0.22D-03      0.35
   4    4    3    0     -77.61107341     -77.61107341   -0.00000000    0.00000003 0.00000000 0.00000000  0.34D-07      0.42

 ** WVFN ****  CONVERGENCE REACHED, FINAL GRADIENT:  0.10D-12



 Results for state 1.1
 =====================

 !MCSCF STATE  1.1 Energy             -77.739767815989
 Nuclear energy                        32.75962232
 Kinetic energy                        78.06864349
 One electron energy                 -168.40628894
 Two electron energy                   57.90689881
 Virial ratio                           1.99578735

 !MCSCF STATE  1.1 Dipole moment       -0.01495728    -0.07287475    -0.03780847
 Dipole moment /Debye                  -0.03801514    -0.18521700    -0.09609326

 Results for state 2.1
 =====================

 !MCSCF STATE  2.1 Energy             -77.638332161347
 Nuclear energy                        32.75962232
 Kinetic energy                        78.14550484
 One electron energy                 -168.09446080
 Two electron energy                   57.69650632
 Virial ratio                           1.99350989

 !MCSCF STATE  2.1 Dipole moment        0.08295249    -0.06430822    -0.00424439
 Dipole moment /Debye                   0.21083038    -0.16344449    -0.01078746

 Results for state 3.1
 =====================

 !MCSCF STATE  3.1 Energy             -77.455120240309
 Nuclear energy                        32.75962232
 Kinetic energy                        78.20499254
 One electron energy                 -167.82272072
 Two electron energy                   57.60797816
 Virial ratio                           1.99041145

 !MCSCF STATE  3.1 Dipole moment        0.21545684    -0.07504453     0.03631430
 Dipole moment /Debye                   0.54760078    -0.19073168     0.09229571

 State-averaged charge density matrix saved on record  2140.2 (density set 1)

 !MCSCF expec         <1.1|DMX|1.1>    -0.014957284610 au =    -0.038015135420 Debye
 !MCSCF trans         <2.1|DMX|1.1>    -0.074770810974 au =    -0.190035997756 Debye
 !MCSCF expec         <2.1|DMX|2.1>     0.082952486259 au =     0.210830380027 Debye
 !MCSCF trans         <3.1|DMX|1.1>    -0.005399920483 au =    -0.013724329901 Debye
 !MCSCF trans         <3.1|DMX|2.1>    -0.072937246753 au =    -0.185375847603 Debye
 !MCSCF expec         <3.1|DMX|3.1>     0.215456835809 au =     0.547600784755 Debye

 !MCSCF expec         <1.1|DMY|1.1>    -0.072874745674 au =    -0.185216996111 Debye
 !MCSCF trans         <2.1|DMY|1.1>     0.039127784563 au =     0.099446394691 Debye
 !MCSCF expec         <2.1|DMY|2.1>    -0.064308220210 au =    -0.163444486321 Debye
 !MCSCF trans         <3.1|DMY|1.1>    -0.003126885094 au =    -0.007947228617 Debye
 !MCSCF trans         <3.1|DMY|2.1>     0.043049655026 au =     0.109414142221 Debye
 !MCSCF expec         <3.1|DMY|3.1>    -0.075044530495 au =    -0.190731677816 Debye

 !MCSCF expec         <1.1|DMZ|1.1>    -0.037808473633 au =    -0.096093260416 Debye
 !MCSCF trans         <2.1|DMZ|1.1>    -0.015682519373 au =    -0.039858377589 Debye
 !MCSCF expec         <2.1|DMZ|2.1>    -0.004244392034 au =    -0.010787461907 Debye
 !MCSCF trans         <3.1|DMZ|1.1>    -0.002429405490 au =    -0.006174528406 Debye
 !MCSCF trans         <3.1|DMZ|2.1>    -0.014234513402 au =    -0.036178154573 Debye
 !MCSCF expec         <3.1|DMZ|3.1>     0.036314304752 au =     0.092295710672 Debye


 NATURAL ORBITALS (state averaged)
 =================================

  Orbital  Occupation    Energy     Coefficients
    1.1     2.00000   -11.27656     1 1s    0.99629
    2.1     2.00000   -11.23619     2 1s    0.99608
    3.1     2.00000    -1.06588     2 1s    0.31329     2 1s    0.25336
    4.1     2.00000    -0.81727     1 1s   -0.25230     1 1s   -0.32972
    5.1     2.00000    -0.63938     2 2py   0.36907
    6.1     2.00000    -0.53385     1 2py  -0.29912     3 1s   -0.25492     3 1s   -0.26149
    7.1     2.00000    -0.42086     1 2pz   0.31642     1 2pz   0.26874     2 2pz   0.33412     2 2pz   0.28500
    8.1     1.00000    -0.23292     1 2px   0.30829     2 2px  -0.31256     4 1s   -0.28925     5 1s   -0.29702
    9.1     1.00000    -0.09156     1 1s    0.31270     1 2pz   0.39146     1 2pz   0.40487     2 2pz  -0.41477     2 2pz  -0.43907
   10.1    -0.00000     0.20871     1 1s   -1.26429     1 2px   0.45792     1 2pz   0.49505     2 1s   -0.83996     2 2px  -0.48602
                                    2 2py  -0.32086     2 2pz  -0.32232     3 1s    0.89787     4 1s    0.88991     5 1s    0.96974
                                    6 1s    0.45276
   11.1    -0.00000     0.25042     1 1s   -0.62544     1 2py  -0.28132     1 2py  -0.79920     1 2pz   0.34316     2 1s    1.23062
                                    2 2py   0.41244     3 1s    1.21274     4 1s   -0.49156     5 1s   -0.74418     6 1s   -0.57964
   12.1    -0.00000     0.31787     1 1s   -1.35627     1 2py   0.94795     1 2pz   0.39238     2 1s    1.25966     2 2py   0.62465
                                    2 2pz   0.39746     4 1s    1.91407     5 1s   -1.48807
   13.1    -0.00000     0.33639     1 1s    0.50425     1 2px   0.55324     1 2py  -0.47767     2 1s   -2.85161     2 2px  -0.28121
                                    2 2py   1.19456     2 2pz  -0.80683     3 1s    0.29364     5 1s   -0.39991     6 1s    3.20328
   14.1    -0.00000     0.43199     1 1s   -2.04267     1 2px  -1.65538     1 2py   0.29583     1 2pz   0.80102     2 1s    1.17812
                                    2 2px  -1.93179     2 2py   0.85080     2 2pz   0.55080     3 1s   -0.28807     6 1s    1.45361
   15.1    -0.00000     0.68993     1 2px   0.41385     1 2px  -0.69298     2 1s    0.77303     2 2px  -0.56355     2 2px   1.32806
                                    2 2py  -0.85439     3 1s   -0.28410     4 1s    0.36430     5 1s    0.36560     6 1s   -0.32074
                                    6 1s   -1.01726
   16.1    -0.00000     0.72414     1 1s   -0.38653     1 2px   0.34529     1 2px  -0.51124     1 2py  -0.38255     2 1s   -0.74248
                                    2 2py  -0.53442     2 2px  -0.36232     2 2py   1.37039     2 2pz  -0.48774     3 1s   -0.29505
                                    4 1s    0.27997     5 1s   -0.42025     5 1s    0.38723     6 1s    0.36412     6 1s    0.77470
   17.1    -0.00000     0.79186     1 1s   -0.64721     1 2py  -0.33397     1 2pz  -0.78644     1 2py   0.76038     1 2pz   1.01676
                                    2 1s    0.53945     2 2pz  -0.44509     2 2px  -0.27039     2 2pz   0.47326     4 1s    0.30404
   18.1    -0.00000     0.81127     1 2py   0.50110     1 2py  -0.91689     1 2pz  -0.41198     2 2py  -0.28637     2 2pz  -0.79605
                                    2 2px   0.33595     2 2py   0.42590     2 2pz   0.96707     6 1s   -0.32170
   19.1    -0.00000     0.88012     1 1s    0.36686     1 1s   -0.86427     1 2px   0.37135     1 2py  -0.52981     1 2pz   0.66274
                                    1 2px  -0.87124     1 2py   1.17419     1 2pz  -0.66682     2 1s    0.29865     2 2pz  -0.38499
                                    2 2pz   0.76595     3 1s   -0.37367     4 1s    0.27574
   20.1    -0.00000     0.97629     1 1s    0.35471     1 1s   -0.46860     1 2px   0.65787     1 2py   0.33002     1 2px  -1.04665
                                    1 2py  -0.72121     2 2px   0.70798     2 2py   0.42838     2 2px  -1.09854     2 2py  -0.83676
                                    3 1s   -0.26777     3 1s    0.31483     4 1s   -0.94877     5 1s    1.03263
   21.1    -0.00000     1.03117     1 1s   -0.72678     1 1s    1.09198     1 2px   0.52257     1 2py  -0.30822     1 2px  -0.74710
                                    1 2py   0.33445     2 2px   0.26727     2 2px  -0.59159     2 2py   0.40164     3 1s    0.94844
                                    3 1s   -1.52620     4 1s   -0.25181     6 1s    0.62836
   22.1    -0.00000     1.08402     1 1s    0.27390     1 2px   0.29186     1 2px  -0.34794     2 1s   -0.73175     2 1s    1.46495
                                    2 2py  -0.57538     2 2py   0.65782     3 1s   -0.27737     4 1s    0.33366     4 1s   -0.54734
                                    5 1s    0.89151     5 1s   -1.49588
   23.1    -0.00000     1.13508     1 1s   -0.55270     1 1s    0.63462     1 2py   0.59568     1 2px  -0.50380     1 2py  -0.60561
                                    2 1s    0.69207     2 2py  -0.32630     4 1s    0.99104     4 1s   -1.56220     5 1s   -0.47543
                                    5 1s    0.59543     6 1s   -0.33277
   24.1    -0.00000     1.23867     1 1s   -0.27190     1 1s   -0.93641     1 2px  -1.04142     1 2py   0.79370     2 1s   -1.70479
                                    2 1s    5.03457     2 2pz   1.51500     3 1s   -0.31073     3 1s   -0.32702     5 1s   -0.51860
                                    5 1s   -0.55877     6 1s   -0.42621     6 1s   -1.73466
   25.1    -0.00000     1.28715     1 1s   -1.93246     1 1s    5.15750     1 2px   0.97236     1 2py  -0.53445     1 2pz  -1.47333
                                    2 1s    0.52128     2 1s   -2.56899     2 2px   1.68085     2 2py  -1.18354     2 2pz  -0.39849
                                    3 1s   -0.45494     4 1s   -0.35578     4 1s   -0.84894     6 1s   -0.83447
   26.1    -0.00000     1.49190     1 1s    0.25955     1 1s   -0.79486     2 1s   -1.25056     2 1s    2.85701     2 2px  -0.51119
                                    2 2py   0.51458     2 2pz  -0.28379     2 2px   0.52579     2 2py  -0.66055     2 2pz   0.59449
                                    6 1s    0.88371     6 1s   -2.22324
   27.1    -0.00000     1.68591     1 1s    0.61574     1 3d0   0.34692     1 3d2- -0.30051     1 3d2+ -0.31162     2 1s   -0.71351
                                    2 3d0  -0.32859     2 3d2-  0.30532     2 3d2+  0.35395
   28.1    -0.00000     1.87328     1 1s    0.38021     1 1s   -1.03875     1 2pz   0.38723     1 3d0   0.32696     1 3d2+  0.25131
                                    2 2px  -0.38168     2 2py   0.33415     2 3d1+  0.44941     2 3d2+  0.37764     2 3d1-  0.48540
                                    3 1s    0.31615     6 1s    0.44015
   29.1    -0.00000     1.96906     1 1s    0.53992     1 2px   0.28292     1 3d2- -0.29135     1 3d1+  0.53390     1 3d2+  0.33746
                                    1 3d1-  0.45220     2 1s    0.26149     2 1s   -1.38358     2 2pz  -0.45644     2 3d0   0.26172
                                    2 3d1- -0.25359     5 1s    0.31517     6 1s    0.49319
   30.1    -0.00000     2.14862     1 1s    1.06842     1 2pz  -0.26019     1 3d0  -0.36974     1 3d2- -0.28232     1 3d2+ -0.34830
                                    2 1s    0.35360     2 1s   -1.50900     2 2px   0.34542     2 2py  -0.31840     2 2pz  -0.42094
                                    2 3d0   0.64922     2 3d2+  0.31679     3 1s   -0.29892     5 1s    0.43721     6 1s    0.32479
   31.1    -0.00000     2.23812     1 1s   -0.50380     1 1s    0.44239     1 2px  -0.27399     1 2px   0.29869     1 3d2- -0.32763
                                    1 3d1+ -0.37496     1 3d2+  0.34296     2 1s   -0.48790     2 1s    0.25267     2 3d2- -0.35386
                                    2 3d1+ -0.39822     2 3d2+  0.42062
   32.1    -0.00000     2.35680     1 1s   -0.95674     1 2px  -0.40224     1 2py   0.52173     1 3d0   0.70650     1 3d2- -0.37562
                                    1 3d1- -0.51152     2 1s    0.85685     2 2pz   0.35763     2 3d2- -0.28386     4 1s    0.61609
                                    6 1s   -0.39997
   33.1    -0.00000     2.51081     1 1s    0.52205     1 2pz  -0.27103     1 3d2-  0.60936     1 3d1+ -0.44593     1 3d1-  0.30748
                                    2 1s   -0.34117     2 2px   0.27726     2 2py  -0.42627     2 3d0   0.46722     2 3d1- -0.55887
                                    3 1s    0.27050     4 1s   -0.27879     5 1s    0.35368     6 1s   -0.32002
   34.1    -0.00000     2.63684     1 1s    0.37427     1 2py  -0.40831     1 3d2- -0.26719     1 3d2+ -0.55067     1 3d1-  0.62975
                                    2 3d2- -0.38976     2 3d2+ -0.51717     2 3d1-  0.43676     4 1s   -0.46817     5 1s   -0.29379
   35.1    -0.00000     2.92853     1 1s    1.53483     1 2px   0.29309     1 2px   0.79842     1 2pz  -0.39471     1 3d1+ -0.70798
                                    1 3d2+  0.53103     2 1s   -1.67838     2 2pz  -0.31897     2 2px   0.62807     2 2pz  -0.42994
                                    2 3d0   0.32900     2 3d2-  0.79912     2 3d2+ -0.49628     2 3d1-  0.25028     6 1s    0.82227
   36.1    -0.00000     2.99062     1 1s    0.87828     1 2px   0.31199     1 2px   0.39207     1 3d0  -0.28247     1 3d2- -0.30380
                                    1 3d2+  0.38956     2 1s    0.31241     2 1s   -0.58522     2 2px   0.51581     2 2py  -0.39785
                                    2 2px   0.63772     2 2py  -0.37634     2 3d2- -0.51354     2 3d1+  0.86030     2 3d2+ -0.37988
                                    2 3d1- -0.60100     6 1s   -1.25461


 Natural orbital dump (state averaged) at molpro section  2140.2    (Orbital set 2)



 **********************************************************************************************************************************
 DATASETS  * FILE   NREC   LENGTH (MB)   RECORD NAMES
              1      20       31.86       500      610      700      900      950      970     1000      129      960     1100   
                                          VAR    BASINP    GEOM    SYMINP    ZMAT    AOBASIS   BASIS     P2S    ABASIS      S 
                                         1400     1410     1200     1210     1080     1600     1650     1300     1700     1380   
                                           T        V       H0       H01     AOSYM     SMH    MOLCAS    ERIS     OPER     JKOP   

              2       5        5.42       700     1000      520     2100     2140   
                                         GEOM     BASIS   MCVARS     RHF     MCSCF   

 PROGRAMS   *        TOTAL     MULTI    HF-SCF       INT
 CPU TIMES  *         0.86      0.47      0.12      0.17
 REAL TIME  *         1.35 SEC
 DISK USED  *        39.04 MB
 **********************************************************************************************************************************
 Molecular orbitals read from record     2140.2  Type=MCSCF/NATURAL (state averaged)
 Occupation numbers read from record     2140.2  Type=MCSCF/NATURAL (state averaged)
 Orbital energies read from record       2140.2  Type=MCSCF/NATURAL (state averaged)
 Redundancy group numbers read from rec  2140.2  Type=MCSCF/NATURAL (state averaged)

 MULTI/6-31G* energy=    -77.455120240309

           MULTI          HF-SCF
    -77.45512024    -77.74611635
 **********************************************************************************************************************************
 Molpro calculation terminated
