
 Primary working directories    : /scratch.local/johan406.molpro_temp/molpro.9SFbueqX2f
 Secondary working directories  : /scratch.local/johan406.molpro_temp/molpro.9SFbueqX2f
 Wavefunction directory         : /home/goodpast/johan406/wfu/
 Main file repository           : /scratch.local/johan406.molpro_temp/molpro.9SFbueqX2f/

 id        : roweumn

 Nodes     nprocs
 acn09        1

 Using customized tuning parameters: mindgm=1; mindgv=20; mindgc=4; mindgr=1; noblas=0; minvec=7
 default implementation of scratch files=df  


 Variables initialized (934), CPU time= 0.00 sec
                                                                                 !leave this line blank
 
 gprint, orbitals=30
 memory, 125., m
 symmetry, nosym
 nelect=16
 basis=6-31g*
 
 geometry={
 C -0.6152 0.1227 0.3062
 C 0.6466 -0.2064 -0.3515
 H -1.4138 1.0807 -0.2565
 H -0.9509 -0.8511 -0.1186
 H 0.9824 0.8313 0.0958
 H 1.1181 -0.7546 -0.0108
 }
 
 hf
 {multi,
 closed 7
 occ 9
 wf,spin=0;STATE,3
 }
 
 Commands  initialized (763), CPU time= 0.01 sec, 617 directives.
 Default parameters read. Elapsed time= 0.08 sec

 Checking input...
 Passed
1


                                         ***  PROGRAM SYSTEM MOLPRO  ***
                                       Copyright, TTI GmbH Stuttgart, 2015
                                    Version 2019.2 linked Oct 25 2019 22:50:27


 **********************************************************************************************************************************
 LABEL *                                                                                 
  64 bit serial version                                                                  DATE: 07-Feb-23          TIME: 16:16:31  
 **********************************************************************************************************************************

 SHA1:             8dbd9ae1082e4ce945b0f27595c9eb2d4aa09004
 **********************************************************************************************************************************


 Variable memory set to  125000000 words,  buffer space 

 SETTING NELECT         =        16.00000000                                  
 SETTING BASIS          =    6-31G*
 ZSYMEL=NOSYM


Geometry recognized as XYZ



 Recomputing integrals since basis changed


 Using spherical harmonics

 Library entry C      S 6-31G                selected for orbital group  1
 Library entry C      P 6-31G                selected for orbital group  1
 Library entry C      D 6-31G*               selected for orbital group  1
 Library entry H      S 6-31G                selected for orbital group  2


 PROGRAM * SEWARD (Integral evaluation for generally contracted gaussian basis sets)     Author: Roland Lindh, 1990

 Geometry written to block  1 of record 700


 Point group  C1  



 ATOMIC COORDINATES

 NR  ATOM    CHARGE       X              Y              Z

   1  C       6.00   -1.162559512    0.231869395    0.578634139
   2  C       6.00    1.221896912   -0.390039472   -0.664238733
   3  H       1.00   -2.671694795    2.042227023   -0.484714751
   4  H       1.00   -1.796940572   -1.608345905   -0.224121518
   5  H       1.00    1.856466945    1.570929327    0.181035763
   6  H       1.00    2.112902780   -1.425987334   -0.020409042

 Bond lengths in Bohr (Angstrom)

 1-2  2.759915950  1-3  2.585651737  1-4  2.105528040  2-5  2.227681919  2-6  1.510495316
     ( 1.460484625)     ( 1.368267974)     ( 1.114197456)     ( 1.178838505)     ( 0.799319698)

 Bond angles

  1-2-5   82.92742498   1-2-6  118.17883649   2-1-3  118.47849402   2-1-4   83.78093269

  3-1-4  106.21752251   5-2-6  105.89994281

 NUCLEAR CHARGE:                   16
 NUMBER OF PRIMITIVE AOS:          72
 NUMBER OF SYMMETRY AOS:           70
 NUMBER OF CONTRACTIONS:           36   (   36A   )
 NUMBER OF CORE ORBITALS:           2   (    2A   )
 NUMBER OF VALENCE ORBITALS:       12   (   12A   )


 NUCLEAR REPULSION ENERGY   32.87317492

 Eigenvalues of metric

         1 0.852E-02 0.166E-01 0.586E-01 0.682E-01 0.966E-01 0.135E+00 0.236E+00 0.258E+00


 Contracted 2-electron integrals neglected if value below      1.0D-11
 AO integral compression algorithm  1   Integral accuracy      1.0D-11

     1.573 MB (compressed) written to integral file ( 59.1%)


 NUMBER OF SORTED TWO-ELECTRON INTEGRALS:     222111.     BUFFER LENGTH:  32768
 NUMBER OF SEGMENTS:   1  SEGMENT LENGTH:     222111      RECORD LENGTH: 524288

 Memory used in sort:       0.78 MW

 SORT1 READ      284735. AND WROTE      212530. INTEGRALS IN      1 RECORDS. CPU TIME:     0.01 SEC, REAL TIME:     0.00 SEC
 SORT2 READ      212530. AND WROTE      222111. INTEGRALS IN      6 RECORDS. CPU TIME:     0.02 SEC, REAL TIME:     0.03 SEC

 FILE SIZES:   FILE 1:    31.7 MBYTE,  FILE 4:     4.2 MBYTE,   TOTAL:     35.9 MBYTE

 OPERATOR DM      FOR CENTER  0  COORDINATES:    0.000000    0.000000    0.000000


 **********************************************************************************************************************************
 DATASETS  * FILE   NREC   LENGTH (MB)   RECORD NAMES
              1      19       31.13       500      610      700      900      950      970     1000      129      960     1100   
                                          VAR    BASINP    GEOM    SYMINP    ZMAT    AOBASIS   BASIS     P2S    ABASIS      S 
                                         1400     1410     1200     1210     1080     1600     1650     1300     1700   
                                           T        V       H0       H01     AOSYM     SMH    MOLCAS    ERIS     OPER   

 PROGRAMS   *        TOTAL       INT
 CPU TIMES  *         0.30      0.20
 REAL TIME  *         0.47 SEC
 DISK USED  *        36.24 MB
 **********************************************************************************************************************************


 PROGRAM * RHF-SCF (CLOSED SHELL)       Authors: W. Meyer, H.-J. Werner


 NUMBER OF ELECTRONS:       8+    8-    SPACE SYMMETRY=1    SPIN SYMMETRY: Singlet 
 CONVERGENCE THRESHOLDS:    1.00E-05 (Density)    1.00E-07 (Energy)
 MAX. NUMBER OF ITERATIONS:       60
 INTERPOLATION TYPE:            DIIS
 INTERPOLATION STEPS:              2 (START)      1 (STEP)
 LEVEL SHIFTS:                  0.00 (CLOSED)  0.00 (OPEN) 



 Orbital guess generated from atomic densities. Full valence occupancy:    8

 Molecular orbital dump at record        2100.2

 Initial occupancy:   8

 ITERATION    DDIFF          GRAD             ENERGY        2-EL.EN.            DIPOLE MOMENTS         DIIS   ORB.
    1      0.000D+00      0.000D+00       -77.67566159    116.822511   -0.47028    0.36537    0.26084    0    start
    2      0.000D+00      0.974D-02       -77.70046128    115.402548    0.13887   -0.17171   -0.31649    1    diag
    3      0.124D-01      0.618D-02       -77.70918053    115.708789   -0.09232   -0.01792    0.04337    2    diag
    4      0.539D-02      0.175D-02       -77.71054052    115.821859   -0.00428   -0.07601   -0.05392    3    diag
    5      0.244D-02      0.626D-03       -77.71076843    115.735813    0.00112   -0.08217   -0.03741    4    diag
    6      0.101D-02      0.248D-03       -77.71086693    115.745921    0.00876   -0.08405   -0.03979    5    diag
    7      0.795D-03      0.114D-03       -77.71089813    115.746443    0.01048   -0.08284   -0.04065    6    diag
    8      0.452D-03      0.491D-04       -77.71090489    115.748145    0.01044   -0.08233   -0.04111    7    diag
    9      0.252D-03      0.161D-04       -77.71090542    115.748555    0.01004   -0.08221   -0.04121    8    diag
   10      0.726D-04      0.437D-05       -77.71090545    115.748621    0.00987   -0.08221   -0.04112    9    orth
   11      0.172D-04      0.140D-05       -77.71090545    115.748611    0.00979   -0.08220   -0.04109    9    diag
   12      0.400D-05      0.424D-06       -77.71090545    115.748619    0.00978   -0.08221   -0.04109    0    orth

 Final occupancy:   8

 !RHF STATE  1.1 Energy               -77.710905450004
 Nuclear energy                        32.87317492
 One-electron energy                 -168.45838962
 Two-electron energy                   57.87430926
 Virial quotient                       -0.99520528
 !RHF STATE  1.1 Dipole moment          0.00978418    -0.08220749    -0.04109380
 Dipole moment /Debye                   0.02486729    -0.20893690    -0.10444319

 ELECTRON ORBITALS
 =================

  Orbital  Occupation    Energy     Coefficients
    1.1     2.00000   -11.28349     1 1s    0.99634
    2.1     2.00000   -11.24055     2 1s    0.99610
    3.1     2.00000    -1.05844     2 1s    0.32751
    4.1     2.00000    -0.82124     1 1s   -0.26472     1 1s   -0.31831     2 2px   0.26587
    5.1     2.00000    -0.63683     2 2py   0.36383
    6.1     2.00000    -0.53226     1 2px   0.27718     1 2py  -0.26936     2 2px  -0.26349     3 1s   -0.25739
    7.1     2.00000    -0.39499     2 2pz   0.31648     2 2pz   0.27611
    8.1     2.00000    -0.38709     2 2px  -0.27272     5 1s   -0.26296
    9.1     0.00000     0.05554     1 1s    0.49439     1 2pz   0.30466     1 2pz   0.40515     2 1s    0.25893     2 2pz  -0.34176
                                    2 2pz  -0.48631     3 1s   -0.32112
   10.1     0.00000     0.21474     1 1s   -1.23413     1 2px   0.45398     1 2pz   0.61832     2 1s   -0.63242     2 2px  -0.45767
                                    2 2pz  -0.37454     3 1s    1.07047     4 1s    0.71645     5 1s    0.79334     6 1s    0.42995
   11.1     0.00000     0.25026     1 2py  -0.27854     1 2py  -0.82926     2 1s    1.29729     2 2py   0.47298     3 1s    0.94719
                                    4 1s   -0.75268     5 1s   -0.89929     6 1s   -0.61505
   12.1     0.00000     0.33327     1 1s   -0.99820     1 2px   0.44103     1 2py   0.70167     1 2pz   0.32468     2 2py   0.89255
                                    4 1s    1.78061     5 1s   -1.51238     6 1s    0.68276
   13.1     0.00000     0.33831     1 1s    1.02463     1 2px   0.49112     1 2py  -0.72430     2 1s   -3.35398     2 2px  -0.30835
                                    2 2py   0.93970     2 2pz  -0.93913     4 1s   -0.68839     6 1s    3.32189
   14.1     0.00000     0.42749     1 1s   -2.18070     1 2px  -1.61666     1 2py   0.36893     1 2pz   0.86397     2 1s    1.09283
                                    2 2px  -1.95363     2 2py   1.01463     2 2pz   0.55714     3 1s   -0.25512     5 1s   -0.28590
                                    6 1s    1.67009
   15.1     0.00000     0.68721     1 2px   0.36956     1 2px  -0.66008     2 1s    1.11106     2 2px  -0.54847     2 2px   1.38246
                                    2 2py  -1.07604     2 2pz   0.33160     3 1s   -0.31590     4 1s    0.28522     5 1s    0.25684
                                    6 1s   -0.36915     6 1s   -1.27047
   16.1     0.00000     0.72647     1 1s   -0.26731     1 2px   0.41270     1 2px  -0.56758     1 2py  -0.44354     2 1s   -0.79013
                                    2 2py  -0.52337     2 2pz   0.26903     2 2py   1.26296     2 2pz  -0.52814     3 1s   -0.26910
                                    4 1s    0.28481     5 1s   -0.37901     5 1s    0.40737     6 1s    0.30756     6 1s    0.74432
   17.1     0.00000     0.79190     1 1s   -0.40959     1 2py  -0.31868     1 2pz  -0.81098     1 2py   0.65500     1 2pz   0.94492
                                    2 1s    0.29864     2 2pz  -0.46156     2 2pz   0.42727     4 1s    0.28463
   18.1     0.00000     0.81409     1 2py   0.52069     1 2py  -0.93360     1 2pz  -0.44607     2 2py  -0.29117     2 2pz  -0.81221
                                    2 2px   0.36035     2 2py   0.39606     2 2pz   0.89673     6 1s   -0.27876
   19.1     0.00000     0.88605     1 1s    0.39189     1 1s   -0.95873     1 2px   0.38092     1 2py  -0.57868     1 2pz   0.65414
                                    1 2px  -0.86334     1 2py   1.23197     1 2pz  -0.57310     2 1s    0.32041     2 2pz  -0.38316
                                    2 2pz   0.68397     3 1s   -0.36441     4 1s    0.34538     6 1s    0.37269
   20.1     0.00000     0.96888     1 1s   -0.36498     1 1s    0.56399     1 2px  -0.65696     1 2py  -0.32264     1 2px   1.12765
                                    1 2py   0.70025     2 2px  -0.70695     2 2py  -0.42255     2 2px   1.17505     2 2py   0.82085
                                    3 1s    0.26848     3 1s   -0.30236     4 1s    0.99297     5 1s   -1.05005
   21.1     0.00000     1.01370     1 1s   -0.73197     1 1s    1.13835     1 2px   0.48413     1 2py  -0.28269     1 2px  -0.69301
                                    1 2py   0.27191     2 1s   -0.25209     2 2px   0.26633     2 2px  -0.58112     2 2py   0.36763
                                    3 1s    0.97372     3 1s   -1.52082     4 1s   -0.26613     6 1s    0.64562
   22.1     0.00000     1.10964     1 1s   -0.27159     1 1s    0.26080     1 2px   0.30259     1 2px  -0.45205     2 1s   -0.81739
                                    2 1s    1.76582     2 2py  -0.55621     2 2py   0.64092     2 2pz   0.34039     4 1s    0.38757
                                    4 1s   -0.64261     5 1s    0.84469     5 1s   -1.50511
   23.1     0.00000     1.17153     1 1s   -0.51488     1 1s    0.52629     1 2py   0.55583     1 2pz   0.25109     1 2px  -0.49049
                                    1 2py  -0.54172     2 1s    0.77596     2 2py   0.26510     2 2py  -0.34212     4 1s    0.97468
                                    4 1s   -1.49099     5 1s   -0.53359     5 1s    0.63555     6 1s   -0.40642
   24.1     0.00000     1.24896     1 1s   -0.31995     1 1s   -0.79389     1 2py  -0.26466     1 2px  -0.93938     1 2py   0.76143
                                    2 1s   -1.64485     2 1s    5.01088     2 2py  -0.27022     2 2pz   1.51697     3 1s   -0.31111
                                    3 1s   -0.30544     4 1s   -0.28100     5 1s   -0.55558     5 1s   -0.48903     6 1s   -0.39315
                                    6 1s   -1.96970
   25.1     0.00000     1.29461     1 1s   -1.91612     1 1s    5.15787     1 2px   0.98622     1 2py  -0.59938     1 2pz  -1.48144
                                    2 1s    0.59168     2 1s   -2.70180     2 2py   0.25013     2 2px   1.66795     2 2py  -1.18960
                                    2 2pz  -0.44817     3 1s   -0.46453     4 1s   -0.33269     4 1s   -0.89505     5 1s    0.25682
                                    6 1s   -0.79432
   26.1     0.00000     1.54061     1 1s    0.25404     1 1s   -0.75364     2 1s   -1.24894     2 1s    2.95819     2 2px  -0.50110
                                    2 2py   0.49929     2 2pz  -0.29690     2 2px   0.56165     2 2py  -0.69253     2 2pz   0.62762
                                    2 3d2- -0.27043     6 1s    0.84749     6 1s   -2.32236
   27.1     0.00000     1.69101     1 1s    0.61423     1 3d0   0.34965     1 3d2- -0.30116     1 3d2+ -0.30547     2 1s   -0.78832
                                    2 3d0  -0.32644     2 3d2-  0.31215     2 3d2+  0.35680
   28.1     0.00000     1.87015     1 1s    0.36570     1 1s   -0.98979     1 2pz   0.37097     1 3d0   0.32583     1 3d2+  0.26081
                                    2 2px  -0.38978     2 2py   0.34546     2 3d1+  0.43555     2 3d2+  0.37036     2 3d1-  0.49080
                                    3 1s    0.29855     6 1s    0.50357
   29.1     0.00000     1.97851     1 1s    0.49862     1 2px   0.26679     1 3d2- -0.27707     1 3d1+  0.53612     1 3d2+  0.32993
                                    1 3d1-  0.44331     2 1s   -1.33154     2 2pz  -0.44225     2 3d1- -0.28013     5 1s    0.32584
                                    6 1s    0.50467
   30.1     0.00000     2.14385     1 1s    0.97094     1 3d0  -0.34040     1 3d2- -0.28108     1 3d2+ -0.35087     1 3d1- -0.25045
                                    2 1s    0.35378     2 1s   -1.50342     2 2px   0.34461     2 2py  -0.31273     2 2pz  -0.43048
                                    2 3d0   0.64875     2 3d1+  0.27825     2 3d2+  0.29549     3 1s   -0.27790     5 1s    0.44584
                                    6 1s    0.33427
   31.1     0.00000     2.24319     1 1s   -0.51297     1 1s    0.52562     1 2px  -0.25853     1 2px   0.32088     1 3d2- -0.33626
                                    1 3d1+ -0.36747     1 3d2+  0.32636     2 1s   -0.48509     2 3d2- -0.36123     2 3d1+ -0.38026
                                    2 3d2+  0.43144
   32.1     0.00000     2.36565     1 1s   -1.00515     1 2px  -0.40560     1 2py   0.51079     1 3d0   0.71195     1 3d2- -0.37767
                                    1 3d1- -0.50832     2 1s    0.90248     2 2pz   0.36429     2 3d2- -0.27431     4 1s    0.64017
                                    6 1s   -0.39311
   33.1     0.00000     2.50584     1 1s    0.57670     1 2pz  -0.29462     1 3d2-  0.59860     1 3d1+ -0.46494     1 3d1-  0.29604
                                    2 1s   -0.36299     2 2px   0.29759     2 2py  -0.42192     2 3d0   0.49186     2 3d1- -0.52844
                                    4 1s   -0.28880     5 1s    0.34148     6 1s   -0.29672
   34.1     0.00000     2.64382     1 1s    0.39179     1 2py  -0.40745     1 3d2- -0.27316     1 3d2+ -0.55237     1 3d1-  0.62252
                                    2 3d2- -0.37209     2 3d2+ -0.52407     2 3d1-  0.44853     4 1s   -0.47970     5 1s   -0.30748
   35.1     0.00000     2.94236     1 1s   -1.70255     1 2px  -0.37901     1 2px  -0.87078     1 2pz   0.43413     1 3d2-  0.32508
                                    1 3d1+  0.72849     1 3d2+ -0.63087     2 1s    1.75390     2 2px  -0.30382     2 2pz   0.30257
                                    2 2px  -0.77566     2 2pz   0.45149     2 3d0  -0.25478     2 3d2- -0.62113     2 3d1+ -0.47055
                                    2 3d2+  0.58125     6 1s   -0.46350
   36.1     0.00000     3.05386     1 1s   -0.35010     2 1s   -0.47737     2 2px  -0.51619     2 2py   0.50738     2 2px  -0.42059
                                    2 2py   0.34651     2 3d2-  0.75697     2 3d1+ -0.75787     2 3d1-  0.67281     6 1s    1.62271


 HOMO      8.1    -0.387086 =     -10.5332eV
 LUMO      9.1     0.055535 =       1.5112eV
 LUMO-HOMO         0.442622 =      12.0443eV


 **********************************************************************************************************************************
 DATASETS  * FILE   NREC   LENGTH (MB)   RECORD NAMES
              1      19       31.13       500      610      700      900      950      970     1000      129      960     1100   
                                          VAR    BASINP    GEOM    SYMINP    ZMAT    AOBASIS   BASIS     P2S    ABASIS      S 
                                         1400     1410     1200     1210     1080     1600     1650     1300     1700   
                                           T        V       H0       H01     AOSYM     SMH    MOLCAS    ERIS     OPER   

              2       4        2.86       700     1000      520     2100   
                                         GEOM     BASIS   MCVARS     RHF  

 PROGRAMS   *        TOTAL    HF-SCF       INT
 CPU TIMES  *         0.41      0.11      0.20
 REAL TIME  *         0.62 SEC
 DISK USED  *        36.24 MB
 **********************************************************************************************************************************


 PROGRAM * MULTI (Direct Multiconfiguration SCF)       Authors: P.J. Knowles, H.-J. Werner (1984)


 Number of closed-shell orbitals:   7 (   7 )
 Number of active  orbitals:        2 (   2 )
 Number of external orbitals:      27 (  27 )

 State symmetry 1

 Number of electrons:     2    Spin symmetry=Singlet   Space symmetry=1
 Number of states:        3
 Number of CSFs:          3   (4 determinants, 4 intermediate states)

 Molecular orbitals read from record     2100.2  Type=RHF/CANONICAL (state 1.1)

 Wavefunction dump at record             2140.2

 Convergence thresholds  0.10E-01 (gradient)  0.10E-05 (energy)  0.10E-02 (step length)

 Weight factors for state symmetry  1:    0.33333   0.33333   0.33333

 Number of orbital rotations:      257   (    14 Core/Active    189 Core/Virtual   0 Active/Active     54 Active/Virtual)
 Total number of variables:        269

 Micro-Iterations solved by the two-step solver

 ITER. MIC  NCI  NEG     ENERGY(VAR)     ENERGY(PROJ)   ENERGY CHANGE     GRAD(0)  GRAD(ORB)   GRAD(CI)     STEP       TIME

   1   11    7    0     -77.54446241     -77.57657864   -0.03211623    0.15227757 0.00027605 0.00000000  0.24D+00      0.17
   2    6    5    0     -77.57591775     -77.57641650   -0.00049875    0.03416659 0.00008110 0.00000000  0.21D-01      0.26
   3    7    5    0     -77.57641955     -77.57641961   -0.00000007    0.00030913 0.00000004 0.00000000  0.35D-03      0.36
   4    3    3    0     -77.57641961     -77.57641961    0.00000000    0.00000006 0.00000001 0.00000000  0.75D-07      0.42

 ** WVFN ****  CONVERGENCE REACHED, FINAL GRADIENT:  0.30D-12



 Results for state 1.1
 =====================

 !MCSCF STATE  1.1 Energy             -77.704567306772
 Nuclear energy                        32.87317492
 Kinetic energy                        78.14329313
 One electron energy                 -168.54148927
 Two electron energy                   57.96374705
 Virial ratio                           1.99438562

 !MCSCF STATE  1.1 Dipole moment       -0.01843324    -0.08008851    -0.04136762
 Dipole moment /Debye                  -0.04684956    -0.20355136    -0.10513912

 Results for state 2.1
 =====================

 !MCSCF STATE  2.1 Energy             -77.603545642723
 Nuclear energy                        32.87317492
 Kinetic energy                        78.22049883
 One electron energy                 -168.22782766
 Two electron energy                   57.75110710
 Virial ratio                           1.99211264

 !MCSCF STATE  2.1 Dipole moment        0.09154068    -0.07098089    -0.00419195
 Dipole moment /Debye                   0.23265795    -0.18040360    -0.01065418

 Results for state 3.1
 =====================

 !MCSCF STATE  3.1 Energy             -77.421145892397
 Nuclear energy                        32.87317492
 Kinetic energy                        78.27936170
 One electron energy                 -167.95193903
 Two electron energy                   57.65761822
 Virial ratio                           1.98903650

 !MCSCF STATE  3.1 Dipole moment        0.24271646    -0.08490285     0.04097666
 Dipole moment /Debye                   0.61688329    -0.21578738     0.10414546

 State-averaged charge density matrix saved on record  2140.2 (density set 1)

 !MCSCF expec         <1.1|DMX|1.1>    -0.018433243621 au =    -0.046849563322 Debye
 !MCSCF trans         <2.1|DMX|1.1>    -0.087399915084 au =    -0.222133876180 Debye
 !MCSCF expec         <2.1|DMX|2.1>     0.091540675788 au =     0.232657950769 Debye
 !MCSCF trans         <3.1|DMX|1.1>    -0.005880362453 au =    -0.014945411603 Debye
 !MCSCF trans         <3.1|DMX|2.1>    -0.085472348567 au =    -0.217234811671 Debye
 !MCSCF expec         <3.1|DMX|3.1>     0.242716455740 au =     0.616883289580 Debye

 !MCSCF expec         <1.1|DMY|1.1>    -0.080088509996 au =    -0.203551355237 Debye
 !MCSCF trans         <2.1|DMY|1.1>     0.045905026490 au =     0.116671297226 Debye
 !MCSCF expec         <2.1|DMY|2.1>    -0.070980885650 au =    -0.180403599352 Debye
 !MCSCF trans         <3.1|DMY|1.1>    -0.003621001323 au =    -0.009203064542 Debye
 !MCSCF trans         <3.1|DMY|2.1>     0.050446785107 au =     0.128214540093 Debye
 !MCSCF expec         <3.1|DMY|3.1>    -0.084902849433 au =    -0.215787384063 Debye

 !MCSCF expec         <1.1|DMZ|1.1>    -0.041367622514 au =    -0.105139122029 Debye
 !MCSCF trans         <2.1|DMZ|1.1>    -0.017616522178 au =    -0.044773800436 Debye
 !MCSCF expec         <2.1|DMZ|2.1>    -0.004191950195 au =    -0.010654176777 Debye
 !MCSCF trans         <3.1|DMZ|1.1>    -0.002691245234 au =    -0.006840015061 Debye
 !MCSCF trans         <3.1|DMZ|2.1>    -0.015981338829 au =    -0.040617851142 Debye
 !MCSCF expec         <3.1|DMZ|3.1>     0.040976660482 au =     0.104145460749 Debye


 NATURAL ORBITALS (state averaged)
 =================================

  Orbital  Occupation    Energy     Coefficients
    1.1     2.00000   -11.27952     1 1s    0.99630
    2.1     2.00000   -11.23553     2 1s    0.99607
    3.1     2.00000    -1.07043     2 1s    0.31844     2 1s    0.25019
    4.1     2.00000    -0.82481     1 1s   -0.25624     1 1s   -0.32783     2 2px   0.25197
    5.1     2.00000    -0.64172     2 2py   0.36960
    6.1     2.00000    -0.52856     1 2py  -0.29716     3 1s   -0.25280     3 1s   -0.26799
    7.1     2.00000    -0.42126     1 2pz   0.31467     1 2pz   0.26661     2 2pz   0.33579     2 2pz   0.28480
    8.1     1.00000    -0.09288     1 1s    0.31689     1 2pz   0.38932     1 2pz   0.40088     2 2pz  -0.41621     2 2pz  -0.43848
    9.1     1.00000    -0.23362     1 2px   0.30775     2 2px  -0.31308     4 1s   -0.28814     5 1s   -0.29720
   10.1    -0.00000     0.20501     1 1s   -1.25754     1 2px   0.45226     1 2pz   0.51188     2 1s   -0.77990     2 2px  -0.47220
                                    2 2py  -0.28210     2 2pz  -0.31445     3 1s    0.95676     4 1s    0.82861     5 1s    0.90754
                                    6 1s    0.44633
   11.1    -0.00000     0.24583     1 1s   -0.44418     1 2py  -0.28322     1 2py  -0.79907     1 2pz   0.28891     2 1s    1.25732
                                    2 2py   0.45232     3 1s    1.08587     4 1s   -0.56918     5 1s   -0.82938     6 1s   -0.58210
   12.1    -0.00000     0.31750     1 1s   -1.37750     1 2py   0.94292     1 2pz   0.40075     2 1s    1.21648     2 2py   0.63247
                                    2 2pz   0.38206     4 1s    1.93276     5 1s   -1.47129
   13.1    -0.00000     0.33886     1 1s    0.58353     1 2px   0.56518     1 2py  -0.46725     2 1s   -3.11828     2 2px  -0.28675
                                    2 2py   1.19421     2 2pz  -0.84257     5 1s   -0.36801     6 1s    3.41020
   14.1    -0.00000     0.43247     1 1s   -2.04088     1 2px  -1.64047     1 2py   0.27428     1 2pz   0.80286     2 1s    1.03039
                                    2 2px  -1.94952     2 2py   0.89346     2 2pz   0.52237     3 1s   -0.26463     6 1s    1.60784
   15.1    -0.00000     0.68641     1 2px   0.37774     1 2px  -0.65038     2 1s    1.01913     2 2px  -0.55026     2 2px   1.39580
                                    2 2py  -1.03173     2 2pz   0.29943     3 1s   -0.30832     4 1s    0.33075     5 1s    0.31827
                                    6 1s   -0.35423     6 1s   -1.25638
   16.1    -0.00000     0.72053     1 1s   -0.33533     1 2px   0.38118     1 2px  -0.54544     1 2py  -0.42588     2 1s   -0.81446
                                    2 2py  -0.51012     2 2pz   0.26278     2 2py   1.30087     2 2pz  -0.52423     3 1s   -0.27084
                                    4 1s    0.30994     5 1s   -0.41896     5 1s    0.43570     6 1s    0.32369     6 1s    0.78479
   17.1    -0.00000     0.79130     1 1s   -0.66008     1 2py  -0.30319     1 2pz  -0.79227     1 2py   0.69679     1 2pz   1.02326
                                    2 1s    0.50840     2 2pz  -0.46726     2 2px  -0.28472     2 2pz   0.48964     4 1s    0.28782
   18.1    -0.00000     0.81213     1 2py   0.49981     1 2py  -0.90885     1 2pz  -0.49712     2 2py  -0.28694     2 2pz  -0.79286
                                    2 2px   0.35352     2 2py   0.40174     2 2pz   0.98449     6 1s   -0.35321
   19.1    -0.00000     0.88365     1 1s    0.35766     1 1s   -0.93797     1 2px   0.38160     1 2py  -0.57506     1 2pz   0.64750
                                    1 2px  -0.89800     1 2py   1.24291     1 2pz  -0.60148     2 1s    0.29756     2 2pz  -0.34848
                                    2 2pz   0.71018     3 1s   -0.40803     4 1s    0.25054     4 1s    0.31470     6 1s    0.35011
   20.1    -0.00000     0.97510     1 1s   -0.39019     1 1s    0.54483     1 2px  -0.65038     1 2py  -0.31392     1 2px   1.05341
                                    1 2py   0.69087     2 2px  -0.70242     2 2py  -0.43669     2 2px   1.10864     2 2py   0.84014
                                    3 1s    0.29442     3 1s   -0.34328     4 1s    0.92636     5 1s   -1.04027
   21.1    -0.00000     1.02184     1 1s   -0.74751     1 1s    1.17129     1 2px   0.51526     1 2py  -0.26230     1 2px  -0.71659
                                    2 2px   0.28541     2 2px  -0.59346     2 2py   0.36581     3 1s    0.95140     3 1s   -1.49313
                                    4 1s   -0.31459     6 1s    0.64691
   22.1    -0.00000     1.08162     1 2px   0.30339     1 2px  -0.36605     2 1s   -0.73140     2 1s    1.46997     2 2py  -0.58183
                                    2 2py   0.68146     3 1s   -0.28032     4 1s    0.30277     4 1s   -0.48212     5 1s    0.90595
                                    5 1s   -1.50885
   23.1    -0.00000     1.13616     1 1s   -0.54363     1 1s    0.59950     1 2py   0.60714     1 2px  -0.52906     1 2py  -0.60806
                                    2 1s    0.81204     2 2py  -0.29902     4 1s    1.00517     4 1s   -1.57959     5 1s   -0.44575
                                    5 1s    0.53863     6 1s   -0.36097
   24.1    -0.00000     1.23770     1 1s   -0.27398     1 1s   -0.95060     1 2py  -0.25018     1 2px  -1.01866     1 2py   0.77797
                                    2 1s   -1.70353     2 1s    5.19742     2 2pz   1.53204     3 1s   -0.30937     3 1s   -0.29537
                                    5 1s   -0.52038     5 1s   -0.54687     6 1s   -0.40863     6 1s   -1.93693
   25.1    -0.00000     1.28980     1 1s   -1.92754     1 1s    5.12602     1 2px   0.97156     1 2py  -0.54707     1 2pz  -1.46706
                                    2 1s    0.54373     2 1s   -2.54664     2 2px   1.67927     2 2py  -1.18176     2 2pz  -0.39768
                                    3 1s   -0.48213     4 1s   -0.33824     4 1s   -0.87099     6 1s   -0.84617
   26.1    -0.00000     1.53884     1 1s   -0.73712     2 1s   -1.25855     2 1s    2.98612     2 2px  -0.50428     2 2py   0.50512
                                    2 2pz  -0.27635     2 2px   0.56826     2 2py  -0.70590     2 2pz   0.62499     2 3d2- -0.28302
                                    6 1s    0.84038     6 1s   -2.34325
   27.1    -0.00000     1.68472     1 1s    0.62385     1 3d0   0.34546     1 3d2- -0.30218     1 3d2+ -0.30934     2 1s   -0.75747
                                    2 3d0  -0.32470     2 3d2-  0.30884     2 3d2+  0.35798
   28.1    -0.00000     1.86641     1 1s    0.35837     1 1s   -0.96965     1 2pz   0.36432     1 3d0   0.32234     1 3d2+  0.26166
                                    2 2px  -0.38884     2 2py   0.35102     2 3d1+  0.43695     2 3d2+  0.37760     2 3d1-  0.48930
                                    3 1s    0.29965     6 1s    0.51159
   29.1    -0.00000     1.97560     1 1s    0.48651     1 2px   0.26221     1 3d2- -0.28438     1 3d1+  0.53097     1 3d2+  0.33535
                                    1 3d1-  0.44395     2 1s   -1.28552     2 2pz  -0.42870     2 3d1- -0.27969     5 1s    0.31859
                                    6 1s    0.50615
   30.1    -0.00000     2.14226     1 1s    0.97358     1 3d0  -0.34423     1 3d2- -0.29066     1 3d2+ -0.34163     2 1s    0.33847
                                    2 1s   -1.46177     2 2px   0.33578     2 2py  -0.31743     2 2pz  -0.41211     2 3d0   0.65098
                                    2 3d1+  0.25467     2 3d2+  0.30987     3 1s   -0.28089     5 1s    0.44395     6 1s    0.32750
   31.1    -0.00000     2.23643     1 1s   -0.50231     1 1s    0.44465     1 2px  -0.27332     1 2px   0.29577     1 3d2- -0.33112
                                    1 3d1+ -0.37111     1 3d2+  0.33880     2 1s   -0.49254     2 1s    0.26836     2 3d2- -0.36407
                                    2 3d1+ -0.39762     2 3d2+  0.42176
   32.1    -0.00000     2.36040     1 1s   -1.04063     1 2px  -0.41608     1 2py   0.52675     1 3d0   0.71384     1 3d2- -0.38232
                                    1 3d1- -0.52196     2 1s    0.91510     2 2pz   0.36749     2 3d2- -0.26401     4 1s    0.63396
                                    6 1s   -0.40283
   33.1    -0.00000     2.50426     1 1s    0.53218     1 2pz  -0.28494     1 3d2-  0.59537     1 3d1+ -0.45986     1 3d1-  0.27403
                                    2 1s   -0.33086     2 2px   0.28475     2 2py  -0.43103     2 3d0   0.48758     2 3d1- -0.54447
                                    4 1s   -0.25823     5 1s    0.34263     6 1s   -0.32257
   34.1    -0.00000     2.63606     1 1s    0.39927     1 2py  -0.41339     1 2pz  -0.25096     1 3d2- -0.26591     1 3d2+ -0.55157
                                    1 3d1-  0.63091     2 3d2- -0.38236     2 3d2+ -0.51703     2 3d1-  0.43738     4 1s   -0.47378
                                    5 1s   -0.29167
   35.1    -0.00000     2.93753     1 1s   -1.73719     1 2px  -0.37429     1 2px  -0.88419     1 2pz   0.44431     1 3d2-  0.32500
                                    1 3d1+  0.73441     1 3d2+ -0.62965     2 1s    1.78209     2 2px  -0.30349     2 2pz   0.30199
                                    2 2px  -0.79224     2 2pz   0.45763     2 3d0  -0.26129     2 3d2- -0.61139     2 3d1+ -0.47861
                                    2 3d2+  0.58143     6 1s   -0.44951
   36.1    -0.00000     3.05308     1 1s   -0.33984     2 1s   -0.48256     2 2px  -0.51045     2 2py   0.50502     2 2px  -0.41321
                                    2 2py   0.34484     2 3d2-  0.75839     2 3d1+ -0.75550     2 3d1-  0.67224     6 1s    1.62594


 Natural orbital dump (state averaged) at molpro section  2140.2    (Orbital set 2)



 **********************************************************************************************************************************
 DATASETS  * FILE   NREC   LENGTH (MB)   RECORD NAMES
              1      20       31.86       500      610      700      900      950      970     1000      129      960     1100   
                                          VAR    BASINP    GEOM    SYMINP    ZMAT    AOBASIS   BASIS     P2S    ABASIS      S 
                                         1400     1410     1200     1210     1080     1600     1650     1300     1700     1380   
                                           T        V       H0       H01     AOSYM     SMH    MOLCAS    ERIS     OPER     JKOP   

              2       5        5.42       700     1000      520     2100     2140   
                                         GEOM     BASIS   MCVARS     RHF     MCSCF   

 PROGRAMS   *        TOTAL     MULTI    HF-SCF       INT
 CPU TIMES  *         0.88      0.47      0.11      0.20
 REAL TIME  *         1.15 SEC
 DISK USED  *        39.04 MB
 **********************************************************************************************************************************
 Molecular orbitals read from record     2140.2  Type=MCSCF/NATURAL (state averaged)
 Occupation numbers read from record     2140.2  Type=MCSCF/NATURAL (state averaged)
 Orbital energies read from record       2140.2  Type=MCSCF/NATURAL (state averaged)
 Redundancy group numbers read from rec  2140.2  Type=MCSCF/NATURAL (state averaged)

 MULTI/6-31G* energy=    -77.421145892397

           MULTI          HF-SCF
    -77.42114589    -77.71090545
 **********************************************************************************************************************************
 Molpro calculation terminated
