
 Primary working directories    : /scratch.local/johan406.molpro_temp/molpro.sC6ScI2V3D
 Secondary working directories  : /scratch.local/johan406.molpro_temp/molpro.sC6ScI2V3D
 Wavefunction directory         : /home/goodpast/johan406/wfu/
 Main file repository           : /scratch.local/johan406.molpro_temp/molpro.sC6ScI2V3D/

 id        : roweumn

 Nodes     nprocs
 acn09        1

 Using customized tuning parameters: mindgm=1; mindgv=20; mindgc=4; mindgr=1; noblas=0; minvec=7
 default implementation of scratch files=df  


 Variables initialized (934), CPU time= 0.00 sec
                                                                                 !leave this line blank
 
 gprint, orbitals=30
 memory, 125., m
 symmetry, nosym
 nelect=16
 basis=6-31g*
 
 geometry={
 C -0.6266 0.1378 0.2983
 C 0.6353 -0.1875 -0.3593
 H -1.2662 0.8963 -0.1561
 H -0.9621 -0.867 -0.1321
 H 0.9712 0.8155 0.0824
 H 1.277 -0.9464 0.0934
 }
 
 hf
 {multi,
 closed 7
 occ 9
 wf,spin=0;STATE,3
 }
 
 Commands  initialized (763), CPU time= 0.01 sec, 617 directives.
 Default parameters read. Elapsed time= 0.08 sec

 Checking input...
 Passed
1


                                         ***  PROGRAM SYSTEM MOLPRO  ***
                                       Copyright, TTI GmbH Stuttgart, 2015
                                    Version 2019.2 linked Oct 25 2019 22:50:27


 **********************************************************************************************************************************
 LABEL *                                                                                 
  64 bit serial version                                                                  DATE: 07-Feb-23          TIME: 16:17:06  
 **********************************************************************************************************************************

 SHA1:             8dbd9ae1082e4ce945b0f27595c9eb2d4aa09004
 **********************************************************************************************************************************


 Variable memory set to  125000000 words,  buffer space 

 SETTING NELECT         =        16.00000000                                  
 SETTING BASIS          =    6-31G*
 ZSYMEL=NOSYM


Geometry recognized as XYZ



 Recomputing integrals since basis changed


 Using spherical harmonics

 Library entry C      S 6-31G                selected for orbital group  1
 Library entry C      P 6-31G                selected for orbital group  1
 Library entry C      D 6-31G*               selected for orbital group  1
 Library entry H      S 6-31G                selected for orbital group  2


 PROGRAM * SEWARD (Integral evaluation for generally contracted gaussian basis sets)     Author: Roland Lindh, 1990

 Geometry written to block  1 of record 700


 Point group  C1  



 ATOMIC COORDINATES

 NR  ATOM    CHARGE       X              Y              Z

   1  C       6.00   -1.184102390    0.260404260    0.563705303
   2  C       6.00    1.200543007   -0.354323648   -0.678978597
   3  H       1.00   -2.392771219    1.693761525   -0.294986248
   4  H       1.00   -1.818105504   -1.638392550   -0.249632821
   5  H       1.00    1.835302012    1.541071655    0.155713433
   6  H       1.00    2.413180261   -1.788436804    0.176500420

 Bond lengths in Bohr (Angstrom)

 1-2  2.758384916  1-3  2.062218361  1-4  2.160765646  2-5  2.166137838  2-6  2.063737871
     ( 1.459674436)     ( 1.091278961)     ( 1.143427938)     ( 1.146270780)     ( 1.092083051)

 Bond angles

  1-2-5   83.38087381   1-2-6  118.43065475   2-1-3  118.29416045   2-1-4   83.58342703

  3-1-4  106.38448732   5-2-6  106.02966256

 NUCLEAR CHARGE:                   16
 NUMBER OF PRIMITIVE AOS:          72
 NUMBER OF SYMMETRY AOS:           70
 NUMBER OF CONTRACTIONS:           36   (   36A   )
 NUMBER OF CORE ORBITALS:           2   (    2A   )
 NUMBER OF VALENCE ORBITALS:       12   (   12A   )


 NUCLEAR REPULSION ENERGY   32.36650624

 Eigenvalues of metric

         1 0.926E-02 0.273E-01 0.596E-01 0.644E-01 0.801E-01 0.218E+00 0.237E+00 0.272E+00


 Contracted 2-electron integrals neglected if value below      1.0D-11
 AO integral compression algorithm  1   Integral accuracy      1.0D-11

     1.573 MB (compressed) written to integral file ( 59.2%)


 NUMBER OF SORTED TWO-ELECTRON INTEGRALS:     222111.     BUFFER LENGTH:  32768
 NUMBER OF SEGMENTS:   1  SEGMENT LENGTH:     222111      RECORD LENGTH: 524288

 Memory used in sort:       0.78 MW

 SORT1 READ      284735. AND WROTE      212531. INTEGRALS IN      1 RECORDS. CPU TIME:     0.00 SEC, REAL TIME:     0.01 SEC
 SORT2 READ      212531. AND WROTE      222111. INTEGRALS IN      6 RECORDS. CPU TIME:     0.02 SEC, REAL TIME:     0.03 SEC

 FILE SIZES:   FILE 1:    31.7 MBYTE,  FILE 4:     4.2 MBYTE,   TOTAL:     35.9 MBYTE

 OPERATOR DM      FOR CENTER  0  COORDINATES:    0.000000    0.000000    0.000000


 **********************************************************************************************************************************
 DATASETS  * FILE   NREC   LENGTH (MB)   RECORD NAMES
              1      19       31.13       500      610      700      900      950      970     1000      129      960     1100   
                                          VAR    BASINP    GEOM    SYMINP    ZMAT    AOBASIS   BASIS     P2S    ABASIS      S 
                                         1400     1410     1200     1210     1080     1600     1650     1300     1700   
                                           T        V       H0       H01     AOSYM     SMH    MOLCAS    ERIS     OPER   

 PROGRAMS   *        TOTAL       INT
 CPU TIMES  *         0.28      0.18
 REAL TIME  *         0.45 SEC
 DISK USED  *        36.24 MB
 **********************************************************************************************************************************


 PROGRAM * RHF-SCF (CLOSED SHELL)       Authors: W. Meyer, H.-J. Werner


 NUMBER OF ELECTRONS:       8+    8-    SPACE SYMMETRY=1    SPIN SYMMETRY: Singlet 
 CONVERGENCE THRESHOLDS:    1.00E-05 (Density)    1.00E-07 (Energy)
 MAX. NUMBER OF ITERATIONS:       60
 INTERPOLATION TYPE:            DIIS
 INTERPOLATION STEPS:              2 (START)      1 (STEP)
 LEVEL SHIFTS:                  0.00 (CLOSED)  0.00 (OPEN) 



 Orbital guess generated from atomic densities. Full valence occupancy:    8

 Molecular orbital dump at record        2100.2

 Initial occupancy:   8

 ITERATION    DDIFF          GRAD             ENERGY        2-EL.EN.            DIPOLE MOMENTS         DIIS   ORB.
    1      0.000D+00      0.000D+00       -77.82782469    115.940760   -0.00272   -0.00046    0.00618    0    start
    2      0.000D+00      0.704D-02       -77.84582202    114.918456   -0.00289   -0.00246    0.00231    1    diag
    3      0.753D-02      0.228D-02       -77.84790217    115.336069   -0.00478   -0.00157    0.00503    2    diag
    4      0.295D-02      0.828D-03       -77.84834739    115.207409   -0.00376   -0.00252    0.00293    3    diag
    5      0.160D-02      0.294D-03       -77.84848566    115.214857   -0.00561   -0.00139    0.00552    4    diag
    6      0.980D-03      0.135D-03       -77.84852473    115.216345   -0.00246   -0.00344    0.00081    5    diag
    7      0.463D-03      0.845D-04       -77.84853641    115.217250   -0.00477   -0.00189    0.00431    6    diag
    8      0.283D-03      0.294D-04       -77.84853833    115.218225   -0.00434   -0.00214    0.00370    7    diag
    9      0.136D-03      0.821D-05       -77.84853847    115.218412   -0.00435   -0.00212    0.00374    8    diag
   10      0.356D-04      0.231D-05       -77.84853848    115.218381   -0.00434   -0.00212    0.00373    9    orth
   11      0.642D-05      0.502D-06       -77.84853848    115.218387   -0.00434   -0.00212    0.00373    0    orth

 Final occupancy:   8

 !RHF STATE  1.1 Energy               -77.848538475839
 Nuclear energy                        32.36650624
 One-electron energy                 -167.82423807
 Two-electron energy                   57.60919336
 Virial quotient                       -1.00122306
 !RHF STATE  1.1 Dipole moment         -0.00434073    -0.00212252     0.00372980
 Dipole moment /Debye                  -0.01103231    -0.00539455     0.00947960

 ELECTRON ORBITALS
 =================

  Orbital  Occupation    Energy     Coefficients
    1.1     2.00000   -11.25988     1 1s   -0.76070     2 1s   -0.64329
    2.1     2.00000   -11.25902     1 1s   -0.64340     2 1s    0.76080
    3.1     2.00000    -1.03714     1 1s    0.28340     2 1s    0.28261
    4.1     2.00000    -0.78431     1 1s   -0.29231     2 1s    0.29315
    5.1     2.00000    -0.62187     1 2py   0.31024     2 2py   0.30632
    6.1     2.00000    -0.56164     1 2px   0.29937     2 2px  -0.29870
    7.1     2.00000    -0.39199     1 2pz   0.31611     1 2pz   0.28859     2 2pz   0.29391     2 2pz   0.27575
    8.1     2.00000    -0.38709     1 2px   0.28332     2 2px  -0.25717     4 1s   -0.28382     5 1s   -0.28054
    9.1     0.00000     0.06333     1 1s    0.39874     1 2pz   0.33083     1 2pz   0.46903     2 1s    0.39749     2 2pz  -0.33034
                                    2 2pz  -0.46848
   10.1     0.00000     0.23154     1 1s   -1.10058     1 2px   0.48165     1 2py   0.36647     1 2pz   0.43103     2 1s   -1.09467
                                    2 2px  -0.48473     2 2py  -0.36727     2 2pz  -0.43531     3 1s    0.57516     4 1s    1.08620
                                    5 1s    1.08855     6 1s    0.57288
   11.1     0.00000     0.28221     1 1s    1.56529     1 2py   0.35710     1 2pz  -0.46065     2 1s   -1.57127     2 2py   0.36065
                                    2 2pz  -0.46220     3 1s   -1.44325     6 1s    1.44985
   12.1     0.00000     0.31318     1 1s   -0.76716     1 2px   0.40441     1 2py  -1.00767     1 2pz   0.46000     2 1s   -0.73632
                                    2 2px  -0.39195     2 2py   1.02292     2 2pz  -0.44725     3 1s    1.56713     4 1s   -0.40545
                                    5 1s   -0.44787     6 1s    1.55446
   13.1     0.00000     0.33535     1 1s   -1.04875     1 2px   0.28055     1 2py   0.77880     1 2pz   0.31092     2 1s    1.05999
                                    2 2px   0.28861     2 2py   0.74035     2 2pz   0.32757     4 1s    1.70948     5 1s   -1.68497
   14.1     0.00000     0.42355     1 1s    2.03211     1 2px   1.78173     1 2py  -0.63129     1 2pz  -0.78989     2 1s   -2.02996
                                    2 2px   1.78145     2 2py  -0.63540     2 2pz  -0.78894     3 1s    0.62433     6 1s   -0.63094
   15.1     0.00000     0.70265     1 2px  -0.55127     1 2px   0.92764     2 2px   0.54872     2 2px  -0.93186     4 1s   -0.42507
                                    5 1s   -0.42972
   16.1     0.00000     0.75837     1 1s   -0.31249     1 2py  -0.38146     1 2px  -0.61982     1 2py   0.80492     2 1s    0.31183
                                    2 2py  -0.37093     2 2px  -0.61933     2 2py   0.77664     3 1s   -0.48651     6 1s    0.48532
   17.1     0.00000     0.78924     1 2py   0.58331     1 2pz   0.25073     1 2py  -1.22984     2 2py  -0.59143     2 2pz  -0.26996
                                    2 2py   1.24313     2 2pz   0.25093     4 1s   -0.27925     5 1s   -0.28773
   18.1     0.00000     0.79985     1 2pz  -0.73901     1 2pz   0.71545     2 2pz  -0.72877     2 2pz   0.70367
   19.1     0.00000     0.86473     1 1s    0.35451     1 2pz   0.68571     1 2px  -0.45508     1 2py   0.53544     1 2pz  -0.95976
                                    2 1s    0.35510     2 2pz  -0.68909     2 2px   0.45504     2 2py  -0.54095     2 2pz   0.96178
   20.1     0.00000     0.97399     1 2px   0.71492     1 2py   0.37051     1 2px  -1.15122     1 2py  -0.77720     2 2px   0.71853
                                    2 2py   0.37152     2 2px  -1.15191     2 2py  -0.76958     4 1s   -1.05055     5 1s    1.04522
   21.1     0.00000     1.11944     1 1s   -0.66937     1 1s    1.22584     1 2px   0.26230     1 2py   0.38180     1 2px  -0.37027
                                    1 2py  -0.36040     2 1s   -0.67325     2 1s    1.23324     2 2py  -0.42342     2 2px   0.34236
                                    2 2py   0.42037     4 1s    0.63114     4 1s   -1.15533     5 1s    0.67169     5 1s   -1.22252
   22.1     0.00000     1.13699     1 2px  -0.38579     1 2py   0.61512     1 2px   0.71187     1 2py  -0.97648     2 2px  -0.40385
                                    2 2py   0.59024     2 2px   0.73858     2 2py  -0.95200     3 1s   -0.51310     3 1s    1.22233
                                    4 1s    0.33073     4 1s   -0.71155     5 1s   -0.28929     5 1s    0.63278     6 1s    0.50793
                                    6 1s   -1.23161
   23.1     0.00000     1.18221     1 1s   -0.35475     1 2pz   0.26279     1 2px  -0.76134     2 1s    0.34055     2 2pz   0.26216
                                    2 2px  -0.75306     3 1s    0.38531     3 1s   -0.62808     4 1s    0.75186     4 1s   -0.92295
                                    5 1s   -0.72883     5 1s    0.89314     6 1s   -0.37781     6 1s    0.62434
   24.1     0.00000     1.19045     1 1s   -0.60315     1 1s    0.94746     1 2px   0.29254     1 2py  -0.31699     1 2px  -0.29579
                                    1 2py   0.31138     2 1s   -0.61500     2 1s    0.97722     2 2px  -0.29247     2 2py   0.31198
                                    2 2px   0.28965     2 2py  -0.30316     3 1s    0.76852     3 1s   -1.07947     6 1s    0.76840
                                    6 1s   -1.07978
   25.1     0.00000     1.25890     1 1s   -1.24227     1 1s    2.30803     1 2px  -0.48550     1 2py   0.52911     1 2pz  -1.02693
                                    2 1s   -1.13194     2 1s    1.96500     2 2px   0.57609     2 2py  -0.56724     2 2pz   0.94970
                                    3 1s   -0.40493     3 1s   -0.94687     4 1s   -0.43212     4 1s   -0.36627     5 1s   -0.42618
                                    5 1s   -0.33008     6 1s   -0.40499     6 1s   -0.90733
   26.1     0.00000     1.28609     1 1s    1.56425     1 1s   -5.04491     1 2px  -1.26358     1 2py   0.78478     1 2pz   1.19023
                                    2 1s   -1.63916     2 1s    5.17917     2 2px  -1.22854     2 2py   0.74163     2 2pz   1.25821
                                    3 1s    0.43347     4 1s    0.65909     5 1s   -0.25638     5 1s   -0.67767     6 1s   -0.49169
   27.1     0.00000     1.69564     1 1s   -0.58264     1 3d0  -0.34890     1 3d2-  0.29710     1 3d2+  0.32692     2 1s    0.59426
                                    2 3d0   0.34979     2 3d2- -0.29730     2 3d2+ -0.32587
   28.1     0.00000     1.91938     1 1s    0.30731     1 1s   -0.62315     1 2pz   0.33867     1 3d0   0.34577     1 3d1+  0.35602
                                    1 3d2+  0.34786     1 3d1-  0.33388     2 1s    0.32725     2 1s   -0.70895     2 2pz  -0.36204
                                    2 3d0   0.36418     2 3d1+  0.32736     2 3d2+  0.34114     2 3d1-  0.30101     3 1s    0.27935
                                    6 1s    0.28000
   29.1     0.00000     1.94041     1 1s    0.32010     1 1s   -1.40205     1 2px  -0.31688     1 2pz   0.36852     1 3d2-  0.30433
                                    1 3d1+ -0.38072     1 3d1- -0.37423     2 1s   -0.30022     2 1s    1.36190     2 2px  -0.32597
                                    2 2pz   0.34967     2 3d2- -0.30779     2 3d1+  0.40833     2 3d1-  0.39440     3 1s    0.33470
                                    6 1s   -0.32287
   30.1     0.00000     2.18195     1 1s    0.35506     1 1s   -1.66203     1 2px  -0.38414     1 2py   0.27713     1 2pz   0.44836
                                    1 3d0   0.56849     1 3d2+  0.35238     2 1s   -0.33848     2 1s    1.64310     2 2px  -0.38079
                                    2 2py   0.27796     2 2pz   0.43876     2 3d0  -0.56552     2 3d2+ -0.35843     3 1s    0.35701
                                    4 1s    0.33025     5 1s   -0.33489     6 1s   -0.35015
   31.1     0.00000     2.25066     1 1s    0.48901     1 1s   -0.29145     1 2px   0.26138     1 2px  -0.28865     1 3d2-  0.29772
                                    1 3d1+  0.38398     1 3d2+ -0.39463     2 1s    0.50116     2 1s   -0.35244     2 2px  -0.26117
                                    2 2px   0.30485     2 3d2-  0.30386     2 3d1+  0.38750     2 3d2+ -0.38476
   32.1     0.00000     2.34938     1 2py   0.36505     1 3d0   0.51919     1 3d2- -0.36548     1 3d1- -0.35807     2 2py  -0.36144
                                    2 3d0   0.50792     2 3d2- -0.37126     2 3d1- -0.36891     3 1s   -0.27139     4 1s    0.40101
                                    5 1s    0.39785     6 1s   -0.28033
   33.1     0.00000     2.58294     1 1s   -0.28257     1 2py   0.29707     1 3d2- -0.48907     1 3d1- -0.59392     2 1s    0.28825
                                    2 2py   0.29516     2 3d2-  0.47440     2 3d1-  0.60173     3 1s   -0.49283     4 1s    0.41119
                                    5 1s   -0.41156     6 1s    0.48622
   34.1     0.00000     2.64429     1 2py   0.32453     1 3d2-  0.44042     1 3d2+  0.51946     1 3d1- -0.50866     2 2py  -0.31571
                                    2 3d2-  0.45117     2 3d2+  0.51679     2 3d1- -0.49915     4 1s    0.36448     5 1s    0.35506
   35.1     0.00000     2.72160     1 3d0  -0.40585     1 3d2- -0.48400     1 3d1+  0.49664     1 3d1- -0.27485     2 3d0  -0.40783
                                    2 3d2- -0.48381     2 3d1+  0.49717     2 3d1- -0.27641     3 1s   -0.47456     6 1s   -0.47544
   36.1     0.00000     2.95997     1 1s   -1.71961     1 2px  -0.43611     1 2px  -0.87413     1 2pz   0.43967     1 3d2-  0.34660
                                    1 3d1+  0.69671     1 3d2+ -0.64543     2 1s    1.71937     2 2px  -0.43577     2 2px  -0.87402
                                    2 2pz   0.43981     2 3d2- -0.34756     2 3d1+ -0.69599     2 3d2+  0.64402


 HOMO      8.1    -0.387086 =     -10.5331eV
 LUMO      9.1     0.063325 =       1.7232eV
 LUMO-HOMO         0.450411 =      12.2563eV


 **********************************************************************************************************************************
 DATASETS  * FILE   NREC   LENGTH (MB)   RECORD NAMES
              1      19       31.13       500      610      700      900      950      970     1000      129      960     1100   
                                          VAR    BASINP    GEOM    SYMINP    ZMAT    AOBASIS   BASIS     P2S    ABASIS      S 
                                         1400     1410     1200     1210     1080     1600     1650     1300     1700   
                                           T        V       H0       H01     AOSYM     SMH    MOLCAS    ERIS     OPER   

              2       4        2.86       700     1000      520     2100   
                                         GEOM     BASIS   MCVARS     RHF  

 PROGRAMS   *        TOTAL    HF-SCF       INT
 CPU TIMES  *         0.38      0.10      0.18
 REAL TIME  *         0.61 SEC
 DISK USED  *        36.24 MB
 **********************************************************************************************************************************


 PROGRAM * MULTI (Direct Multiconfiguration SCF)       Authors: P.J. Knowles, H.-J. Werner (1984)


 Number of closed-shell orbitals:   7 (   7 )
 Number of active  orbitals:        2 (   2 )
 Number of external orbitals:      27 (  27 )

 State symmetry 1

 Number of electrons:     2    Spin symmetry=Singlet   Space symmetry=1
 Number of states:        3
 Number of CSFs:          3   (4 determinants, 4 intermediate states)

 Molecular orbitals read from record     2100.2  Type=RHF/CANONICAL (state 1.1)

 Wavefunction dump at record             2140.2

 Convergence thresholds  0.10E-01 (gradient)  0.10E-05 (energy)  0.10E-02 (step length)

 Weight factors for state symmetry  1:    0.33333   0.33333   0.33333

 Number of orbital rotations:      257   (    14 Core/Active    189 Core/Virtual   0 Active/Active     54 Active/Virtual)
 Total number of variables:        269

 Micro-Iterations solved by the two-step solver

 ITER. MIC  NCI  NEG     ENERGY(VAR)     ENERGY(PROJ)   ENERGY CHANGE     GRAD(0)  GRAD(ORB)   GRAD(CI)     STEP       TIME

   1   11    6    0     -77.69039373     -77.71155803   -0.02116430    0.16591729 0.00133025 0.00000000  0.16D+00      0.14
   2    7    5    0     -77.71110227     -77.71116201   -0.00005974    0.01177312 0.00002424 0.00000000  0.69D-02      0.24
   3    7    5    0     -77.71116215     -77.71116215   -0.00000000    0.00004069 0.00000000 0.00000000  0.45D-04      0.34

 ** WVFN ****  CONVERGENCE REACHED, FINAL GRADIENT:  0.97D-09



 Results for state 1.1
 =====================

 !MCSCF STATE  1.1 Energy             -77.842155078826
 Nuclear energy                        32.36650624
 Kinetic energy                        77.80924462
 One electron energy                 -167.90070176
 Two electron energy                   57.69204045
 Virial ratio                           2.00042296

 !MCSCF STATE  1.1 Dipole moment       -0.00784359    -0.00155327     0.00486278
 Dipole moment /Debye                  -0.01993511    -0.00394777     0.01235915

 Results for state 2.1
 =====================

 !MCSCF STATE  2.1 Energy             -77.738854289197
 Nuclear energy                        32.36650624
 Kinetic energy                        77.88498244
 One electron energy                 -167.59595703
 Two electron energy                   57.49059650
 Virial ratio                           1.99812380

 !MCSCF STATE  2.1 Dipole moment        0.00590176    -0.00281420     0.00095146
 Dipole moment /Debye                   0.01499980    -0.00715251     0.00241820

 Results for state 3.1
 =====================

 !MCSCF STATE  3.1 Energy             -77.552477074281
 Nuclear energy                        32.36650624
 Kinetic energy                        77.94653851
 One electron energy                 -167.33790192
 Two electron energy                   57.41891861
 Virial ratio                           1.99494447

 !MCSCF STATE  3.1 Dipole moment        0.01401304    -0.00219095     0.00376956
 Dipole moment /Debye                   0.03561526    -0.00556848     0.00958064

 State-averaged charge density matrix saved on record  2140.2 (density set 1)

 !MCSCF expec         <1.1|DMX|1.1>    -0.007843589080 au =    -0.019935109135 Debye
 !MCSCF trans         <2.1|DMX|1.1>     0.011800340555 au =     0.029991509547 Debye
 !MCSCF expec         <2.1|DMX|2.1>     0.005901761455 au =     0.014999798879 Debye
 !MCSCF trans         <3.1|DMX|1.1>    -0.001978112906 au =    -0.005027532200 Debye
 !MCSCF trans         <3.1|DMX|2.1>     0.013818532228 au =     0.035120905140 Debye
 !MCSCF expec         <3.1|DMX|3.1>     0.014013040269 au =     0.035615262887 Debye

 !MCSCF expec         <1.1|DMY|1.1>    -0.001553272298 au =    -0.003947765808 Debye
 !MCSCF trans         <2.1|DMY|1.1>    -0.004074122238 au =    -0.010354707597 Debye
 !MCSCF expec         <2.1|DMY|2.1>    -0.002814198091 au =    -0.007152509584 Debye
 !MCSCF trans         <3.1|DMY|1.1>     0.000345627244 au =     0.000878439291 Debye
 !MCSCF trans         <3.1|DMY|2.1>    -0.004504983052 au =    -0.011449774825 Debye
 !MCSCF expec         <3.1|DMY|3.1>    -0.002190953211 au =    -0.005568482861 Debye

 !MCSCF expec         <1.1|DMZ|1.1>     0.004862782922 au =     0.012359151820 Debye
 !MCSCF trans         <2.1|DMZ|1.1>    -0.014573665051 au =    -0.037040135619 Debye
 !MCSCF expec         <2.1|DMZ|2.1>     0.000951455484 au =     0.002418200230 Debye
 !MCSCF trans         <3.1|DMZ|1.1>     0.001178353354 au =     0.002994879317 Debye
 !MCSCF trans         <3.1|DMZ|2.1>    -0.016069185938 au =    -0.040841121597 Debye
 !MCSCF expec         <3.1|DMZ|3.1>     0.003769559919 au =     0.009580638100 Debye


 NATURAL ORBITALS (state averaged)
 =================================

  Orbital  Occupation    Energy     Coefficients
    1.1     2.00000   -11.25465     1 1s   -0.48043     2 1s   -0.87272
    2.1     2.00000   -11.25378     1 1s   -0.87276     2 1s    0.48051
    3.1     2.00000    -1.04989     1 1s    0.27797     2 1s    0.27792
    4.1     2.00000    -0.78517     1 1s   -0.31761     2 1s    0.31826
    5.1     2.00000    -0.62484     1 2py   0.30303     2 2py   0.30066
    6.1     2.00000    -0.56001     1 2px   0.25946     2 2px  -0.25894
    7.1     2.00000    -0.41937     1 2pz   0.32557     1 2pz   0.28099     2 2pz   0.32449     2 2pz   0.28039
    8.1     1.00000    -0.23073     1 2px   0.31083     2 2px  -0.30945     4 1s   -0.29366     5 1s   -0.29491
    9.1     1.00000    -0.08682     1 1s    0.26849     1 2pz   0.40483     1 2pz   0.43003     2 1s    0.26645     2 2pz  -0.40410
                                    2 2pz  -0.42944
   10.1    -0.00000     0.21952     1 1s   -1.10378     1 2px   0.47699     1 2py   0.38125     1 2pz   0.37133     2 1s   -1.10724
                                    2 2px  -0.48104     2 2py  -0.38301     2 2pz  -0.37841     3 1s    0.53974     4 1s    1.09333
                                    5 1s    1.10099     6 1s    0.54373
   11.1    -0.00000     0.28123     1 1s    1.65516     1 2py   0.28494     1 2pz  -0.47683     2 1s   -1.66245     2 2py   0.30004
                                    2 2pz  -0.48070     3 1s   -1.42678     6 1s    1.44512
   12.1    -0.00000     0.31563     1 1s   -0.90132     1 2px   0.41290     1 2py  -0.93783     1 2pz   0.46009     2 1s   -0.70667
                                    2 2px  -0.38341     2 2py   1.07064     2 2pz  -0.39640     3 1s    1.57320     5 1s   -0.52383
                                    6 1s    1.57476
   13.1    -0.00000     0.31969     1 1s   -0.98586     1 2py   0.93013     1 2pz   0.29066     2 1s    1.10769     2 2py   0.75066
                                    2 2pz   0.36415     3 1s   -0.28955     4 1s    1.74305     5 1s   -1.66324
   14.1    -0.00000     0.42974     1 1s    1.89332     1 2px   1.79352     1 2py  -0.52459     1 2pz  -0.73175     2 1s   -1.89171
                                    2 2px   1.79305     2 2py  -0.52942     2 2pz  -0.73155     3 1s    0.62497     6 1s   -0.63141
   15.1    -0.00000     0.69925     1 2px  -0.53574     1 2px   0.90411     2 2px   0.53428     2 2px  -0.90865     4 1s    0.25043
                                    4 1s   -0.48297     5 1s    0.25080     5 1s   -0.48619
   16.1    -0.00000     0.75542     1 1s   -0.42376     1 2py  -0.36805     1 2px  -0.66836     1 2py   0.81499     2 1s    0.41855
                                    2 2py  -0.36390     2 2px  -0.66966     2 2py   0.80070     3 1s   -0.48218     4 1s    0.26049
                                    5 1s   -0.25853     6 1s    0.48333
   17.1    -0.00000     0.78837     1 2py   0.56006     1 2py  -1.21306     1 2pz  -0.28328     2 2py  -0.56425     2 2pz  -0.27549
                                    2 2py   1.22194     2 2pz   0.32198     4 1s   -0.28186     5 1s   -0.29127
   18.1    -0.00000     0.79992     1 1s   -0.36598     1 2pz  -0.73646     1 2pz   0.78278     2 1s    0.36949     2 2pz  -0.72337
                                    2 2pz   0.76666
   19.1    -0.00000     0.86284     1 1s    0.31193     1 2px   0.25407     1 2pz   0.66188     1 2px  -0.49091     1 2py   0.54226
                                    1 2pz  -1.01600     2 1s    0.31202     2 2px  -0.25168     2 2pz  -0.66299     2 2px   0.49213
                                    2 2py  -0.54740     2 2pz   1.01543     3 1s   -0.27608     6 1s   -0.27912
   20.1    -0.00000     0.98068     1 2px   0.71186     1 2py   0.37691     1 2px  -1.07086     1 2py  -0.79617     2 2px   0.71590
                                    2 2py   0.37887     2 2px  -1.07232     2 2py  -0.78894     4 1s   -1.01309     5 1s    1.01151
   21.1    -0.00000     1.09358     1 1s   -0.63379     1 1s    1.15540     1 2px   0.28669     1 2py   0.40021     1 2px  -0.36226
                                    1 2py  -0.40622     2 1s   -0.65244     2 1s    1.17683     2 2px  -0.27052     2 2py  -0.43998
                                    2 2px   0.35555     2 2py   0.45668     4 1s    0.63254     4 1s   -1.11717     5 1s    0.68912
                                    5 1s   -1.20141
   22.1    -0.00000     1.12386     1 1s    0.31032     1 2py   0.62379     1 2py  -0.85669     2 2px  -0.26830     2 2py   0.59307
                                    2 2px   0.27153     2 2py  -0.82504     3 1s    0.71536     4 1s    0.66622     4 1s   -1.10820
                                    5 1s   -0.61651     5 1s    1.02153     6 1s   -0.72498
   23.1    -0.00000     1.15954     1 1s   -0.31081     1 2px   0.37272     1 2px  -1.06825     1 2py   0.48402     2 1s    0.31615
                                    2 2px   0.37093     2 2px  -1.06927     2 2py   0.50049     3 1s    0.58294     3 1s   -1.15088
                                    4 1s    0.48416     4 1s   -0.47691     5 1s   -0.46829     5 1s    0.45781     6 1s   -0.59611
                                    6 1s    1.17392
   24.1    -0.00000     1.19500     1 1s   -0.53661     1 1s    0.80247     1 2px   0.28423     1 2py  -0.32701     1 2px  -0.26562
                                    1 2py   0.30290     2 1s   -0.54779     2 1s    0.85600     2 2px  -0.27616     2 2py   0.31987
                                    2 2py  -0.28306     3 1s    0.79676     3 1s   -1.04162     6 1s    0.78345     6 1s   -1.01939
   25.1    -0.00000     1.24994     1 1s   -1.27931     1 1s    2.34278     1 2px  -0.52447     1 2py   0.55888     1 2pz  -1.01334
                                    2 1s   -1.20987     2 1s    2.12913     2 2px   0.58372     2 2py  -0.57488     2 2pz   0.96810
                                    3 1s   -0.37753     3 1s   -0.99205     4 1s   -0.39579     4 1s   -0.40974     5 1s   -0.39304
                                    5 1s   -0.39486     6 1s   -0.37903     6 1s   -0.96299
   26.1    -0.00000     1.28001     1 1s    1.58625     1 1s   -5.07693     1 2px  -1.26654     1 2py   0.74143     1 2pz   1.18675
                                    2 1s   -1.63121     2 1s    5.15830     2 2px  -1.24486     2 2py   0.71109     2 2pz   1.22999
                                    3 1s    0.46586     4 1s    0.62715     5 1s   -0.25611     5 1s   -0.63814     6 1s   -0.49953
   27.1    -0.00000     1.69034     1 1s   -0.61045     1 3d0  -0.34242     1 3d2-  0.30102     1 3d2+  0.32880     2 1s    0.62194
                                    2 3d0   0.34362     2 3d2- -0.30151     2 3d2+ -0.32798
   28.1    -0.00000     1.91664     1 1s    0.30004     1 1s   -0.62398     1 2pz   0.33605     1 3d0   0.34398     1 3d1+  0.34837
                                    1 3d2+  0.35329     1 3d1-  0.32964     2 1s    0.31451     2 1s   -0.68512     2 2pz  -0.35290
                                    2 3d0   0.36174     2 3d1+  0.32652     2 3d2+  0.35018     2 3d1-  0.30375     3 1s    0.27640
                                    6 1s    0.27638
   29.1    -0.00000     1.93726     1 1s    0.30979     1 1s   -1.36332     1 2px  -0.30764     1 2pz   0.35634     1 3d2-  0.30181
                                    1 3d1+ -0.38698     1 3d1- -0.37574     2 1s   -0.29589     2 1s    1.33505     2 2px  -0.31381
                                    2 2pz   0.34374     2 3d2- -0.30531     2 3d1+  0.40848     2 3d1-  0.39061     3 1s    0.33448
                                    6 1s   -0.32635
   30.1    -0.00000     2.18211     1 1s    0.35925     1 1s   -1.65055     1 2px  -0.37851     1 2py   0.27863     1 2pz   0.44307
                                    1 3d0   0.57147     1 3d2+  0.35470     2 1s   -0.34130     2 1s    1.62973     2 2px  -0.37529
                                    2 2py   0.28067     2 2pz   0.43208     2 3d0  -0.56908     2 3d2+ -0.36117     3 1s    0.35660
                                    4 1s    0.32434     5 1s   -0.33025     6 1s   -0.34843
   31.1    -0.00000     2.24600     1 1s    0.48328     1 1s   -0.29307     1 2px   0.26781     1 2px  -0.27965     1 3d2-  0.31131
                                    1 3d1+  0.39199     1 3d2+ -0.39387     2 1s    0.49648     2 1s   -0.35984     2 2px  -0.26733
                                    2 2px   0.29749     2 3d2-  0.31768     2 3d1+  0.39652     2 3d2+ -0.38285
   32.1    -0.00000     2.34333     1 2py   0.38119     1 3d0   0.52007     1 3d2- -0.35941     1 3d1- -0.37095     2 2py  -0.37752
                                    2 3d0   0.50750     2 3d2- -0.36606     2 3d1- -0.38275     3 1s   -0.28416     4 1s    0.38936
                                    5 1s    0.38631     6 1s   -0.29445
   33.1    -0.00000     2.57753     1 1s   -0.26707     1 2py   0.29682     1 3d2- -0.49241     1 3d1- -0.59432     2 1s    0.27331
                                    2 2py   0.29554     2 3d2-  0.47644     2 3d1-  0.60334     3 1s   -0.49646     4 1s    0.40145
                                    5 1s   -0.40263     6 1s    0.48958
   34.1    -0.00000     2.63599     1 2py   0.33098     1 3d2-  0.44498     1 3d2+  0.51497     1 3d1- -0.51194     2 2py  -0.32107
                                    2 3d2-  0.45700     2 3d2+  0.51184     2 3d1- -0.50024     4 1s    0.35652     5 1s    0.34587
   35.1    -0.00000     2.72648     1 3d0  -0.41396     1 3d2- -0.47423     1 3d1+  0.50128     1 3d1- -0.27437     2 3d0  -0.41543
                                    2 3d2- -0.47280     2 3d1+  0.50219     2 3d1- -0.27524     3 1s   -0.47303     6 1s   -0.47286
   36.1    -0.00000     2.95556     1 1s   -1.75007     1 2px  -0.42977     1 2px  -0.88643     1 2pz   0.44773     1 3d2-  0.34425
                                    1 3d1+  0.70001     1 3d2+ -0.64276     2 1s    1.74974     2 2px  -0.42963     2 2px  -0.88609
                                    2 2pz   0.44776     2 3d2- -0.34549     2 3d1+ -0.69846     2 3d2+  0.64124


 Natural orbital dump (state averaged) at molpro section  2140.2    (Orbital set 2)



 **********************************************************************************************************************************
 DATASETS  * FILE   NREC   LENGTH (MB)   RECORD NAMES
              1      20       31.86       500      610      700      900      950      970     1000      129      960     1100   
                                          VAR    BASINP    GEOM    SYMINP    ZMAT    AOBASIS   BASIS     P2S    ABASIS      S 
                                         1400     1410     1200     1210     1080     1600     1650     1300     1700     1380   
                                           T        V       H0       H01     AOSYM     SMH    MOLCAS    ERIS     OPER     JKOP   

              2       5        5.42       700     1000      520     2100     2140   
                                         GEOM     BASIS   MCVARS     RHF     MCSCF   

 PROGRAMS   *        TOTAL     MULTI    HF-SCF       INT
 CPU TIMES  *         0.77      0.39      0.10      0.18
 REAL TIME  *         1.04 SEC
 DISK USED  *        39.04 MB
 **********************************************************************************************************************************
 Molecular orbitals read from record     2140.2  Type=MCSCF/NATURAL (state averaged)
 Occupation numbers read from record     2140.2  Type=MCSCF/NATURAL (state averaged)
 Orbital energies read from record       2140.2  Type=MCSCF/NATURAL (state averaged)
 Redundancy group numbers read from rec  2140.2  Type=MCSCF/NATURAL (state averaged)

 MULTI/6-31G* energy=    -77.552477074281

           MULTI          HF-SCF
    -77.55247707    -77.84853848
 **********************************************************************************************************************************
 Molpro calculation terminated
