
 Primary working directories    : /scratch.local/johan406.molpro_temp/molpro.cREGmQKG4N
 Secondary working directories  : /scratch.local/johan406.molpro_temp/molpro.cREGmQKG4N
 Wavefunction directory         : /home/goodpast/johan406/wfu/
 Main file repository           : /scratch.local/johan406.molpro_temp/molpro.cREGmQKG4N/

 id        : roweumn

 Nodes     nprocs
 acn09        1

 Using customized tuning parameters: mindgm=1; mindgv=20; mindgc=4; mindgr=1; noblas=0; minvec=7
 default implementation of scratch files=df  


 Variables initialized (934), CPU time= 0.01 sec
                                                                                 !leave this line blank
 
 gprint, orbitals=30
 memory, 125., m
 symmetry, nosym
 nelect=16
 basis=6-31g*
 
 geometry={
 C -0.6274 0.1386 0.295
 C 0.6344 -0.1867 -0.3627
 H -1.2561 0.8955 -0.1678
 H -0.9613 -0.8754 -0.0758
 H 0.972 0.8071 0.1387
 H 1.2871 -0.9473 0.0816
 }
 
 hf
 {multi,
 closed 7
 occ 9
 wf,spin=0;STATE,3
 }
 
 Commands  initialized (763), CPU time= 0.01 sec, 617 directives.
 Default parameters read. Elapsed time= 0.08 sec

 Checking input...
 Passed
1


                                         ***  PROGRAM SYSTEM MOLPRO  ***
                                       Copyright, TTI GmbH Stuttgart, 2015
                                    Version 2019.2 linked Oct 25 2019 22:50:27


 **********************************************************************************************************************************
 LABEL *                                                                                 
  64 bit serial version                                                                  DATE: 07-Feb-23          TIME: 16:18:56  
 **********************************************************************************************************************************

 SHA1:             8dbd9ae1082e4ce945b0f27595c9eb2d4aa09004
 **********************************************************************************************************************************


 Variable memory set to  125000000 words,  buffer space 

 SETTING NELECT         =        16.00000000                                  
 SETTING BASIS          =    6-31G*
 ZSYMEL=NOSYM


Geometry recognized as XYZ



 Recomputing integrals since basis changed


 Using spherical harmonics

 Library entry C      S 6-31G                selected for orbital group  1
 Library entry C      P 6-31G                selected for orbital group  1
 Library entry C      D 6-31G*               selected for orbital group  1
 Library entry H      S 6-31G                selected for orbital group  2


 PROGRAM * SEWARD (Integral evaluation for generally contracted gaussian basis sets)     Author: Roland Lindh, 1990

 Geometry written to block  1 of record 700


 Point group  C1  



 ATOMIC COORDINATES

 NR  ATOM    CHARGE       X              Y              Z

   1  C       6.00   -1.185614171    0.261916041    0.557469207
   2  C       6.00    1.198842253   -0.352811867   -0.685403665
   3  H       1.00   -2.373684985    1.692249745   -0.317096044
   4  H       1.00   -1.816593724   -1.654266249   -0.143241240
   5  H       1.00    1.836813793    1.525197955    0.262105013
   6  H       1.00    2.432266495   -1.790137558    0.154201652

 Bond lengths in Bohr (Angstrom)

 1-2  2.758306693  1-3  2.054806838  1-4  2.135622836  2-5  2.198113117  2-6  2.071757126
     ( 1.459633043)     ( 1.087356952)     ( 1.130122936)     ( 1.163191369)     ( 1.096326658)

 Bond angles

  1-2-5   82.31416151   1-2-6  119.12185209   2-1-3  117.59238318   2-1-4   84.69849751

  3-1-4  108.30583099   5-2-6  104.19701129

 NUCLEAR CHARGE:                   16
 NUMBER OF PRIMITIVE AOS:          72
 NUMBER OF SYMMETRY AOS:           70
 NUMBER OF CONTRACTIONS:           36   (   36A   )
 NUMBER OF CORE ORBITALS:           2   (    2A   )
 NUMBER OF VALENCE ORBITALS:       12   (   12A   )


 NUCLEAR REPULSION ENERGY   32.35550617

 Eigenvalues of metric

         1 0.928E-02 0.274E-01 0.597E-01 0.642E-01 0.808E-01 0.218E+00 0.237E+00 0.272E+00


 Contracted 2-electron integrals neglected if value below      1.0D-11
 AO integral compression algorithm  1   Integral accuracy      1.0D-11

     1.573 MB (compressed) written to integral file ( 59.2%)


 NUMBER OF SORTED TWO-ELECTRON INTEGRALS:     222111.     BUFFER LENGTH:  32768
 NUMBER OF SEGMENTS:   1  SEGMENT LENGTH:     222111      RECORD LENGTH: 524288

 Memory used in sort:       0.78 MW

 SORT1 READ      284735. AND WROTE      212531. INTEGRALS IN      1 RECORDS. CPU TIME:     0.01 SEC, REAL TIME:     0.00 SEC
 SORT2 READ      212531. AND WROTE      222111. INTEGRALS IN      6 RECORDS. CPU TIME:     0.02 SEC, REAL TIME:     0.02 SEC

 FILE SIZES:   FILE 1:    31.7 MBYTE,  FILE 4:     4.2 MBYTE,   TOTAL:     35.9 MBYTE

 OPERATOR DM      FOR CENTER  0  COORDINATES:    0.000000    0.000000    0.000000


 **********************************************************************************************************************************
 DATASETS  * FILE   NREC   LENGTH (MB)   RECORD NAMES
              1      19       31.13       500      610      700      900      950      970     1000      129      960     1100   
                                          VAR    BASINP    GEOM    SYMINP    ZMAT    AOBASIS   BASIS     P2S    ABASIS      S 
                                         1400     1410     1200     1210     1080     1600     1650     1300     1700   
                                           T        V       H0       H01     AOSYM     SMH    MOLCAS    ERIS     OPER   

 PROGRAMS   *        TOTAL       INT
 CPU TIMES  *         0.29      0.19
 REAL TIME  *         0.49 SEC
 DISK USED  *        36.24 MB
 **********************************************************************************************************************************


 PROGRAM * RHF-SCF (CLOSED SHELL)       Authors: W. Meyer, H.-J. Werner


 NUMBER OF ELECTRONS:       8+    8-    SPACE SYMMETRY=1    SPIN SYMMETRY: Singlet 
 CONVERGENCE THRESHOLDS:    1.00E-05 (Density)    1.00E-07 (Energy)
 MAX. NUMBER OF ITERATIONS:       60
 INTERPOLATION TYPE:            DIIS
 INTERPOLATION STEPS:              2 (START)      1 (STEP)
 LEVEL SHIFTS:                  0.00 (CLOSED)  0.00 (OPEN) 



 Orbital guess generated from atomic densities. Full valence occupancy:    8

 Molecular orbital dump at record        2100.2

 Initial occupancy:   8

 ITERATION    DDIFF          GRAD             ENERGY        2-EL.EN.            DIPOLE MOMENTS         DIIS   ORB.
    1      0.000D+00      0.000D+00       -77.82712940    115.920374   -0.03265   -0.00451    0.07311    0    start
    2      0.000D+00      0.705D-02       -77.84515079    114.895956   -0.03374   -0.02852    0.02678    1    diag
    3      0.758D-02      0.229D-02       -77.84723035    115.313121   -0.05637   -0.01771    0.05939    2    diag
    4      0.296D-02      0.867D-03       -77.84767917    115.189030   -0.04432   -0.02895    0.03480    3    diag
    5      0.162D-02      0.344D-03       -77.84777993    115.186986   -0.05679   -0.02145    0.05198    4    diag
    6      0.643D-03      0.230D-03       -77.84784566    115.193680   -0.05197   -0.02491    0.04396    5    diag
    7      0.591D-03      0.100D-03       -77.84787391    115.194885   -0.05198   -0.02446    0.04443    6    diag
    8      0.507D-03      0.297D-04       -77.84787612    115.195928   -0.05147   -0.02447    0.04408    7    diag
    9      0.146D-03      0.925D-05       -77.84787629    115.196142   -0.05122   -0.02444    0.04400    8    diag
   10      0.393D-04      0.287D-05       -77.84787630    115.196124   -0.05113   -0.02443    0.04394    9    orth
   11      0.863D-05      0.742D-06       -77.84787630    115.196129   -0.05113   -0.02442    0.04395    0    orth

 Final occupancy:   8

 !RHF STATE  1.1 Energy               -77.847876300893
 Nuclear energy                        32.35550617
 One-electron energy                 -167.80144701
 Two-electron energy                   57.59806454
 Virial quotient                       -1.00126613
 !RHF STATE  1.1 Dipole moment         -0.05112657    -0.02442158     0.04394663
 Dipole moment /Debye                  -0.12994227    -0.06206939     0.11169388

 ELECTRON ORBITALS
 =================

  Orbital  Occupation    Energy     Coefficients
    1.1     2.00000   -11.26068     1 1s    0.97247
    2.1     2.00000   -11.25866     2 1s    0.97252
    3.1     2.00000    -1.03705     1 1s    0.28755     1 1s    0.25148     2 1s    0.27841
    4.1     2.00000    -0.78403     1 1s   -0.28810     2 1s    0.29777
    5.1     2.00000    -0.62204     1 2py   0.33021     2 2py   0.28493
    6.1     2.00000    -0.56150     1 2px   0.30326     2 2px  -0.29555
    7.1     2.00000    -0.39880     1 2pz   0.29053
    8.1     2.00000    -0.37991     1 2px  -0.26381
    9.1     0.00000     0.06333     1 1s    0.40583     1 2pz   0.33319     1 2pz   0.47164     2 1s    0.39146     2 2pz  -0.32733
                                    2 2pz  -0.46495
   10.1     0.00000     0.23122     1 1s   -1.12520     1 2px   0.46359     1 2py   0.36264     1 2pz   0.40619     2 1s   -1.05703
                                    2 2px  -0.49876     2 2py  -0.37388     2 2pz  -0.45582     3 1s    0.58264     4 1s    1.07075
                                    5 1s    1.09945     6 1s    0.55499
   11.1     0.00000     0.28216     1 1s    1.52735     1 2py   0.34279     1 2pz  -0.45065     2 1s   -1.59694     2 2py   0.37995
                                    2 2pz  -0.46892     3 1s   -1.40840     6 1s    1.48244
   12.1     0.00000     0.31244     1 1s   -0.93027     1 2px   0.46886     1 2py  -0.90169     1 2pz   0.51783     2 1s   -0.57693
                                    2 2px  -0.32517     2 2py   1.07984     2 2pz  -0.37349     3 1s    1.61044     5 1s   -0.65342
                                    6 1s    1.46841
   13.1     0.00000     0.33461     1 1s   -0.97457     1 2py   0.97387     2 1s    1.10734     2 2px   0.32278     2 2py   0.52896
                                    2 2pz   0.40599     4 1s    1.81466     5 1s   -1.53169     6 1s   -0.29356
   14.1     0.00000     0.42360     1 1s    2.04478     1 2px   1.78283     1 2py  -0.60930     1 2pz  -0.79606     2 1s   -2.01991
                                    2 2px   1.77974     2 2py  -0.65610     2 2pz  -0.78466     3 1s    0.58738     6 1s   -0.66319
   15.1     0.00000     0.70261     1 2px  -0.56429     1 2px   0.90514     2 2px   0.53493     2 2px  -0.95379     4 1s   -0.40014
                                    5 1s   -0.45425     6 1s    0.25177
   16.1     0.00000     0.75838     1 1s   -0.31304     1 2py  -0.43233     1 2px  -0.61747     1 2py   0.94537     2 1s    0.30411
                                    2 2py  -0.31686     2 2px  -0.61343     2 2py   0.63136     3 1s   -0.49006     4 1s    0.27264
                                    6 1s    0.47745
   17.1     0.00000     0.79011     1 1s   -0.28822     1 2py   0.53172     1 2py  -1.14077     2 2py  -0.62272     2 2pz  -0.37136
                                    2 2py   1.28706     2 2pz   0.36006     5 1s   -0.32803
   18.1     0.00000     0.79985     1 2pz  -0.78504     1 2py   0.29134     1 2pz   0.76781     2 2pz  -0.66287     2 2pz   0.62838
   19.1     0.00000     0.86474     1 1s    0.35038     1 2px   0.25381     1 2pz   0.66581     1 2px  -0.45753     1 2py   0.51057
                                    1 2pz  -0.94699     2 1s    0.35726     2 2pz  -0.70559     2 2px   0.45536     2 2py  -0.57236
                                    2 2pz   0.97166
   20.1     0.00000     0.97203     1 2px   0.69373     1 2py   0.36558     1 2px  -1.13372     1 2py  -0.81542     2 1s    0.29413
                                    2 2px   0.73596     2 2py   0.37700     2 2px  -1.14248     2 2py  -0.72680     4 1s   -1.06998
                                    5 1s    1.00939
   21.1     0.00000     1.11493     1 1s   -0.60755     1 1s    1.12405     1 2px   0.33640     1 2px  -0.44585     2 1s   -0.65527
                                    2 1s    1.18847     2 2py  -0.56396     2 2py   0.63120     2 2pz   0.26194     3 1s   -0.29086
                                    4 1s    0.41993     4 1s   -0.80580     5 1s    0.81479     5 1s   -1.44064
   22.1     0.00000     1.13844     1 1s    0.60385     1 2px  -0.30603     1 2py   0.67490     1 2px   0.62307     1 2py  -1.03136
                                    2 1s   -0.28584     2 2px  -0.46820     2 2py   0.46278     2 2px   0.86520     2 2py  -0.82000
                                    3 1s   -0.52991     3 1s    1.15853     4 1s    0.43252     4 1s   -0.93489     6 1s    0.49578
                                    6 1s   -1.25810
   23.1     0.00000     1.18219     1 1s   -0.42678     1 2pz   0.26142     1 2px  -0.80665     2 2px  -0.69696     3 1s    0.43857
                                    3 1s   -0.65231     4 1s    0.86277     4 1s   -1.07232     5 1s   -0.59927     5 1s    0.73872
                                    6 1s   -0.29717     6 1s    0.54132
   24.1     0.00000     1.19039     1 1s   -0.50746     1 1s    0.74884     1 2px   0.27998     1 2py  -0.35614     1 2px  -0.29466
                                    1 2py   0.36036     2 1s   -0.66892     2 1s    1.10074     2 2px  -0.28974     2 2py   0.28923
                                    2 2px   0.26930     2 2py  -0.26786     3 1s    0.75666     3 1s   -1.04874     6 1s    0.77953
                                    6 1s   -1.09400
   25.1     0.00000     1.25599     1 1s   -1.69578     1 1s    3.77803     1 2py   0.31682     1 2pz  -1.31692     2 1s   -0.56675
                                    2 1s    0.28809     2 2px   0.96504     2 2py  -0.69087     2 2pz   0.53678     3 1s   -0.36270
                                    3 1s   -1.09085     4 1s   -0.42248     4 1s   -0.52284     5 1s   -0.37352     6 1s   -0.36978
                                    6 1s   -0.67818
   26.1     0.00000     1.28833     1 1s    1.11829     1 1s   -4.10943     1 2px  -1.33771     1 2py   0.94981     1 2pz   0.80804
                                    2 1s   -1.88364     2 1s    5.47829     2 2px  -0.97987     2 2py   0.50605     2 2pz   1.50320
                                    4 1s    0.53426     5 1s   -0.38652     5 1s   -0.72494     6 1s   -0.72251
   27.1     0.00000     1.69643     1 1s   -0.51498     1 3d0  -0.34290     1 3d2-  0.29513     1 3d2+  0.33365     2 1s    0.64815
                                    2 3d0   0.35329     2 3d2- -0.29761     2 3d2+ -0.32139
   28.1     0.00000     1.91652     1 2px   0.28172     1 3d1+  0.45034     1 3d2+  0.34319     1 3d1-  0.45914     2 1s    0.39427
                                    2 1s   -1.03686     2 2pz  -0.44567     2 3d0   0.41493     2 3d2+  0.28609     3 1s    0.26537
                                    6 1s    0.34906     6 1s    0.27154
   29.1     0.00000     1.94339     1 1s    0.38692     1 1s   -1.50031     1 2px  -0.26441     1 2pz   0.42349     1 3d2-  0.26545
                                    1 3d1- -0.25546     2 1s    1.13075     2 2px  -0.34437     2 2pz   0.25512     2 3d2- -0.29968
                                    2 3d1+  0.50267     2 3d2+  0.31994     2 3d1-  0.44358     3 1s    0.35334
   30.1     0.00000     2.18098     1 1s    0.43208     1 1s   -1.72197     1 2px  -0.39107     1 2py   0.26550     1 2pz   0.48724
                                    1 3d0   0.56718     1 3d1+  0.26431     1 3d2+  0.31327     2 1s    1.50893     2 2px  -0.35572
                                    2 2py   0.27695     2 2pz   0.37883     2 3d0  -0.53493     2 3d2+ -0.37984     3 1s    0.38140
                                    4 1s    0.29860     5 1s   -0.35048     6 1s   -0.30257
   31.1     0.00000     2.25314     1 1s   -0.42129     1 2px  -0.25779     1 3d2- -0.25433     1 3d1+ -0.35124     1 3d2+  0.44467
                                    2 1s   -0.55618     2 1s    0.64946     2 2px   0.25540     2 2px  -0.38886     2 2py   0.26344
                                    2 3d0  -0.26465     2 3d2- -0.32232     2 3d1+ -0.38930     2 3d2+  0.33698
   32.1     0.00000     2.34863     1 2py   0.38305     1 3d0   0.57411     1 3d2- -0.33319     1 3d1- -0.29540     2 2py  -0.33917
                                    2 3d0   0.44291     2 3d2- -0.39984     2 3d1- -0.41985     4 1s    0.41967     5 1s    0.38064
                                    6 1s   -0.32433
   33.1     0.00000     2.58083     1 2py   0.30512     1 3d2- -0.56059     1 3d1- -0.54891     2 1s    0.30575     2 2py   0.28002
                                    2 3d2-  0.39567     2 3d1-  0.63356     3 1s   -0.52306     4 1s    0.40704     5 1s   -0.40670
                                    6 1s    0.44847
   34.1     0.00000     2.64367     1 1s    0.28081     1 2py  -0.37301     1 3d2- -0.37784     1 3d2+ -0.53260     1 3d1-  0.55278
                                    2 2py   0.27465     2 3d2- -0.49697     2 3d2+ -0.50250     2 3d1-  0.45006     4 1s   -0.41164
                                    5 1s   -0.30800
   35.1     0.00000     2.72082     1 3d0  -0.39770     1 3d2- -0.48691     1 3d1+  0.49414     1 3d1- -0.25977     2 3d0  -0.41922
                                    2 3d2- -0.48633     2 3d1+  0.50097     2 3d1- -0.27876     3 1s   -0.46848     6 1s   -0.48008
   36.1     0.00000     2.95998     1 1s   -1.72088     1 2px  -0.43802     1 2px  -0.87461     1 2pz   0.43921     1 3d2-  0.34162
                                    1 3d1+  0.70009     1 3d2+ -0.65284     2 1s    1.71801     2 2px  -0.43412     2 2px  -0.87350
                                    2 2pz   0.44074     2 3d2- -0.35220     2 3d1+ -0.69216     2 3d2+  0.63675


 HOMO      8.1    -0.379905 =     -10.3377eV
 LUMO      9.1     0.063330 =       1.7233eV
 LUMO-HOMO         0.443236 =      12.0611eV


 **********************************************************************************************************************************
 DATASETS  * FILE   NREC   LENGTH (MB)   RECORD NAMES
              1      19       31.13       500      610      700      900      950      970     1000      129      960     1100   
                                          VAR    BASINP    GEOM    SYMINP    ZMAT    AOBASIS   BASIS     P2S    ABASIS      S 
                                         1400     1410     1200     1210     1080     1600     1650     1300     1700   
                                           T        V       H0       H01     AOSYM     SMH    MOLCAS    ERIS     OPER   

              2       4        2.86       700     1000      520     2100   
                                         GEOM     BASIS   MCVARS     RHF  

 PROGRAMS   *        TOTAL    HF-SCF       INT
 CPU TIMES  *         0.41      0.11      0.19
 REAL TIME  *         0.64 SEC
 DISK USED  *        36.24 MB
 **********************************************************************************************************************************


 PROGRAM * MULTI (Direct Multiconfiguration SCF)       Authors: P.J. Knowles, H.-J. Werner (1984)


 Number of closed-shell orbitals:   7 (   7 )
 Number of active  orbitals:        2 (   2 )
 Number of external orbitals:      27 (  27 )

 State symmetry 1

 Number of electrons:     2    Spin symmetry=Singlet   Space symmetry=1
 Number of states:        3
 Number of CSFs:          3   (4 determinants, 4 intermediate states)

 Molecular orbitals read from record     2100.2  Type=RHF/CANONICAL (state 1.1)

 Wavefunction dump at record             2140.2

 Convergence thresholds  0.10E-01 (gradient)  0.10E-05 (energy)  0.10E-02 (step length)

 Weight factors for state symmetry  1:    0.33333   0.33333   0.33333

 Number of orbital rotations:      257   (    14 Core/Active    189 Core/Virtual   0 Active/Active     54 Active/Virtual)
 Total number of variables:        269

 Micro-Iterations solved by the two-step solver

 ITER. MIC  NCI  NEG     ENERGY(VAR)     ENERGY(PROJ)   ENERGY CHANGE     GRAD(0)  GRAD(ORB)   GRAD(CI)     STEP       TIME

   1    9    6    0     -77.67333330     -77.71079039   -0.03745708    0.14933563 0.00025627 0.00000000  0.24D+00      0.15
   2    6    5    0     -77.71078157     -77.71150847   -0.00072690    0.04079013 0.00012997 0.00000000  0.24D-01      0.25
   3    8    5    0     -77.71151385     -77.71151399   -0.00000014    0.00044860 0.00000011 0.00000000  0.47D-03      0.35
   4    4    3    0     -77.71151399     -77.71151399   -0.00000000    0.00000011 0.00000000 0.00000000  0.13D-06      0.42

 ** WVFN ****  CONVERGENCE REACHED, FINAL GRADIENT:  0.54D-12



 Results for state 1.1
 =====================

 !MCSCF STATE  1.1 Energy             -77.841651407700
 Nuclear energy                        32.35550617
 Kinetic energy                        77.80408778
 One electron energy                 -167.87428162
 Two electron energy                   57.67712405
 Virial ratio                           2.00048280

 !MCSCF STATE  1.1 Dipole moment       -0.09027466    -0.01789365     0.05690711
 Dipole moment /Debye                  -0.22944027    -0.04547815     0.14463396

 Results for state 2.1
 =====================

 !MCSCF STATE  2.1 Energy             -77.737856696888
 Nuclear energy                        32.35550617
 Kinetic energy                        77.88052956
 One electron energy                 -167.57816285
 Two electron energy                   57.48479999
 Virial ratio                           1.99816805

 !MCSCF STATE  2.1 Dipole moment        0.06496674    -0.03157690     0.01300354
 Dipole moment /Debye                   0.16511816    -0.08025521     0.03304953

 Results for state 3.1
 =====================

 !MCSCF STATE  3.1 Energy             -77.555033863608
 Nuclear energy                        32.35550617
 Kinetic energy                        77.94421594
 One electron energy                 -167.32510537
 Two electron energy                   57.41456534
 Virial ratio                           1.99500692

 !MCSCF STATE  3.1 Dipole moment        0.16086859    -0.02528031     0.04033948
 Dipole moment /Debye                   0.40886040    -0.06425192     0.10252601

 State-averaged charge density matrix saved on record  2140.2 (density set 1)

 !MCSCF expec         <1.1|DMX|1.1>    -0.090274659433 au =    -0.229440268922 Debye
 !MCSCF trans         <2.1|DMX|1.1>    -0.131811213445 au =    -0.335008743866 Debye
 !MCSCF expec         <2.1|DMX|2.1>     0.064966738522 au =     0.165118163292 Debye
 !MCSCF trans         <3.1|DMX|1.1>    -0.023046593255 au =    -0.058574760484 Debye
 !MCSCF trans         <3.1|DMX|2.1>    -0.155488976681 au =    -0.395187673354 Debye
 !MCSCF expec         <3.1|DMX|3.1>     0.160868591726 au =     0.408860395358 Debye

 !MCSCF expec         <1.1|DMY|1.1>    -0.017893651050 au =    -0.045478145637 Debye
 !MCSCF trans         <2.1|DMY|1.1>     0.045777032111 au =     0.116345989273 Debye
 !MCSCF expec         <2.1|DMY|2.1>    -0.031576896303 au =    -0.080255208105 Debye
 !MCSCF trans         <3.1|DMY|1.1>     0.003733438323 au =     0.009488832173 Debye
 !MCSCF trans         <3.1|DMY|2.1>     0.051096019950 au =     0.129864622384 Debye
 !MCSCF expec         <3.1|DMY|3.1>    -0.025280306937 au =    -0.064251922505 Debye

 !MCSCF expec         <1.1|DMZ|1.1>     0.056907105204 au =     0.144633960444 Debye
 !MCSCF trans         <2.1|DMZ|1.1>     0.163397938328 au =     0.415288932096 Debye
 !MCSCF expec         <2.1|DMZ|2.1>     0.013003535604 au =     0.033049526022 Debye
 !MCSCF trans         <3.1|DMZ|1.1>     0.012802104137 au =     0.032537571832 Debye
 !MCSCF trans         <3.1|DMZ|2.1>     0.182027253072 au =     0.462636825862 Debye
 !MCSCF expec         <3.1|DMZ|3.1>     0.040339478320 au =     0.102526011309 Debye


 NATURAL ORBITALS (state averaged)
 =================================

  Orbital  Occupation    Energy     Coefficients
    1.1     2.00000   -11.25715     2 1s    0.99398
    2.1     2.00000   -11.25166     1 1s    0.99395
    3.1     2.00000    -1.04944     1 1s    0.27836     2 1s    0.27779
    4.1     2.00000    -0.78489     1 1s   -0.31421     2 1s    0.32155
    5.1     2.00000    -0.62443     1 2py   0.31536     2 2py   0.28781
    6.1     2.00000    -0.55997     1 2px   0.26299     2 2px  -0.25714
    7.1     2.00000    -0.42111     1 2pz   0.32930     1 2pz   0.28163     2 2pz   0.31719     2 2pz   0.27484
    8.1     1.00000    -0.08640     1 1s    0.27852     1 2pz   0.40826     1 2pz   0.43399     2 1s    0.25533     2 2pz  -0.40020
                                    2 2pz  -0.42745
    9.1     1.00000    -0.22875     1 2px  -0.31538     2 2px   0.29992     4 1s    0.28576     5 1s    0.30018
   10.1    -0.00000     0.21923     1 1s   -1.08004     1 2px   0.45320     1 2py   0.36994     1 2pz   0.33135     2 1s   -1.11833
                                    2 2px  -0.49969     2 2py  -0.39242     2 2pz  -0.41288     3 1s    0.51629     4 1s    1.04854
                                    5 1s    1.13838     6 1s    0.55971
   11.1    -0.00000     0.28102     1 1s    1.59577     1 2pz  -0.44824     2 1s   -1.68407     2 2py   0.38564     2 2pz  -0.49451
                                    3 1s   -1.32511     6 1s    1.53760
   12.1    -0.00000     0.31310     1 1s   -1.39858     1 2px   0.45339     1 2py  -0.35577     1 2pz   0.57760     2 2py   0.28668
                                    2 2py   1.22539     3 1s    1.33862     4 1s    0.68753     5 1s   -1.21272     6 1s    1.26304
   13.1    -0.00000     0.32140     1 1s   -0.42111     1 2py   0.31209     1 2py   1.33762     2 1s    1.21050     2 2px   0.31612
                                    2 2pz   0.49572     3 1s   -1.08702     4 1s    1.70547     5 1s   -1.12281     6 1s   -0.69529
   14.1    -0.00000     0.42969     1 1s    1.90748     1 2px   1.79569     1 2py  -0.50110     1 2pz  -0.73598     2 1s   -1.88905
                                    2 2px   1.79037     2 2py  -0.55594     2 2pz  -0.73285     3 1s    0.58869     6 1s   -0.66227
   15.1    -0.00000     0.69935     1 2px  -0.54328     1 2px   0.87999     2 2px   0.52682     2 2px  -0.93294     4 1s   -0.46525
                                    5 1s    0.25155     5 1s   -0.50287     6 1s    0.25676
   16.1    -0.00000     0.75560     1 1s   -0.44742     1 2py  -0.38824     1 2px  -0.65930     1 2py   0.88481     2 1s    0.38690
                                    2 2py  -0.34479     2 2px  -0.67494     2 2py   0.72868     3 1s   -0.47544     4 1s    0.26891
                                    6 1s    0.48940
   17.1    -0.00000     0.78845     1 1s   -0.30819     1 2py   0.51906     1 2py  -1.12880     2 2py  -0.56468     2 2pz  -0.43662
                                    2 2py   1.22162     2 2pz   0.50224     5 1s   -0.32955
   18.1    -0.00000     0.80065     1 1s   -0.32727     1 2pz  -0.77751     1 2py   0.43308     1 2pz   0.83220     2 1s    0.36539
                                    2 2pz  -0.63330     2 2pz   0.65540
   19.1    -0.00000     0.86281     1 1s    0.31088     1 2px   0.26751     1 2pz   0.65558     1 2px  -0.48681     1 2py   0.51838
                                    1 2pz  -1.01767     2 1s    0.31196     2 2pz  -0.66754     2 2px   0.49873     2 2py  -0.57604
                                    2 2pz   1.01078     3 1s   -0.26108     6 1s   -0.29500
   20.1    -0.00000     0.97872     1 2px   0.68814     1 2py   0.36787     1 2px  -1.05141     1 2py  -0.83302     2 2px   0.73517
                                    2 2py   0.39020     2 2px  -1.06878     2 2py  -0.74874     4 1s   -1.01606     5 1s    0.99946
   21.1    -0.00000     1.08760     1 1s   -0.51094     1 1s    0.98610     1 2px   0.33349     1 2px  -0.36434     2 1s   -0.68882
                                    2 1s    1.18927     2 2py  -0.56561     2 2px   0.30201     2 2py   0.62457     4 1s    0.35270
                                    4 1s   -0.69807     5 1s    0.88039     5 1s   -1.46934
   22.1    -0.00000     1.12771     1 1s   -0.37269     1 1s    0.68771     1 2py   0.71912     1 2py  -0.96916     2 2px  -0.37490
                                    2 2py   0.45160     2 2px   0.44961     2 2py  -0.68949     3 1s   -0.25777     3 1s    0.70571
                                    4 1s    0.78936     4 1s   -1.35714     5 1s   -0.34093     5 1s    0.57627     6 1s    0.28155
                                    6 1s   -0.82555
   23.1    -0.00000     1.15944     1 1s   -0.29608     1 2px   0.37562     1 2px  -1.05048     1 2py   0.34968     2 1s    0.33555
                                    2 2px   0.34380     2 2px  -1.05089     2 2py   0.53921     3 1s    0.50389     3 1s   -0.99438
                                    4 1s    0.59545     4 1s   -0.63334     5 1s   -0.40149     5 1s    0.39636     6 1s   -0.63673
                                    6 1s    1.23463
   24.1    -0.00000     1.19514     1 1s   -0.44812     1 1s    0.47193     1 2px   0.32166     1 2py  -0.36026     1 2px  -0.43606
                                    1 2py   0.39751     2 1s   -0.59006     2 1s    1.10552     2 2py   0.28102     3 1s    0.86041
                                    3 1s   -1.12768     6 1s    0.71840     6 1s   -0.89621
   25.1    -0.00000     1.24908     1 1s   -1.61266     1 1s    3.38151     1 2py   0.45964     1 2pz  -1.21182     2 1s   -0.83885
                                    2 1s    1.01199     2 2px   0.87032     2 2py  -0.63262     2 2pz   0.71240     3 1s   -0.33924
                                    3 1s   -1.13248     4 1s   -0.39167     4 1s   -0.48316     5 1s   -0.36512     5 1s   -0.31798
                                    6 1s   -0.35916     6 1s   -0.80524
   26.1    -0.00000     1.28058     1 1s    1.30847     1 1s   -4.50440     1 2px  -1.33091     1 2py   0.87857     1 2pz   0.93459
                                    2 1s   -1.81218     2 1s    5.41448     2 2px  -1.08897     2 2py   0.54009     2 2pz   1.41759
                                    3 1s    0.27746     4 1s    0.55185     5 1s   -0.34263     5 1s   -0.67651     6 1s   -0.65390
   27.1    -0.00000     1.69133     1 1s   -0.54153     1 3d0  -0.33487     1 3d2-  0.29763     1 3d2+  0.33425     2 1s    0.67335
                                    2 3d0   0.34882     2 3d2- -0.30338     2 3d2+ -0.32474
   28.1    -0.00000     1.91496     1 1s   -0.31270     1 2px   0.26440     1 3d1+  0.42895     1 3d2+  0.34386     1 3d1-  0.43764
                                    2 1s    0.36959     2 1s   -0.94464     2 2pz  -0.42005     2 3d0   0.42439     2 3d2+  0.31637
                                    3 1s    0.26833     6 1s    0.33381     6 1s    0.26822
   29.1    -0.00000     1.93883     1 1s    0.36244     1 1s   -1.44738     1 2px  -0.26978     1 2pz   0.39797     1 3d2-  0.26865
                                    1 3d1+ -0.26821     1 3d1- -0.28359     2 1s    1.16577     2 2px  -0.32932     2 2pz   0.27616
                                    2 3d2- -0.30599     2 3d1+  0.49210     2 3d2+  0.30370     2 3d1-  0.43391     3 1s    0.34895
                                    6 1s   -0.26997
   30.1    -0.00000     2.18096     1 1s    0.44055     1 1s   -1.71124     1 2px  -0.38199     1 2py   0.25947     1 2pz   0.48689
                                    1 3d0   0.56332     1 3d1+  0.26848     1 3d2+  0.31294     2 1s    1.47885     2 2px  -0.34919
                                    2 2py   0.28500     2 2pz   0.36370     2 3d0  -0.53759     2 3d2+ -0.38244     3 1s    0.38512
                                    4 1s    0.28556     5 1s   -0.35072     6 1s   -0.29190
   31.1    -0.00000     2.24885     1 1s   -0.41062     1 2px  -0.26486     1 3d2- -0.26467     1 3d1+ -0.35118     1 3d2+  0.44889
                                    2 1s   -0.55498     2 1s    0.67927     2 2px   0.25916     2 2px  -0.39010     2 3d0  -0.26658
                                    2 3d2- -0.33397     2 3d1+ -0.40003     2 3d2+  0.33088
   32.1    -0.00000     2.34283     1 2py   0.39832     1 3d0   0.58098     1 3d2- -0.32277     1 3d1- -0.30170     2 2py  -0.35345
                                    2 3d0   0.43456     2 3d2- -0.39959     2 3d1- -0.43724     4 1s    0.40798     5 1s    0.36997
                                    6 1s   -0.34470
   33.1    -0.00000     2.57563     1 2py   0.30085     1 3d2- -0.56891     1 3d1- -0.54186     2 1s    0.29269     2 2py   0.28253
                                    2 3d2-  0.39010     2 3d1-  0.63949     3 1s   -0.52668     4 1s    0.39241     5 1s   -0.40094
                                    6 1s    0.44940
   34.1    -0.00000     2.63571     1 1s    0.29022     1 2py  -0.38464     1 3d2- -0.37675     1 3d2+ -0.52907     1 3d1-  0.56526
                                    2 2py   0.27424     2 3d2- -0.50948     2 3d2+ -0.49379     2 3d1-  0.43844     4 1s   -0.40925
                                    5 1s   -0.29206
   35.1    -0.00000     2.72561     1 3d0  -0.40786     1 3d2- -0.48273     1 3d1+  0.49689     1 3d1- -0.26521     2 3d0  -0.42399
                                    2 3d2- -0.46733     2 3d1+  0.50745     2 3d1- -0.27563     3 1s   -0.47278     6 1s   -0.47169
   36.1    -0.00000     2.95578     1 1s   -1.75053     1 2px  -0.43064     1 2px  -0.88760     1 2pz   0.44741     1 3d2-  0.33801
                                    1 3d1+  0.70749     1 3d2+ -0.65083     2 1s    1.74663     2 2px  -0.42909     2 2px  -0.88386
                                    2 2py   0.25326     2 2pz   0.44780     2 3d2- -0.35158     2 3d1+ -0.69033     2 3d2+  0.63329


 Natural orbital dump (state averaged) at molpro section  2140.2    (Orbital set 2)



 **********************************************************************************************************************************
 DATASETS  * FILE   NREC   LENGTH (MB)   RECORD NAMES
              1      20       31.86       500      610      700      900      950      970     1000      129      960     1100   
                                          VAR    BASINP    GEOM    SYMINP    ZMAT    AOBASIS   BASIS     P2S    ABASIS      S 
                                         1400     1410     1200     1210     1080     1600     1650     1300     1700     1380   
                                           T        V       H0       H01     AOSYM     SMH    MOLCAS    ERIS     OPER     JKOP   

              2       5        5.42       700     1000      520     2100     2140   
                                         GEOM     BASIS   MCVARS     RHF     MCSCF   

 PROGRAMS   *        TOTAL     MULTI    HF-SCF       INT
 CPU TIMES  *         0.87      0.47      0.11      0.19
 REAL TIME  *         1.18 SEC
 DISK USED  *        39.04 MB
 **********************************************************************************************************************************
 Molecular orbitals read from record     2140.2  Type=MCSCF/NATURAL (state averaged)
 Occupation numbers read from record     2140.2  Type=MCSCF/NATURAL (state averaged)
 Orbital energies read from record       2140.2  Type=MCSCF/NATURAL (state averaged)
 Redundancy group numbers read from rec  2140.2  Type=MCSCF/NATURAL (state averaged)

 MULTI/6-31G* energy=    -77.555033863608

           MULTI          HF-SCF
    -77.55503386    -77.84787630
 **********************************************************************************************************************************
 Molpro calculation terminated
