
 Primary working directories    : /scratch.local/johan406.molpro_temp/molpro.rZXTyZ939Z
 Secondary working directories  : /scratch.local/johan406.molpro_temp/molpro.rZXTyZ939Z
 Wavefunction directory         : /home/goodpast/johan406/wfu/
 Main file repository           : /scratch.local/johan406.molpro_temp/molpro.rZXTyZ939Z/

 id        : roweumn

 Nodes     nprocs
 acn09        1

 Using customized tuning parameters: mindgm=1; mindgv=20; mindgc=4; mindgr=1; noblas=0; minvec=7
 default implementation of scratch files=df  


 Variables initialized (934), CPU time= 0.00 sec
                                                                                 !leave this line blank
 
 gprint, orbitals=30
 memory, 125., m
 symmetry, nosym
 nelect=16
 basis=6-31g*
 
 geometry={
 C -0.6277 0.1389 0.2939
 C 0.6342 -0.1864 -0.3638
 H -1.2527 0.8952 -0.1718
 H -0.961 -0.8782 -0.057
 H 0.9723 0.8043 0.1574
 H 1.2904 -0.9475 0.0777
 }
 
 hf
 {multi,
 closed 7
 occ 9
 wf,spin=0;STATE,3
 }
 
 Commands  initialized (763), CPU time= 0.02 sec, 617 directives.
 Default parameters read. Elapsed time= 0.09 sec

 Checking input...
 Passed
1


                                         ***  PROGRAM SYSTEM MOLPRO  ***
                                       Copyright, TTI GmbH Stuttgart, 2015
                                    Version 2019.2 linked Oct 25 2019 22:50:27


 **********************************************************************************************************************************
 LABEL *                                                                                 
  64 bit serial version                                                                  DATE: 07-Feb-23          TIME: 16:19:27  
 **********************************************************************************************************************************

 SHA1:             8dbd9ae1082e4ce945b0f27595c9eb2d4aa09004
 **********************************************************************************************************************************


 Variable memory set to  125000000 words,  buffer space 

 SETTING NELECT         =        16.00000000                                  
 SETTING BASIS          =    6-31G*
 ZSYMEL=NOSYM


Geometry recognized as XYZ



 Recomputing integrals since basis changed


 Using spherical harmonics

 Library entry C      S 6-31G                selected for orbital group  1
 Library entry C      P 6-31G                selected for orbital group  1
 Library entry C      D 6-31G*               selected for orbital group  1
 Library entry H      S 6-31G                selected for orbital group  2


 PROGRAM * SEWARD (Integral evaluation for generally contracted gaussian basis sets)     Author: Roland Lindh, 1990

 Geometry written to block  1 of record 700


 Point group  C1  



 ATOMIC COORDINATES

 NR  ATOM    CHARGE       X              Y              Z

   1  C       6.00   -1.186181088    0.262482959    0.555390508
   2  C       6.00    1.198464308   -0.352244950   -0.687482364
   3  H       1.00   -2.367259916    1.691682827   -0.324654948
   4  H       1.00   -1.816026806   -1.659557483   -0.107714389
   5  H       1.00    1.837380711    1.519906722    0.297442892
   6  H       1.00    2.438502591   -1.790515503    0.146831720

 Bond lengths in Bohr (Angstrom)

 1-2  2.758470055  1-3  2.052325380  1-4  2.128533108  2-5  2.209806284  2-6  2.074222051
     ( 1.459719490)     ( 1.086043820)     ( 1.126371213)     ( 1.169379126)     ( 1.097631040)

 Bond angles

  1-2-5   81.97098835   1-2-6  119.34778873   2-1-3  117.35349582   2-1-4   85.07842058

  3-1-4  108.96247166   5-2-6  103.61078546

 NUCLEAR CHARGE:                   16
 NUMBER OF PRIMITIVE AOS:          72
 NUMBER OF SYMMETRY AOS:           70
 NUMBER OF CONTRACTIONS:           36   (   36A   )
 NUMBER OF CORE ORBITALS:           2   (    2A   )
 NUMBER OF VALENCE ORBITALS:       12   (   12A   )


 NUCLEAR REPULSION ENERGY   32.34752985

 Eigenvalues of metric

         1 0.930E-02 0.274E-01 0.597E-01 0.640E-01 0.813E-01 0.218E+00 0.237E+00 0.272E+00


 Contracted 2-electron integrals neglected if value below      1.0D-11
 AO integral compression algorithm  1   Integral accuracy      1.0D-11

     1.573 MB (compressed) written to integral file ( 59.2%)


 NUMBER OF SORTED TWO-ELECTRON INTEGRALS:     222111.     BUFFER LENGTH:  32768
 NUMBER OF SEGMENTS:   1  SEGMENT LENGTH:     222111      RECORD LENGTH: 524288

 Memory used in sort:       0.78 MW

 SORT1 READ      284735. AND WROTE      212531. INTEGRALS IN      1 RECORDS. CPU TIME:     0.01 SEC, REAL TIME:     0.01 SEC
 SORT2 READ      212531. AND WROTE      222111. INTEGRALS IN      6 RECORDS. CPU TIME:     0.02 SEC, REAL TIME:     0.03 SEC

 FILE SIZES:   FILE 1:    31.7 MBYTE,  FILE 4:     4.2 MBYTE,   TOTAL:     35.9 MBYTE

 OPERATOR DM      FOR CENTER  0  COORDINATES:    0.000000    0.000000    0.000000


 **********************************************************************************************************************************
 DATASETS  * FILE   NREC   LENGTH (MB)   RECORD NAMES
              1      19       31.13       500      610      700      900      950      970     1000      129      960     1100   
                                          VAR    BASINP    GEOM    SYMINP    ZMAT    AOBASIS   BASIS     P2S    ABASIS      S 
                                         1400     1410     1200     1210     1080     1600     1650     1300     1700   
                                           T        V       H0       H01     AOSYM     SMH    MOLCAS    ERIS     OPER   

 PROGRAMS   *        TOTAL       INT
 CPU TIMES  *         0.30      0.19
 REAL TIME  *         0.56 SEC
 DISK USED  *        36.24 MB
 **********************************************************************************************************************************


 PROGRAM * RHF-SCF (CLOSED SHELL)       Authors: W. Meyer, H.-J. Werner


 NUMBER OF ELECTRONS:       8+    8-    SPACE SYMMETRY=1    SPIN SYMMETRY: Singlet 
 CONVERGENCE THRESHOLDS:    1.00E-05 (Density)    1.00E-07 (Energy)
 MAX. NUMBER OF ITERATIONS:       60
 INTERPOLATION TYPE:            DIIS
 INTERPOLATION STEPS:              2 (START)      1 (STEP)
 LEVEL SHIFTS:                  0.00 (CLOSED)  0.00 (OPEN) 



 Orbital guess generated from atomic densities. Full valence occupancy:    8

 Molecular orbital dump at record        2100.2

 Initial occupancy:   8

 ITERATION    DDIFF          GRAD             ENERGY        2-EL.EN.            DIPOLE MOMENTS         DIIS   ORB.
    1      0.000D+00      0.000D+00       -77.82665541    115.905269   -0.04310   -0.00564    0.09608    0    start
    2      0.000D+00      0.705D-02       -77.84469513    114.879688   -0.04390   -0.03729    0.03465    1    diag
    3      0.762D-02      0.231D-02       -77.84677514    115.296342   -0.07379   -0.02294    0.07780    2    diag
    4      0.296D-02      0.896D-03       -77.84722820    115.175558   -0.05808   -0.03755    0.04583    3    diag
    5      0.163D-02      0.373D-03       -77.84732667    115.169847   -0.07206   -0.02926    0.06487    4    diag
    6      0.600D-03      0.231D-03       -77.84739896    115.177511   -0.06815   -0.03230    0.05779    5    diag
    7      0.649D-03      0.998D-04       -77.84742677    115.178656   -0.06795   -0.03188    0.05805    6    diag
    8      0.499D-03      0.304D-04       -77.84742910    115.179723   -0.06731   -0.03188    0.05763    7    diag
    9      0.149D-03      0.994D-05       -77.84742929    115.179954   -0.06699   -0.03184    0.05752    8    diag
   10      0.420D-04      0.321D-05       -77.84742930    115.179944   -0.06687   -0.03183    0.05743    9    orth
   11      0.100D-04      0.853D-06       -77.84742931    115.179943   -0.06682   -0.03182    0.05741    9    diag
   12      0.243D-05      0.256D-06       -77.84742931    115.179944   -0.06682   -0.03182    0.05742    0    orth

 Final occupancy:   8

 !RHF STATE  1.1 Energy               -77.847429305133
 Nuclear energy                        32.34752985
 One-electron energy                 -167.78493110
 Two-electron energy                   57.58997195
 Virial quotient                       -1.00129364
 !RHF STATE  1.1 Dipole moment         -0.06682222    -0.03181649     0.05741559
 Dipole moment /Debye                  -0.16983401    -0.08086417     0.14592631

 ELECTRON ORBITALS
 =================

  Orbital  Occupation    Energy     Coefficients
    1.1     2.00000   -11.26111     1 1s    0.98228
    2.1     2.00000   -11.25852     2 1s    0.98232
    3.1     2.00000    -1.03695     1 1s    0.28891     1 1s    0.25239     2 1s    0.27701
    4.1     2.00000    -0.78388     1 1s   -0.28677     2 1s    0.29931
    5.1     2.00000    -0.62217     1 2py   0.33645     2 2py   0.27770
    6.1     2.00000    -0.56142     1 2px   0.30464     2 2px  -0.29463
    7.1     2.00000    -0.40136     1 2pz   0.28841
    8.1     2.00000    -0.37709     1 2px  -0.25994
    9.1     0.00000     0.06333     1 1s    0.40835     1 2pz   0.33387     1 2pz   0.47239     2 1s    0.38953     2 2pz  -0.32621
                                    2 2pz  -0.46357
   10.1     0.00000     0.23101     1 1s   -1.13074     1 2px   0.45680     1 2py   0.36160     1 2pz   0.39713     2 1s   -1.04283
                                    2 2px  -0.50264     2 2py  -0.37670     2 2pz  -0.46195     3 1s    0.58338     4 1s    1.06444
                                    5 1s    1.10268     6 1s    0.54742
   11.1     0.00000     0.28216     1 1s    1.51283     1 2py   0.33940     1 2pz  -0.44714     2 1s   -1.60372     2 2py   0.38685
                                    2 2pz  -0.47051     3 1s   -1.39699     6 1s    1.49272
   12.1     0.00000     0.31193     1 1s   -0.98613     1 2px   0.48954     1 2py  -0.85580     1 2pz   0.53358     2 1s   -0.52321
                                    2 2px  -0.30243     2 2py   1.09039     2 2pz  -0.34600     3 1s    1.61577     5 1s   -0.71639
                                    6 1s    1.43199
   13.1     0.00000     0.33414     1 1s   -0.94233     1 2py   0.25025     1 2py   1.03594     2 1s    1.12017     2 2px   0.33174
                                    2 2py   0.45508     2 2pz   0.42901     3 1s   -0.32274     4 1s    1.83959     5 1s   -1.47198
                                    6 1s   -0.37158
   14.1     0.00000     0.42360     1 1s    2.04846     1 2px   1.78276     1 2py  -0.60179     1 2pz  -0.79803     2 1s   -2.01572
                                    2 2px   1.77884     2 2py  -0.66262     2 2pz  -0.78304     3 1s    0.57448     6 1s   -0.67347
   15.1     0.00000     0.70260     1 2px  -0.56862     1 2px   0.89767     2 2px   0.53011     2 2px  -0.96082     4 1s   -0.39192
                                    5 1s   -0.46203     6 1s    0.25800
   16.1     0.00000     0.75836     1 1s   -0.31201     1 2py  -0.44705     1 2px  -0.61488     1 2py   0.98765     2 1s    0.29976
                                    2 2py  -0.30009     2 2px  -0.61101     2 2py   0.58627     3 1s   -0.49018     4 1s    0.27975
                                    6 1s    0.47453
   17.1     0.00000     0.79068     1 1s   -0.30632     1 2py   0.51026     1 2py  -1.10216     2 2py  -0.62757     2 2pz  -0.40931
                                    2 2py   1.29018     2 2pz   0.39901     5 1s   -0.34005
   18.1     0.00000     0.79987     1 2pz  -0.79759     1 2py   0.35597     1 2pz   0.78157     2 2pz  -0.63319     2 2pz   0.59538
   19.1     0.00000     0.86473     1 1s    0.34851     1 2px   0.25857     1 2pz   0.65845     1 2px  -0.45890     1 2py   0.50336
                                    1 2pz  -0.94223     2 1s    0.35756     2 2pz  -0.71065     2 2px   0.45569     2 2py  -0.58381
                                    2 2pz   0.97464
   20.1     0.00000     0.97064     1 2px   0.68595     1 2py   0.36395     1 2px  -1.12266     1 2py  -0.82705     2 1s    0.30451
                                    2 2px   0.74126     2 2py   0.37866     2 2px  -1.13554     2 2py  -0.71132     4 1s   -1.07254
                                    5 1s    0.99474
   21.1     0.00000     1.11225     1 1s   -0.58475     1 1s    1.09089     1 2px   0.34474     1 2px  -0.44645     2 1s   -0.64849
                                    2 1s    1.16676     2 2py  -0.58081     2 2py   0.65809     2 2pz   0.27138     3 1s   -0.32066
                                    4 1s    0.36827     4 1s   -0.72380     5 1s    0.84080     5 1s   -1.47278     6 1s    0.27620
   22.1     0.00000     1.13914     1 1s    0.67692     1 2px  -0.29293     1 2py   0.67371     1 2px   0.61899     1 2py  -1.03104
                                    2 1s   -0.32384     2 1s    0.25263     2 2px  -0.47925     2 2py   0.43876     2 2px   0.89898
                                    2 2py  -0.79526     3 1s   -0.53200     3 1s    1.14284     4 1s    0.42934     4 1s   -0.94517
                                    6 1s    0.50231     6 1s   -1.27041
   23.1     0.00000     1.18214     1 1s   -0.44631     1 2px   0.26299     1 2pz   0.25924     1 2px  -0.82353     2 1s    0.26399
                                    2 2px  -0.67735     3 1s    0.46418     3 1s   -0.66626     4 1s    0.89083     4 1s   -1.11059
                                    5 1s   -0.55505     5 1s    0.69107     6 1s   -0.25485     6 1s    0.49167
   24.1     0.00000     1.19049     1 1s   -0.46296     1 1s    0.66731     1 2px   0.26999     1 2py  -0.37498     1 2px  -0.28125
                                    1 2py   0.38047     2 1s   -0.68252     2 1s    1.12733     2 2px  -0.28676     2 2py   0.28295
                                    2 2px   0.26672     2 2py  -0.25915     3 1s    0.74674     3 1s   -1.02782     6 1s    0.78533
                                    6 1s   -1.10135
   25.1     0.00000     1.25424     1 1s   -1.78895     1 1s    4.09061     1 2py   0.26140     1 2pz  -1.36516     2 1s   -0.42231
                                    2 2px   1.04887     2 2py  -0.70092     2 2pz   0.42795     3 1s   -0.33869     3 1s   -1.11895
                                    4 1s   -0.40742     4 1s   -0.55490     5 1s   -0.35604     6 1s   -0.35217     6 1s   -0.61189
   26.1     0.00000     1.28956     1 1s    0.98853     1 1s   -3.80918     1 2px  -1.33152     1 2py   0.97971     1 2pz   0.70126
                                    2 1s   -1.91419     2 1s    5.46256     2 2px  -0.89846     2 2py   0.44030     2 2pz   1.54256
                                    4 1s    0.49377     5 1s   -0.41739     5 1s   -0.72463     6 1s   -0.26966     6 1s   -0.76648
   27.1     0.00000     1.69697     1 1s   -0.49022     1 3d0  -0.34056     1 3d2-  0.29430     1 3d2+  0.33614     2 1s    0.66274
                                    2 3d0   0.35376     2 3d2- -0.29741     2 3d2+ -0.32043
   28.1     0.00000     1.91491     1 2px   0.29550     1 3d1+  0.46249     1 3d2+  0.33167     1 3d1-  0.48272     2 1s    0.40327
                                    2 1s   -1.09237     2 2pz  -0.45855     2 3d0   0.42027     2 3d2+  0.26868     3 1s    0.26000
                                    6 1s    0.37120     6 1s    0.26740
   29.1     0.00000     1.94512     1 1s    0.39538     1 1s   -1.50046     1 2px  -0.25185     1 2pz   0.42590     1 3d2-  0.25075
                                    2 1s    1.07232     2 2px  -0.34148     2 3d2- -0.29237     2 3d1+  0.51696     2 3d2+  0.34866
                                    2 3d1-  0.44228     3 1s    0.34678
   30.1     0.00000     2.18037     1 1s    0.45299     1 1s   -1.72802     1 2px  -0.38977     1 2py   0.25916     1 2pz   0.49577
                                    1 3d0   0.56082     1 3d2-  0.25128     1 3d1+  0.29467     1 3d2+  0.29840     2 1s    1.45537
                                    2 2px  -0.34558     2 2py   0.27517     2 2pz   0.35676     2 3d0  -0.52037     2 3d2+ -0.38290
                                    3 1s    0.38540     4 1s    0.28626     5 1s   -0.35263     6 1s   -0.28350
   31.1     0.00000     2.25468     1 1s   -0.39899     1 2px  -0.25522     1 3d1+ -0.33610     1 3d2+  0.45934     2 1s   -0.57050
                                    2 1s    0.73422     2 2px   0.25201     2 2px  -0.41527     2 2py   0.28278     2 3d0  -0.29166
                                    2 3d2- -0.32270     2 3d1+ -0.38376     2 3d2+  0.32415
   32.1     0.00000     2.34819     1 2py   0.38861     1 3d0   0.59093     1 3d2- -0.32172     1 3d1- -0.27219     2 2py  -0.33023
                                    2 3d0   0.41899     2 3d2- -0.40870     2 3d1- -0.43405     4 1s    0.42684     5 1s    0.37432
                                    6 1s   -0.33774
   33.1     0.00000     2.57949     1 2py   0.30746     1 3d2- -0.58170     1 3d1- -0.53352     2 1s    0.30681     2 2py   0.27314
                                    2 3d2-  0.37000     2 3d1-  0.64021     3 1s   -0.53179     4 1s    0.40523     5 1s   -0.40265
                                    6 1s    0.43521
   34.1     0.00000     2.64312     1 1s    0.30044     1 2py  -0.38924     1 3d2- -0.35576     1 3d2+ -0.53678     1 3d1-  0.56445
                                    2 2py   0.26351     2 3d2- -0.50792     2 3d2+ -0.49774     2 3d1-  0.43507     4 1s   -0.42577
                                    5 1s   -0.29404
   35.1     0.00000     2.72026     1 3d0  -0.39575     1 3d2- -0.48823     1 3d1+  0.49310     1 3d1- -0.25229     2 3d0  -0.42295
                                    2 3d2- -0.48870     2 3d1+  0.50285     2 3d1- -0.27788     3 1s   -0.46577     6 1s   -0.48209
   36.1     0.00000     2.95992     1 1s   -1.72107     1 2px  -0.43852     1 2px  -0.87470     1 2pz   0.43906     1 3d2-  0.33986
                                    1 3d1+  0.70098     1 3d2+ -0.65522     2 1s    1.71725     2 2px  -0.43347     2 2px  -0.87332
                                    2 2pz   0.44098     2 3d2- -0.35361     2 3d1+ -0.69070     2 3d2+  0.63454


 HOMO      8.1    -0.377089 =     -10.2611eV
 LUMO      9.1     0.063327 =       1.7232eV
 LUMO-HOMO         0.440415 =      11.9843eV


 **********************************************************************************************************************************
 DATASETS  * FILE   NREC   LENGTH (MB)   RECORD NAMES
              1      19       31.13       500      610      700      900      950      970     1000      129      960     1100   
                                          VAR    BASINP    GEOM    SYMINP    ZMAT    AOBASIS   BASIS     P2S    ABASIS      S 
                                         1400     1410     1200     1210     1080     1600     1650     1300     1700   
                                           T        V       H0       H01     AOSYM     SMH    MOLCAS    ERIS     OPER   

              2       4        2.86       700     1000      520     2100   
                                         GEOM     BASIS   MCVARS     RHF  

 PROGRAMS   *        TOTAL    HF-SCF       INT
 CPU TIMES  *         0.42      0.12      0.19
 REAL TIME  *         0.79 SEC
 DISK USED  *        36.24 MB
 **********************************************************************************************************************************


 PROGRAM * MULTI (Direct Multiconfiguration SCF)       Authors: P.J. Knowles, H.-J. Werner (1984)


 Number of closed-shell orbitals:   7 (   7 )
 Number of active  orbitals:        2 (   2 )
 Number of external orbitals:      27 (  27 )

 State symmetry 1

 Number of electrons:     2    Spin symmetry=Singlet   Space symmetry=1
 Number of states:        3
 Number of CSFs:          3   (4 determinants, 4 intermediate states)

 Molecular orbitals read from record     2100.2  Type=RHF/CANONICAL (state 1.1)

 Wavefunction dump at record             2140.2

 Convergence thresholds  0.10E-01 (gradient)  0.10E-05 (energy)  0.10E-02 (step length)

 Weight factors for state symmetry  1:    0.33333   0.33333   0.33333

 Number of orbital rotations:      257   (    14 Core/Active    189 Core/Virtual   0 Active/Active     54 Active/Virtual)
 Total number of variables:        269

 Micro-Iterations solved by the two-step solver

 ITER. MIC  NCI  NEG     ENERGY(VAR)     ENERGY(PROJ)   ENERGY CHANGE     GRAD(0)  GRAD(ORB)   GRAD(CI)     STEP       TIME

   1   10    6    0     -77.67365063     -77.71109389   -0.03744326    0.14843804 0.00025660 0.00000000  0.24D+00      0.16
   2    6    5    0     -77.71105365     -77.71175453   -0.00070089    0.04012759 0.00011812 0.00000000  0.24D-01      0.26
   3    8    5    0     -77.71175954     -77.71175966   -0.00000012    0.00042400 0.00000009 0.00000000  0.44D-03      0.37
   4    4    3    0     -77.71175966     -77.71175966   -0.00000000    0.00000010 0.00000000 0.00000000  0.11D-06      0.44

 ** WVFN ****  CONVERGENCE REACHED, FINAL GRADIENT:  0.25D-12



 Results for state 1.1
 =====================

 !MCSCF STATE  1.1 Energy             -77.841311900768
 Nuclear energy                        32.34752985
 Kinetic energy                        77.80079957
 One electron energy                 -167.85544724
 Two electron energy                   57.66660549
 Virial ratio                           2.00052072

 !MCSCF STATE  1.1 Dipole moment       -0.11667729    -0.02318015     0.07410829
 Dipole moment /Debye                  -0.29654467    -0.05891421     0.18835214

 Results for state 2.1
 =====================

 !MCSCF STATE  2.1 Energy             -77.737222837950
 Nuclear energy                        32.34752985
 Kinetic energy                        77.87766594
 One electron energy                 -167.56501995
 Two electron energy                   57.48026727
 Virial ratio                           1.99819662

 !MCSCF STATE  2.1 Dipole moment        0.08227645    -0.04081779     0.01833094
 Dipole moment /Debye                   0.20911218    -0.10374169     0.04658954

 Results for state 3.1
 =====================

 !MCSCF STATE  3.1 Energy             -77.556744236752
 Nuclear energy                        32.34752985
 Kinetic energy                        77.94274098
 One electron energy                 -167.31511254
 Two electron energy                   57.41083846
 Virial ratio                           1.99504769

 !MCSCF STATE  3.1 Dipole moment        0.20885522    -0.03392998     0.04970013
 Dipole moment /Debye                   0.53082226    -0.08623576     0.12631685

 State-averaged charge density matrix saved on record  2140.2 (density set 1)

 !MCSCF expec         <1.1|DMX|1.1>    -0.116677292052 au =    -0.296544671933 Debye
 !MCSCF trans         <2.1|DMX|1.1>    -0.168401043532 au =    -0.428004724221 Debye
 !MCSCF expec         <2.1|DMX|2.1>     0.082276449824 au =     0.209112179343 Debye
 !MCSCF trans         <3.1|DMX|1.1>    -0.030169115380 au =    -0.076677220268 Debye
 !MCSCF trans         <3.1|DMX|2.1>    -0.199504662167 au =    -0.507057059271 Debye
 !MCSCF expec         <3.1|DMX|3.1>     0.208855223378 au =     0.530822258633 Debye

 !MCSCF expec         <1.1|DMY|1.1>    -0.023180153352 au =    -0.058914214157 Debye
 !MCSCF trans         <2.1|DMY|1.1>     0.058786601527 au =     0.149410850710 Debye
 !MCSCF expec         <2.1|DMY|2.1>    -0.040817794833 au =    -0.103741690990 Debye
 !MCSCF trans         <3.1|DMY|1.1>     0.004708070306 au =     0.011965937327 Debye
 !MCSCF trans         <3.1|DMY|2.1>     0.066064482592 au =     0.167908167666 Debye
 !MCSCF expec         <3.1|DMY|3.1>    -0.033929981499 au =    -0.086235762379 Debye

 !MCSCF expec         <1.1|DMZ|1.1>     0.074108285739 au =     0.188352136868 Debye
 !MCSCF trans         <2.1|DMZ|1.1>     0.209125388691 au =     0.531508905390 Debye
 !MCSCF expec         <2.1|DMZ|2.1>     0.018330935155 au =     0.046589538172 Debye
 !MCSCF trans         <3.1|DMZ|1.1>     0.015965376398 au =     0.040577281344 Debye
 !MCSCF trans         <3.1|DMZ|2.1>     0.234534157525 au =     0.596087324082 Debye
 !MCSCF expec         <3.1|DMZ|3.1>     0.049700126364 au =     0.126316847165 Debye


 NATURAL ORBITALS (state averaged)
 =================================

  Orbital  Occupation    Energy     Coefficients
    1.1     2.00000   -11.25810     2 1s    0.99492
    2.1     2.00000   -11.25096     1 1s    0.99489
    3.1     2.00000    -1.04911     1 1s    0.27854     2 1s    0.27776
    4.1     2.00000    -0.78474     1 1s   -0.31307     2 1s    0.32256
    5.1     2.00000    -0.62415     1 2py   0.31933     2 2py   0.28348
    6.1     2.00000    -0.55996     1 2px   0.26443     2 2px  -0.25679
    7.1     2.00000    -0.42225     1 2pz   0.32987     1 2pz   0.28102     2 2pz   0.31426     2 2pz   0.27222
    8.1     1.00000    -0.22740     1 2px  -0.31586     2 2px   0.29610     4 1s    0.28261     5 1s    0.30118
    9.1     1.00000    -0.08615     1 1s    0.28188     1 2pz   0.40894     1 2pz   0.43539     2 1s    0.25167     2 2pz  -0.39866
                                    2 2pz  -0.42700
   10.1    -0.00000     0.21903     1 1s   -1.07064     1 2px   0.44425     1 2py   0.36559     1 2pz   0.31737     2 1s   -1.11922
                                    2 2px  -0.50492     2 2py  -0.39547     2 2pz  -0.42307     3 1s    0.50790     4 1s    1.03230
                                    5 1s    1.14966     6 1s    0.56303
   11.1    -0.00000     0.28091     1 1s    1.56776     1 2pz  -0.43593     2 1s   -1.68636     2 2py   0.41610     2 2pz  -0.49686
                                    3 1s   -1.28908     6 1s    1.56736
   12.1    -0.00000     0.31182     1 1s   -1.47039     1 2px   0.45772     1 2py  -0.25662     1 2pz   0.58609     2 2py   0.28647
                                    2 2py   1.19976     3 1s    1.29558     4 1s    0.82187     5 1s   -1.26530     6 1s    1.16677
   13.1    -0.00000     0.32214     1 1s   -0.32232     1 2py   0.31526     1 2py   1.37917     2 1s    1.17798     2 2px   0.32233
                                    2 2pz   0.49762     3 1s   -1.19802     4 1s    1.67220     5 1s   -1.01162     6 1s   -0.76685
   14.1    -0.00000     0.42963     1 1s    1.91313     1 2px   1.79596     1 2py  -0.49387     1 2pz  -0.73803     2 1s   -1.88876
                                    2 2px   1.78925     2 2py  -0.56495     2 2pz  -0.73360     3 1s    0.57594     6 1s   -0.67184
   15.1    -0.00000     0.69944     1 2px  -0.54580     1 2px   0.87185     2 2px   0.52440     2 2px  -0.94112     4 1s   -0.45927
                                    5 1s    0.25146     5 1s   -0.50794     6 1s    0.26424
   16.1    -0.00000     0.75570     1 1s   -0.45336     1 2py  -0.39437     1 2px  -0.65565     1 2py   0.90595     2 1s    0.37479
                                    2 2py  -0.33940     2 2px  -0.67631     2 2py   0.70619     3 1s   -0.47296     4 1s    0.27113
                                    6 1s    0.49139
   17.1    -0.00000     0.78851     1 1s   -0.34149     1 2py   0.49960     1 2py  -1.08976     2 2py  -0.55794     2 2pz  -0.48199
                                    2 2py   1.20647     2 2pz   0.55147     5 1s   -0.33790
   18.1    -0.00000     0.80116     1 1s   -0.30834     1 2pz  -0.78141     1 2py   0.51592     1 2pz   0.83611     2 1s    0.35761
                                    2 2pz  -0.59780     2 2py  -0.29429     2 2pz   0.61180
   19.1    -0.00000     0.86277     1 1s    0.31016     1 2px   0.27221     1 2pz   0.65352     1 2px  -0.48611     1 2py   0.51108
                                    1 2pz  -1.01825     2 1s    0.31165     2 2pz  -0.66846     2 2px   0.50102     2 2py  -0.58631
                                    2 2pz   1.00846     3 1s   -0.25649     6 1s   -0.30032
   20.1    -0.00000     0.97733     1 2px   0.67947     1 2py   0.36523     1 2px  -1.04041     1 2py  -0.84445     2 2px   0.74090
                                    2 2py   0.39398     2 2px  -1.06437     2 2py  -0.73423     4 1s   -1.01414     5 1s    0.99415
   21.1    -0.00000     1.08420     1 1s   -0.47784     1 1s    0.93642     1 2px   0.33899     1 2px  -0.36082     2 1s   -0.68926
                                    2 1s    1.17925     2 2py  -0.57788     2 2px   0.28508     2 2py   0.64388     4 1s    0.29004
                                    4 1s   -0.60720     5 1s    0.90834     5 1s   -1.50188
   22.1    -0.00000     1.12961     1 1s   -0.39758     1 1s    0.75982     1 2py   0.72721     1 2py  -0.98906     2 1s    0.26003
                                    2 2px  -0.40249     2 2py   0.42935     2 2px   0.51067     2 2py  -0.67456     3 1s   -0.26746
                                    3 1s    0.71820     4 1s    0.78357     4 1s   -1.36729     5 1s   -0.27077     5 1s    0.47311
                                    6 1s    0.31663     6 1s   -0.88322
   23.1    -0.00000     1.15954     1 1s   -0.29829     1 2px   0.37528     1 2px  -1.04129     1 2py   0.28856     2 1s    0.33467
                                    2 2px   0.32698     2 2px  -1.03426     2 2py   0.53495     3 1s    0.47624     3 1s   -0.93293
                                    4 1s    0.64206     4 1s   -0.70555     5 1s   -0.38363     5 1s    0.38666     6 1s   -0.63693
                                    6 1s    1.22840
   24.1    -0.00000     1.19532     1 1s   -0.40721     1 1s    0.34392     1 2px   0.33166     1 2py  -0.37000     1 2px  -0.48552
                                    1 2py   0.42495     2 1s   -0.59934     2 1s    1.17813     2 2py   0.26850     3 1s    0.87843
                                    3 1s   -1.14356     6 1s    0.69981     6 1s   -0.85594
   25.1    -0.00000     1.24851     1 1s   -1.70114     1 1s    3.65866     1 2py   0.42835     1 2pz  -1.25661     2 1s   -0.72908
                                    2 1s    0.68964     2 2px   0.94626     2 2py  -0.63869     2 2pz   0.63284     3 1s   -0.31639
                                    3 1s   -1.17312     4 1s   -0.38357     4 1s   -0.50138     5 1s   -0.35332     5 1s   -0.29808
                                    6 1s   -0.34453     6 1s   -0.75668
   26.1    -0.00000     1.28089     1 1s    1.21394     1 1s   -4.29042     1 2px  -1.33412     1 2py   0.91194     1 2pz   0.85233
                                    2 1s   -1.84818     2 1s    5.43520     2 2px  -1.02952     2 2py   0.48489     2 2pz   1.46035
                                    4 1s    0.52357     5 1s   -0.36758     5 1s   -0.68087     6 1s   -0.69274
   27.1    -0.00000     1.69199     1 1s   -0.51566     1 3d0  -0.33204     1 3d2-  0.29634     1 3d2+  0.33629     2 1s    0.68649
                                    2 3d0   0.34990     2 3d2- -0.30373     2 3d2+ -0.32422
   28.1    -0.00000     1.91397     1 2px   0.27746     1 3d1+  0.44247     1 3d2+  0.33313     1 3d1-  0.46144     2 1s    0.37942
                                    2 1s   -1.00008     2 2pz  -0.43301     2 3d0   0.43525     2 3d2+  0.30257     3 1s    0.26393
                                    6 1s    0.35681     6 1s    0.26395
   29.1    -0.00000     1.93978     1 1s    0.37118     1 1s   -1.45201     1 2px  -0.25862     1 2pz   0.40133     1 3d2-  0.25491
                                    1 3d1- -0.25454     2 1s    1.11462     2 2px  -0.32808     2 2pz   0.25831     2 3d2- -0.30177
                                    2 3d1+  0.50822     2 3d2+  0.33334     2 3d1-  0.43553     3 1s    0.34399     6 1s   -0.25122
   30.1    -0.00000     2.18026     1 1s    0.46163     1 1s   -1.71493     1 2px  -0.37869     1 2py   0.25047     1 2pz   0.49622
                                    1 3d0   0.55376     1 3d1+  0.30112     1 3d2+  0.29750     2 1s    1.41879     2 2px  -0.33853
                                    2 2py   0.28476     2 2pz   0.33896     2 3d0  -0.52164     2 3d2+ -0.38453     3 1s    0.38959
                                    4 1s    0.27117     5 1s   -0.35381     6 1s   -0.26955
   31.1    -0.00000     2.25061     1 1s   -0.38766     1 2px  -0.26245     1 3d1+ -0.33293     1 3d2+  0.46445     2 1s   -0.56955
                                    2 1s    0.76683     2 2px   0.25475     2 2px  -0.41892     2 2py   0.27206     2 3d0  -0.29734
                                    2 3d2- -0.33239     2 3d1+ -0.39399     2 3d2+  0.31782
   32.1    -0.00000     2.34256     1 2py   0.40316     1 3d0   0.59947     1 3d2- -0.30995     1 3d1- -0.27567     2 2py  -0.34327
                                    2 3d0   0.40753     2 3d2- -0.41029     2 3d1- -0.45199     4 1s    0.41541     5 1s    0.36394
                                    6 1s   -0.35987
   33.1    -0.00000     2.57443     1 2py   0.30168     1 3d2- -0.59094     1 3d1- -0.52378     2 1s    0.29404     2 2py   0.27594
                                    2 3d2-  0.36180     2 3d1-  0.64680     3 1s   -0.53488     4 1s    0.38887     5 1s   -0.39754
                                    6 1s    0.43511
   34.1    -0.00000     2.63537     1 1s    0.31227     1 2py  -0.40236     1 3d2- -0.35332     1 3d2+ -0.53308     1 3d1-  0.57909
                                    2 2py   0.26130     2 3d2- -0.52263     2 3d2+ -0.48745     2 3d1-  0.41904     4 1s   -0.42489
                                    5 1s   -0.27586
   35.1    -0.00000     2.72498     1 3d0  -0.40630     1 3d2- -0.48568     1 3d1+  0.49543     1 3d1- -0.26055     2 3d0  -0.42681
                                    2 3d2- -0.46649     2 3d1+  0.50953     2 3d1- -0.27461     3 1s   -0.47223     6 1s   -0.47162
   36.1    -0.00000     2.95585     1 1s   -1.75005     1 2px  -0.43082     1 2px  -0.88775     1 2pz   0.44718     1 3d2-  0.33592
                                    1 3d1+  0.70965     1 3d2+ -0.65348     2 1s    1.74484     2 2px  -0.42882     2 2px  -0.88294
                                    2 2py   0.25434     2 2pz   0.44762     2 3d2- -0.35345     2 3d1+ -0.68747     2 3d2+  0.63082


 Natural orbital dump (state averaged) at molpro section  2140.2    (Orbital set 2)



 **********************************************************************************************************************************
 DATASETS  * FILE   NREC   LENGTH (MB)   RECORD NAMES
              1      20       31.86       500      610      700      900      950      970     1000      129      960     1100   
                                          VAR    BASINP    GEOM    SYMINP    ZMAT    AOBASIS   BASIS     P2S    ABASIS      S 
                                         1400     1410     1200     1210     1080     1600     1650     1300     1700     1380   
                                           T        V       H0       H01     AOSYM     SMH    MOLCAS    ERIS     OPER     JKOP   

              2       5        5.42       700     1000      520     2100     2140   
                                         GEOM     BASIS   MCVARS     RHF     MCSCF   

 PROGRAMS   *        TOTAL     MULTI    HF-SCF       INT
 CPU TIMES  *         0.92      0.50      0.12      0.19
 REAL TIME  *         1.34 SEC
 DISK USED  *        39.04 MB
 **********************************************************************************************************************************
 Molecular orbitals read from record     2140.2  Type=MCSCF/NATURAL (state averaged)
 Occupation numbers read from record     2140.2  Type=MCSCF/NATURAL (state averaged)
 Orbital energies read from record       2140.2  Type=MCSCF/NATURAL (state averaged)
 Redundancy group numbers read from rec  2140.2  Type=MCSCF/NATURAL (state averaged)

 MULTI/6-31G* energy=    -77.556744236752

           MULTI          HF-SCF
    -77.55674424    -77.84742931
 **********************************************************************************************************************************
 Molpro calculation terminated
