
 Primary working directories    : /scratch.local/johan406.molpro_temp/molpro.mbewXh1CDb
 Secondary working directories  : /scratch.local/johan406.molpro_temp/molpro.mbewXh1CDb
 Wavefunction directory         : /home/goodpast/johan406/wfu/
 Main file repository           : /scratch.local/johan406.molpro_temp/molpro.mbewXh1CDb/

 id        : roweumn

 Nodes     nprocs
 acn09        1

 Using customized tuning parameters: mindgm=1; mindgv=20; mindgc=4; mindgr=1; noblas=0; minvec=7
 default implementation of scratch files=df  


 Variables initialized (934), CPU time= 0.01 sec
                                                                                 !leave this line blank
 
 gprint, orbitals=30
 memory, 125., m
 symmetry, nosym
 nelect=16
 basis=6-31g*
 
 geometry={
 C -0.629 0.1403 0.2884
 C 0.6328 -0.185 -0.3693
 H -1.2364 0.8939 -0.1908
 H -0.9596 -0.8918 0.0341
 H 0.9737 0.7907 0.2486
 H 1.3067 -0.9489 0.0587
 }
 
 hf
 {multi,
 closed 7
 occ 9
 wf,spin=0;STATE,3
 }
 
 Commands  initialized (763), CPU time= 0.01 sec, 617 directives.
 Default parameters read. Elapsed time= 0.09 sec

 Checking input...
 Passed
1


                                         ***  PROGRAM SYSTEM MOLPRO  ***
                                       Copyright, TTI GmbH Stuttgart, 2015
                                    Version 2019.2 linked Oct 25 2019 22:50:27


 **********************************************************************************************************************************
 LABEL *                                                                                 
  64 bit serial version                                                                  DATE: 07-Feb-23          TIME: 16:22:31  
 **********************************************************************************************************************************

 SHA1:             8dbd9ae1082e4ce945b0f27595c9eb2d4aa09004
 **********************************************************************************************************************************


 Variable memory set to  125000000 words,  buffer space 

 SETTING NELECT         =        16.00000000                                  
 SETTING BASIS          =    6-31G*
 ZSYMEL=NOSYM


Geometry recognized as XYZ



 Recomputing integrals since basis changed


 Using spherical harmonics

 Library entry C      S 6-31G                selected for orbital group  1
 Library entry C      P 6-31G                selected for orbital group  1
 Library entry C      D 6-31G*               selected for orbital group  1
 Library entry H      S 6-31G                selected for orbital group  2


 PROGRAM * SEWARD (Integral evaluation for generally contracted gaussian basis sets)     Author: Roland Lindh, 1990

 Geometry written to block  1 of record 700


 Point group  C1  



 ATOMIC COORDINATES

 NR  ATOM    CHARGE       X              Y              Z

   1  C       6.00   -1.188637732    0.265128575    0.544997014
   2  C       6.00    1.195818692   -0.349599333   -0.697875858
   3  H       1.00   -2.336457380    1.689226183   -0.360559745
   4  H       1.00   -1.813381189   -1.685257758    0.064439661
   5  H       1.00    1.840026327    1.494206447    0.469785915
   6  H       1.00    2.469305127   -1.793161120    0.110926924

 Bond lengths in Bohr (Angstrom)

 1-2  2.758306693  1-3  2.040974518  1-4  2.103627012  2-5  2.275534497  2-6  2.088013475
     ( 1.459633043)     ( 1.080037203)     ( 1.113191475)     ( 1.204160998)     ( 1.104929147)

 Bond angles

  1-2-5   80.38273706   1-2-6  120.44949433   2-1-3  116.21531770   2-1-4   86.97153839

  3-1-4  112.24375924   5-2-6  100.88025110

 NUCLEAR CHARGE:                   16
 NUMBER OF PRIMITIVE AOS:          72
 NUMBER OF SYMMETRY AOS:           70
 NUMBER OF CONTRACTIONS:           36   (   36A   )
 NUMBER OF CORE ORBITALS:           2   (    2A   )
 NUMBER OF VALENCE ORBITALS:       12   (   12A   )


 NUCLEAR REPULSION ENERGY   32.28186402

 Eigenvalues of metric

         1 0.946E-02 0.277E-01 0.599E-01 0.628E-01 0.851E-01 0.219E+00 0.238E+00 0.272E+00


 Contracted 2-electron integrals neglected if value below      1.0D-11
 AO integral compression algorithm  1   Integral accuracy      1.0D-11

     1.573 MB (compressed) written to integral file ( 59.1%)


 NUMBER OF SORTED TWO-ELECTRON INTEGRALS:     222111.     BUFFER LENGTH:  32768
 NUMBER OF SEGMENTS:   1  SEGMENT LENGTH:     222111      RECORD LENGTH: 524288

 Memory used in sort:       0.78 MW

 SORT1 READ      284735. AND WROTE      212531. INTEGRALS IN      1 RECORDS. CPU TIME:     0.00 SEC, REAL TIME:     0.01 SEC
 SORT2 READ      212531. AND WROTE      222111. INTEGRALS IN      6 RECORDS. CPU TIME:     0.03 SEC, REAL TIME:     0.02 SEC

 FILE SIZES:   FILE 1:    31.7 MBYTE,  FILE 4:     4.2 MBYTE,   TOTAL:     35.9 MBYTE

 OPERATOR DM      FOR CENTER  0  COORDINATES:    0.000000    0.000000    0.000000


 **********************************************************************************************************************************
 DATASETS  * FILE   NREC   LENGTH (MB)   RECORD NAMES
              1      19       31.13       500      610      700      900      950      970     1000      129      960     1100   
                                          VAR    BASINP    GEOM    SYMINP    ZMAT    AOBASIS   BASIS     P2S    ABASIS      S 
                                         1400     1410     1200     1210     1080     1600     1650     1300     1700   
                                           T        V       H0       H01     AOSYM     SMH    MOLCAS    ERIS     OPER   

 PROGRAMS   *        TOTAL       INT
 CPU TIMES  *         0.30      0.20
 REAL TIME  *         0.47 SEC
 DISK USED  *        36.24 MB
 **********************************************************************************************************************************


 PROGRAM * RHF-SCF (CLOSED SHELL)       Authors: W. Meyer, H.-J. Werner


 NUMBER OF ELECTRONS:       8+    8-    SPACE SYMMETRY=1    SPIN SYMMETRY: Singlet 
 CONVERGENCE THRESHOLDS:    1.00E-05 (Density)    1.00E-07 (Energy)
 MAX. NUMBER OF ITERATIONS:       60
 INTERPOLATION TYPE:            DIIS
 INTERPOLATION STEPS:              2 (START)      1 (STEP)
 LEVEL SHIFTS:                  0.00 (CLOSED)  0.00 (OPEN) 



 Orbital guess generated from atomic densities. Full valence occupancy:    8

 Molecular orbital dump at record        2100.2

 Initial occupancy:   8

 ITERATION    DDIFF          GRAD             ENERGY        2-EL.EN.            DIPOLE MOMENTS         DIIS   ORB.
    1      0.000D+00      0.000D+00       -77.82258216    115.784466   -0.09923   -0.00858    0.21780    0    start
    2      0.000D+00      0.711D-02       -77.84080317    114.744697   -0.09320   -0.08077    0.07114    1    diag
    3      0.794D-02      0.246D-02       -77.84291231    115.156573   -0.16137   -0.04696    0.17072    2    diag
    4      0.303D-02      0.113D-02       -77.84344125    115.062456   -0.13037   -0.07631    0.10744    3    diag
    5      0.175D-02      0.480D-03       -77.84355789    115.035990   -0.14984   -0.06617    0.13095    4    diag
    6      0.627D-03      0.215D-03       -77.84362734    115.044733   -0.14957   -0.06789    0.12711    5    diag
    7      0.686D-03      0.923D-04       -77.84364973    115.045295   -0.14916   -0.06748    0.12708    6    diag
    8      0.420D-03      0.343D-04       -77.84365281    115.046502   -0.14809   -0.06743    0.12637    7    diag
    9      0.164D-03      0.141D-04       -77.84365321    115.046870   -0.14732   -0.06736    0.12606    8    diag
   10      0.629D-04      0.512D-05       -77.84365324    115.046920   -0.14702   -0.06733    0.12587    9    orth
   11      0.192D-04      0.131D-05       -77.84365324    115.046923   -0.14694   -0.06731    0.12583    9    diag
   12      0.391D-05      0.363D-06       -77.84365324    115.046926   -0.14694   -0.06731    0.12583    0    orth

 Final occupancy:   8

 !RHF STATE  1.1 Energy               -77.843653244156
 Nuclear energy                        32.28186402
 One-electron energy                 -167.64898021
 Two-electron energy                   57.52346295
 Virial quotient                       -1.00154168
 !RHF STATE  1.1 Dipole moment         -0.14693566    -0.06730701     0.12583148
 Dipole moment /Debye                  -0.37344873    -0.17106614     0.31981078

 ELECTRON ORBITALS
 =================

  Orbital  Occupation    Energy     Coefficients
    1.1     2.00000   -11.26428     1 1s    0.99405
    2.1     2.00000   -11.25786     2 1s    0.99410
    3.1     2.00000    -1.03635     1 1s    0.29559     1 1s    0.25741     2 1s    0.27006
    4.1     2.00000    -0.78236     1 1s   -0.28084     2 1s    0.30723
    5.1     2.00000    -0.62322     1 2py   0.36394
    6.1     2.00000    -0.56068     1 2px   0.31214     2 2px  -0.29153
    7.1     2.00000    -0.41323     1 2pz   0.29087
    8.1     2.00000    -0.36305     2 2pz  -0.25072
    9.1     0.00000     0.06343     1 1s    0.42199     1 2pz   0.33665     1 2pz   0.47593     2 1s    0.38184     2 2pz  -0.31923
                                    2 2pz  -0.45425
   10.1     0.00000     0.22911     1 1s   -1.13242     1 2px   0.41846     1 2py   0.35565     1 2pz   0.34725     2 1s   -0.96198
                                    2 2px  -0.51613     2 2py  -0.39734     2 2pz  -0.48742     3 1s    0.57267     4 1s    1.01976
                                    5 1s    1.11747     6 1s    0.49676
   11.1     0.00000     0.28188     1 1s    1.41784     1 2py   0.33310     1 2pz  -0.42461     2 1s   -1.62072     2 2py   0.42656
                                    2 2pz  -0.47283     3 1s   -1.33496     6 1s    1.54037
   12.1     0.00000     0.30697     1 1s   -1.27004     1 2px   0.57498     1 2py  -0.55522     1 2pz   0.57735     2 2py   0.25375
                                    2 2py   1.06852     3 1s    1.57044     4 1s    0.42600     5 1s   -0.96728     6 1s    1.17976
   13.1     0.00000     0.33069     1 1s   -0.71905     1 2py   0.28321     1 2py   1.30020     2 1s    1.16054     2 2px   0.35833
                                    2 2pz   0.51573     3 1s   -0.77318     4 1s    1.86921     5 1s   -1.12206     6 1s   -0.74042
   14.1     0.00000     0.42388     1 1s    2.07302     1 2px   1.78355     1 2py  -0.56625     1 2pz  -0.81086     2 1s   -2.00129
                                    2 2px   1.77530     2 2py  -0.69018     2 2pz  -0.77768     3 1s    0.50734     6 1s   -0.71576
   15.1     0.00000     0.70236     1 1s   -0.27648     1 2px  -0.58999     1 2px   0.86181     2 2px   0.50365     2 2px  -0.99237
                                    4 1s   -0.35523     5 1s   -0.49750     6 1s    0.28720
   16.1     0.00000     0.75874     1 1s   -0.30066     1 2py  -0.50230     1 2px  -0.59084     1 2py   1.15909     2 1s    0.27393
                                    2 2px  -0.59966     2 2py   0.39808     3 1s   -0.48544     4 1s    0.30528     6 1s    0.46165
   17.1     0.00000     0.79449     1 1s    0.38883     1 2py  -0.30385     1 2pz   0.31448     1 2py   0.71113     1 2pz  -0.36053
                                    2 2py   0.53452     2 2pz   0.65313     2 2py  -1.07685     2 2pz  -0.62530     5 1s    0.36623
   18.1     0.00000     0.80103     1 2py   0.39462     1 2pz   0.76941     1 2py  -0.81202     1 2pz  -0.74379     2 2py  -0.40314
                                    2 2pz   0.31556     2 2py   0.76576     2 2pz  -0.26539     4 1s   -0.25556
   19.1     0.00000     0.86486     1 1s    0.33617     1 2px   0.28500     1 2pz   0.61432     1 2px  -0.46965     1 2py   0.47838
                                    1 2pz  -0.91213     2 1s    0.35730     2 2py   0.25849     2 2pz  -0.73270     2 2px   0.45954
                                    2 2py  -0.65161     2 2pz   0.98585     6 1s   -0.27816
   20.1     0.00000     0.95997     1 2px   0.64177     1 2py   0.35702     1 2px  -1.03372     1 2py  -0.87693     2 1s   -0.25683
                                    2 1s    0.30303     2 2px   0.76434     2 2py   0.38579     2 2px  -1.08557     2 2py  -0.62796
                                    4 1s   -1.05962     5 1s    0.91284
   21.1     0.00000     1.09463     1 1s   -0.50454     1 1s    0.98453     1 2px   0.35126     1 2px  -0.41042     2 1s   -0.64449
                                    2 1s    1.11071     2 2py  -0.57753     2 2py   0.66555     2 2pz   0.31249     3 1s   -0.33345
                                    4 1s   -0.50526     5 1s    0.91414     5 1s   -1.53509     6 1s    0.27685
   22.1     0.00000     1.14066     1 1s    0.85765     1 2px  -0.28385     1 2py   0.62240     1 2px   0.68039     1 2py  -0.99576
                                    2 1s   -0.39425     2 1s    0.28211     2 2px  -0.51268     2 2py   0.40995     2 2px   1.03254
                                    2 2py  -0.76561     3 1s   -0.52404     3 1s    1.09912     4 1s    0.33909     4 1s   -0.84251
                                    6 1s    0.57352     6 1s   -1.35968
   23.1     0.00000     1.17911     1 1s   -0.44373     1 2px   0.35629     1 2py   0.25823     1 2px  -0.89887     2 1s    0.64920
                                    2 2px  -0.62982     3 1s    0.58897     3 1s   -0.70378     4 1s    0.94957     4 1s   -1.18159
                                    5 1s   -0.35874     5 1s    0.51895
   24.1     0.00000     1.19141     1 2py  -0.48263     1 2py   0.50590     2 1s   -0.70642     2 1s    1.19609     2 2py   0.25821
                                    3 1s    0.68749     3 1s   -0.92271     4 1s   -0.34148     4 1s    0.53734     6 1s    0.77497
                                    6 1s   -1.08581
   25.1     0.00000     1.24451     1 1s   -2.03434     1 1s    4.89068     1 2px   0.39692     1 2pz  -1.43361     2 1s   -1.27656
                                    2 2px   1.27077     2 2py  -0.65192     3 1s   -1.21428     4 1s   -0.30629     4 1s   -0.63226
                                    5 1s   -0.29424     6 1s   -0.26733     6 1s   -0.39385
   26.1     0.00000     1.29531     1 1s    0.54628     1 1s   -2.72271     1 2px  -1.25047     1 2py   1.02996     1 2pz   0.35405
                                    2 1s   -1.93100     2 1s    5.16915     2 2px  -0.60171     2 2pz   1.60500     4 1s    0.31839
                                    5 1s   -0.51084     5 1s   -0.67338     6 1s   -0.37041     6 1s   -0.86055
   27.1     0.00000     1.70121     1 1s   -0.36152     1 3d0  -0.32857     1 3d2-  0.28947     1 3d2+  0.34881     2 1s    0.70768
                                    2 2pz   0.25180     2 3d0   0.35025     2 3d2- -0.29401     2 3d2+ -0.32063
   28.1     0.00000     1.90489     1 2px   0.31597     1 3d1+  0.46568     1 3d2+  0.26126     1 3d1-  0.53548     2 1s    0.40770
                                    2 1s   -1.16948     2 2pz  -0.47163     2 3d0   0.42477     6 1s    0.42594     6 1s    0.25057
   29.1     0.00000     1.95594     1 1s    0.39129     1 1s   -1.42316     1 2py   0.25309     1 2pz   0.38392     2 1s    0.93846
                                    2 2px  -0.30279     2 3d0   0.32638     2 3d2- -0.26120     2 3d1+  0.53693     2 3d2+  0.43521
                                    2 3d1-  0.38852     3 1s    0.28412     4 1s    0.25819
   30.1     0.00000     2.17556     1 1s    0.51761     1 1s   -1.68888     1 2px  -0.36246     1 2pz   0.51396     1 3d0   0.49916
                                    1 3d2-  0.31286     1 3d1+  0.40825     2 1s    1.17935     2 2px  -0.29857     2 2py   0.26676
                                    2 3d0  -0.43762     2 3d2+ -0.37245     3 1s    0.38657     5 1s   -0.34661
   31.1     0.00000     2.26668     1 1s   -0.31834     1 1s   -0.47419     1 3d1+ -0.25533     1 3d2+  0.50321     1 3d1-  0.29765
                                    2 1s   -0.61288     2 1s    1.00115     2 2px  -0.52021     2 2py   0.36963     2 2pz   0.28050
                                    2 3d0  -0.38819     2 3d2- -0.28220     2 3d1+ -0.32370     2 3d2+  0.29720     2 3d1-  0.28445
                                    3 1s    0.31311
   32.1     0.00000     2.34497     1 1s   -0.47105     1 2px  -0.25966     1 2py   0.41371     1 3d0   0.66035     1 3d2- -0.26149
                                    2 1s    0.44877     2 2py  -0.26763     2 3d0   0.27957     2 3d2- -0.45008     2 3d1+ -0.25242
                                    2 3d1- -0.47631     4 1s    0.47513     5 1s    0.33301     6 1s   -0.39446
   33.1     0.00000     2.56826     1 2py   0.32841     1 3d2- -0.66005     1 3d1- -0.47231     2 1s    0.28667     2 3d2-  0.26631
                                    2 3d1-  0.63966     3 1s   -0.56701     4 1s    0.40607     5 1s   -0.36384     6 1s    0.37266
   34.1     0.00000     2.63787     1 1s    0.35898     1 2py  -0.45797     1 3d2- -0.25968     1 3d2+ -0.55677     1 3d1-  0.59090
                                    2 3d2- -0.53074     2 3d2+ -0.47827     2 3d1-  0.38844     4 1s   -0.47032
   35.1     0.00000     2.71640     1 3d0  -0.39549     1 3d2- -0.49550     1 3d1+  0.48386     2 3d0  -0.43941     2 3d2- -0.50932
                                    2 3d1+  0.51618     2 3d1- -0.25955     3 1s   -0.44618     6 1s   -0.49116
   36.1     0.00000     2.95984     1 1s   -1.72377     1 2px  -0.44180     1 2px  -0.87543     1 2pz   0.43938     1 3d2-  0.33095
                                    1 3d1+  0.70471     1 3d2+ -0.66497     2 1s    1.71494     2 2px  -0.43135     2 2px  -0.87336
                                    2 2py   0.25704     2 2pz   0.44269     2 3d2- -0.36019     2 3d1+ -0.68377     2 3d2+  0.62578


 HOMO      8.1    -0.363048 =      -9.8790eV
 LUMO      9.1     0.063429 =       1.7260eV
 LUMO-HOMO         0.426476 =      11.6050eV


 **********************************************************************************************************************************
 DATASETS  * FILE   NREC   LENGTH (MB)   RECORD NAMES
              1      19       31.13       500      610      700      900      950      970     1000      129      960     1100   
                                          VAR    BASINP    GEOM    SYMINP    ZMAT    AOBASIS   BASIS     P2S    ABASIS      S 
                                         1400     1410     1200     1210     1080     1600     1650     1300     1700   
                                           T        V       H0       H01     AOSYM     SMH    MOLCAS    ERIS     OPER   

              2       4        2.86       700     1000      520     2100   
                                         GEOM     BASIS   MCVARS     RHF  

 PROGRAMS   *        TOTAL    HF-SCF       INT
 CPU TIMES  *         0.41      0.10      0.20
 REAL TIME  *         1.31 SEC
 DISK USED  *        36.24 MB
 **********************************************************************************************************************************


 PROGRAM * MULTI (Direct Multiconfiguration SCF)       Authors: P.J. Knowles, H.-J. Werner (1984)


 Number of closed-shell orbitals:   7 (   7 )
 Number of active  orbitals:        2 (   2 )
 Number of external orbitals:      27 (  27 )

 State symmetry 1

 Number of electrons:     2    Spin symmetry=Singlet   Space symmetry=1
 Number of states:        3
 Number of CSFs:          3   (4 determinants, 4 intermediate states)

 Molecular orbitals read from record     2100.2  Type=RHF/CANONICAL (state 1.1)

 Wavefunction dump at record             2140.2

 Convergence thresholds  0.10E-01 (gradient)  0.10E-05 (energy)  0.10E-02 (step length)

 Weight factors for state symmetry  1:    0.33333   0.33333   0.33333

 Number of orbital rotations:      257   (    14 Core/Active    189 Core/Virtual   0 Active/Active     54 Active/Virtual)
 Total number of variables:        269

 Micro-Iterations solved by the two-step solver

 ITER. MIC  NCI  NEG     ENERGY(VAR)     ENERGY(PROJ)   ENERGY CHANGE     GRAD(0)  GRAD(ORB)   GRAD(CI)     STEP       TIME

   1   10    6    0     -77.67952571     -77.71359702   -0.03407132    0.15144067 0.00047094 0.00000000  0.23D+00      0.18
   2    6    5    0     -77.71286933     -77.71328444   -0.00041511    0.03208632 0.00004578 0.00000000  0.16D-01      0.27
   3    7    5    0     -77.71328636     -77.71328639   -0.00000003    0.00022713 0.00000001 0.00000000  0.18D-03      0.37
   4    4    3    0     -77.71328639     -77.71328639    0.00000000    0.00000002 0.00000000 0.00000000  0.23D-07      0.44

 ** WVFN ****  CONVERGENCE REACHED, FINAL GRADIENT:  0.95D-13



 Results for state 1.1
 =====================

 !MCSCF STATE  1.1 Energy             -77.838346137568
 Nuclear energy                        32.28186402
 Kinetic energy                        77.77263652
 One electron energy                 -167.70281679
 Two electron energy                   57.58260663
 Virial ratio                           2.00084489

 !MCSCF STATE  1.1 Dipole moment       -0.23428680    -0.04710538     0.15781186
 Dipole moment /Debye                  -0.59545864    -0.11972210     0.40109147

 Results for state 2.1
 =====================

 !MCSCF STATE  2.1 Energy             -77.733051888612
 Nuclear energy                        32.28186402
 Kinetic energy                        77.85221900
 One electron energy                 -167.45632186
 Two electron energy                   57.44140595
 Virial ratio                           1.99846932

 !MCSCF STATE  2.1 Dipole moment        0.13750990    -0.07972124     0.06290731
 Dipole moment /Debye                   0.34949241    -0.20261792     0.15988395

 Results for state 3.1
 =====================

 !MCSCF STATE  3.1 Energy             -77.568461136493
 Nuclear energy                        32.28186402
 Kinetic energy                        77.92682692
 One electron energy                 -167.23029433
 Two electron energy                   57.37996917
 Virial ratio                           1.99540125

 !MCSCF STATE  3.1 Dipole moment        0.43544640    -0.08592435     0.05939003
 Dipole moment /Debye                   1.10672186    -0.21838362     0.15094452

 State-averaged charge density matrix saved on record  2140.2 (density set 1)

 !MCSCF expec         <1.1|DMX|1.1>    -0.234286799506 au =    -0.595458643889 Debye
 !MCSCF trans         <2.1|DMX|1.1>    -0.308318512330 au =    -0.783616164567 Debye
 !MCSCF expec         <2.1|DMX|2.1>     0.137509900518 au =     0.349492412958 Debye
 !MCSCF trans         <3.1|DMX|1.1>    -0.064981030022 au =    -0.165154486284 Debye
 !MCSCF trans         <3.1|DMX|2.1>    -0.373761921188 au =    -0.949945823652 Debye
 !MCSCF expec         <3.1|DMX|3.1>     0.435446400044 au =     1.106721861425 Debye

 !MCSCF expec         <1.1|DMY|1.1>    -0.047105383209 au =    -0.119722099858 Debye
 !MCSCF trans         <2.1|DMY|1.1>     0.112216126789 au =     0.285206263524 Debye
 !MCSCF expec         <2.1|DMY|2.1>    -0.079721242433 au =    -0.202617915343 Debye
 !MCSCF trans         <3.1|DMY|1.1>     0.007500124932 au =     0.019062167525 Debye
 !MCSCF trans         <3.1|DMY|2.1>     0.131982436222 au =     0.335443920253 Debye
 !MCSCF expec         <3.1|DMY|3.1>    -0.085924352466 au =    -0.218383615742 Debye

 !MCSCF expec         <1.1|DMZ|1.1>     0.157811862462 au =     0.401091473396 Debye
 !MCSCF trans         <2.1|DMZ|1.1>     0.388614808010 au =     0.987695623741 Debye
 !MCSCF expec         <2.1|DMZ|2.1>     0.062907305895 au =     0.159883950515 Debye
 !MCSCF trans         <3.1|DMZ|1.1>     0.023135655333 au =     0.058801118880 Debye
 !MCSCF trans         <3.1|DMZ|2.1>     0.456355240655 au =     1.159863352545 Debye
 !MCSCF expec         <3.1|DMZ|3.1>     0.059390031704 au =     0.150944516778 Debye


 NATURAL ORBITALS (state averaged)
 =================================

  Orbital  Occupation    Energy     Coefficients
    1.1     2.00000   -11.26322     2 1s    0.99601
    2.1     2.00000   -11.24779     1 1s    0.99593
    3.1     2.00000    -1.04655     1 1s    0.27992     2 1s    0.27751     2 1s    0.25438
    4.1     2.00000    -0.78312     1 1s   -0.30795     2 1s    0.32750
    5.1     2.00000    -0.62186     1 2py   0.33819     2 2py   0.26111
    6.1     2.00000    -0.55971     1 2px   0.27299     2 2px  -0.25675
    7.1     2.00000    -0.43051     1 2pz   0.32920     1 2pz   0.27409     2 2pz   0.29855     2 2pz   0.25609
    8.1     1.00000    -0.08414     1 1s    0.29811     1 2pz   0.40988     1 2pz   0.44297     2 2pz  -0.39030     2 2pz  -0.42574
    9.1     1.00000    -0.21741     1 2px  -0.31185     2 2px   0.27558     4 1s    0.26650     5 1s    0.30288
   10.1    -0.00000     0.21711     1 1s   -1.01138     1 2px   0.39286     1 2py   0.33775     2 1s   -1.09903     2 2px  -0.52360
                                    2 2py  -0.41420     2 2pz  -0.46241     3 1s    0.46338     4 1s    0.93818     5 1s    1.19905
                                    6 1s    0.55771
   11.1    -0.00000     0.27955     1 1s    1.33819     1 2pz  -0.34739     2 1s   -1.66141     2 2py   0.57949     2 2pz  -0.49294
                                    3 1s   -1.07704     6 1s    1.70891
   12.1    -0.00000     0.30406     1 1s   -1.75596     1 2px   0.48104     1 2pz   0.60279     2 1s    0.41135     2 2py   0.25480
                                    2 2py   0.99086     3 1s    1.23709     4 1s    1.20665     5 1s   -1.27023     6 1s    0.74288
   13.1    -0.00000     0.32530     1 2py   0.31509     1 2py   1.47969     2 1s    1.00210     2 2px   0.31370     2 2py  -0.26075
                                    2 2pz   0.47005     3 1s   -1.51973     4 1s    1.55642     5 1s   -0.66533     6 1s   -0.88283
   14.1    -0.00000     0.42959     1 1s    1.95604     1 2px   1.79809     1 2py  -0.46507     1 2pz  -0.75597     2 1s   -1.90213
                                    2 2px   1.78572     2 2py  -0.60676     2 2pz  -0.74228     3 1s    0.50962     6 1s   -0.70834
   15.1    -0.00000     0.70004     1 2px  -0.55742     1 2px   0.83062     2 2px   0.51249     2 2px  -0.98207     4 1s   -0.43235
                                    5 1s   -0.52976     6 1s    0.29784
   16.1    -0.00000     0.75698     1 1s   -0.46953     1 2py  -0.41918     1 2px  -0.63433     1 2py   0.99325     2 1s    0.31354
                                    2 2py  -0.32129     2 2px  -0.67864     2 2py   0.60826     3 1s   -0.46019     4 1s    0.27876
                                    6 1s    0.50142
   17.1    -0.00000     0.78937     1 1s    0.46639     1 2py  -0.38352     1 2py   0.86617     1 2pz  -0.25549     2 2py   0.49609
                                    2 2pz   0.64372     2 2py  -1.06318     2 2pz  -0.71586     5 1s    0.35207
   18.1    -0.00000     0.80521     1 2py   0.37612     1 2pz   0.75245     1 2py  -0.82756     1 2pz  -0.79177     2 1s   -0.29437
                                    2 2py  -0.35292     2 2pz   0.41240     2 2py   0.66076     2 2pz  -0.38632     4 1s   -0.26717
                                    6 1s    0.25530
   19.1    -0.00000     0.86265     1 1s    0.30350     1 2px   0.29825     1 2pz   0.64331     1 2px  -0.48863     1 2py   0.48135
                                    1 2pz  -1.02197     2 1s    0.30849     2 2pz  -0.66724     2 2px   0.51351     2 2py  -0.64567
                                    2 2pz   0.98924     6 1s   -0.32703
   20.1    -0.00000     0.96656     1 2px   0.63025     1 2py   0.35678     1 2px  -0.95401     1 2py  -0.89720     2 2px   0.76391
                                    2 2py   0.41250     2 2px  -1.02797     2 2py  -0.65710     4 1s   -0.98395     5 1s    0.96979
   21.1    -0.00000     1.06405     1 1s   -0.38444     1 1s    0.78641     1 2px   0.35717     1 2px  -0.36636     2 1s   -0.69133
                                    2 1s    1.15606     2 2py  -0.55833     2 2py   0.63832     2 2pz   0.27666     4 1s   -0.39961
                                    5 1s    0.96057     5 1s   -1.52798
   22.1    -0.00000     1.13519     1 1s   -0.39097     1 1s    0.89986     1 2py   0.66340     1 2px   0.38687     1 2py  -1.00060
                                    2 1s   -0.38285     2 1s    0.43493     2 2px  -0.51235     2 2py   0.43555     2 2px   0.80381
                                    2 2py  -0.72399     3 1s   -0.29247     3 1s    0.80103     4 1s    0.58985     4 1s   -1.14468
                                    6 1s    0.56313     6 1s   -1.25857
   23.1    -0.00000     1.16076     1 1s   -0.34879     1 2px   0.37474     1 2py   0.28032     1 2px  -0.97446     2 1s    0.26017
                                    2 2px  -0.87639     2 2py   0.41808     3 1s    0.36561     3 1s   -0.61772     4 1s    0.88755
                                    4 1s   -1.11801     5 1s   -0.29522     5 1s    0.36980     6 1s   -0.51728     6 1s    0.99964
   24.1    -0.00000     1.19617     1 1s   -0.40064     1 2px   0.35950     1 2py  -0.42233     1 2px  -0.68262     1 2py   0.54838
                                    2 1s   -0.63762     2 1s    1.50868     2 2px  -0.32666     3 1s    0.93803     3 1s   -1.14352
                                    6 1s    0.62843     6 1s   -0.68575
   25.1    -0.00000     1.24549     1 1s   -1.98202     1 1s    4.51467     1 2py   0.32445     1 2pz  -1.34880     2 1s   -0.34458
                                    2 1s   -0.40487     2 2px   1.17447     2 2py  -0.60254     2 2pz   0.33862     3 1s   -1.34048
                                    4 1s   -0.31533     4 1s   -0.54695     5 1s   -0.29911     6 1s   -0.25087     6 1s   -0.57329
   26.1    -0.00000     1.28213     1 1s    0.81554     1 1s   -3.32319     1 2px  -1.28600     1 2py   0.99466     1 2pz   0.52347
                                    2 1s   -1.90972     2 1s    5.28004     2 2px  -0.76066     2 2py   0.25678     2 2pz   1.56476
                                    4 1s    0.37241     5 1s   -0.45852     5 1s   -0.65380     6 1s   -0.35106     6 1s   -0.80239
   27.1    -0.00000     1.69731     1 1s   -0.37774     1 3d0  -0.31761     1 3d2-  0.28925     1 3d2+  0.34658     2 1s    0.72140
                                    2 2pz   0.26172     2 3d0   0.34959     2 3d2- -0.30313     2 3d2+ -0.32685
   28.1    -0.00000     1.90681     1 2px   0.30181     1 3d1+  0.45150     1 3d2+  0.26254     1 3d1-  0.51702     2 1s    0.39017
                                    2 1s   -1.10630     2 2pz  -0.45080     2 3d0   0.45586     6 1s    0.41834
   29.1    -0.00000     1.94626     1 1s    0.37036     1 1s   -1.38353     1 2py   0.25781     1 2pz   0.36527     2 1s    0.96694
                                    2 2px  -0.29489     2 3d0   0.30151     2 3d2- -0.27761     2 3d1+  0.53583     2 3d2+  0.43088
                                    2 3d1-  0.39256     3 1s    0.28495     4 1s    0.25288
   30.1    -0.00000     2.17562     1 1s    0.52154     1 1s   -1.65945     1 2px  -0.34003     1 2pz   0.51526     1 3d0   0.47576
                                    1 3d2-  0.30738     1 3d1+  0.41869     2 1s    1.11784     2 2px  -0.29081     2 2py   0.28386
                                    2 3d0  -0.42935     2 3d2+ -0.36605     3 1s    0.38945     5 1s   -0.35074
   31.1    -0.00000     2.26346     1 1s   -0.31489     1 1s   -0.49368     1 2px  -0.25068     1 3d2+  0.50573     1 3d1-  0.28668
                                    2 1s   -0.60842     2 1s    1.01585     2 2px  -0.53050     2 2py   0.37213     2 2pz   0.28170
                                    2 3d0  -0.40213     2 3d2- -0.27686     2 3d1+ -0.33042     2 3d2+  0.29820     2 3d1-  0.28247
                                    3 1s    0.30226
   32.1    -0.00000     2.34100     1 1s   -0.54469     1 2px  -0.27298     1 2py   0.42181     1 3d0   0.67379     2 1s    0.49511
                                    2 2py  -0.26825     2 3d2- -0.46112     2 3d1- -0.49026     4 1s    0.46689     5 1s    0.32200
                                    6 1s   -0.42275
   33.1    -0.00000     2.56493     1 2py   0.31592     1 3d0   0.26386     1 3d2- -0.66968     1 3d1- -0.45051     2 1s    0.27529
                                    2 3d1-  0.64510     3 1s   -0.56467     4 1s    0.38252     5 1s   -0.35990     6 1s    0.36730
   34.1    -0.00000     2.63183     1 1s    0.38225     1 2py  -0.47774     1 3d2- -0.25544     1 3d2+ -0.55105     1 3d1-  0.61173
                                    2 3d2- -0.55648     2 3d2+ -0.46032     2 3d1-  0.35242     4 1s   -0.47609
   35.1    -0.00000     2.72050     1 3d0  -0.40598     1 3d2- -0.50090     1 3d1+  0.48724     2 3d0  -0.44019     2 3d2- -0.46830
                                    2 3d1+  0.52185     2 3d1- -0.25816     3 1s   -0.46577     6 1s   -0.46964
   36.1    -0.00000     2.95683     1 1s   -1.74741     1 2px  -0.43260     1 2px  -0.88777     1 2pz   0.44645     1 3d2-  0.32636
                                    1 3d1+  0.71867     1 3d2+ -0.66524     2 1s    1.73494     2 2px  -0.42859     2 2px  -0.87847
                                    2 2py   0.25859     2 2pz   0.44658     2 3d2- -0.36162     2 3d1+ -0.67422     2 3d2+  0.62015


 Natural orbital dump (state averaged) at molpro section  2140.2    (Orbital set 2)



 **********************************************************************************************************************************
 DATASETS  * FILE   NREC   LENGTH (MB)   RECORD NAMES
              1      20       31.86       500      610      700      900      950      970     1000      129      960     1100   
                                          VAR    BASINP    GEOM    SYMINP    ZMAT    AOBASIS   BASIS     P2S    ABASIS      S 
                                         1400     1410     1200     1210     1080     1600     1650     1300     1700     1380   
                                           T        V       H0       H01     AOSYM     SMH    MOLCAS    ERIS     OPER     JKOP   

              2       5        5.42       700     1000      520     2100     2140   
                                         GEOM     BASIS   MCVARS     RHF     MCSCF   

 PROGRAMS   *        TOTAL     MULTI    HF-SCF       INT
 CPU TIMES  *         0.89      0.49      0.10      0.20
 REAL TIME  *         1.92 SEC
 DISK USED  *        39.04 MB
 **********************************************************************************************************************************
 Molecular orbitals read from record     2140.2  Type=MCSCF/NATURAL (state averaged)
 Occupation numbers read from record     2140.2  Type=MCSCF/NATURAL (state averaged)
 Orbital energies read from record       2140.2  Type=MCSCF/NATURAL (state averaged)
 Redundancy group numbers read from rec  2140.2  Type=MCSCF/NATURAL (state averaged)

 MULTI/6-31G* energy=    -77.568461136493

           MULTI          HF-SCF
    -77.56846114    -77.84365324
 **********************************************************************************************************************************
 Molpro calculation terminated
