
 Primary working directories    : /scratch.local/johan406.molpro_temp/molpro.gJ10qfaraT
 Secondary working directories  : /scratch.local/johan406.molpro_temp/molpro.gJ10qfaraT
 Wavefunction directory         : /home/goodpast/johan406/wfu/
 Main file repository           : /scratch.local/johan406.molpro_temp/molpro.gJ10qfaraT/

 id        : roweumn

 Nodes     nprocs
 acn09        1

 Using customized tuning parameters: mindgm=1; mindgv=20; mindgc=4; mindgr=1; noblas=0; minvec=7
 default implementation of scratch files=df  


 Variables initialized (934), CPU time= 0.00 sec
                                                                                 !leave this line blank
 
 gprint, orbitals=30
 memory, 125., m
 symmetry, nosym
 nelect=16
 basis=6-31g*
 
 geometry={
 C -0.6297 0.1409 0.2857
 C 0.6321 -0.1843 -0.372
 H -1.2282 0.8932 -0.2003
 H -0.9589 -0.8986 0.0796
 H 0.9743 0.7839 0.2941
 H 1.3149 -0.9496 0.0491
 }
 
 hf
 {multi,
 closed 7
 occ 9
 wf,spin=0;STATE,3
 }
 
 Commands  initialized (763), CPU time= 0.01 sec, 617 directives.
 Default parameters read. Elapsed time= 0.10 sec

 Checking input...
 Passed
1


                                         ***  PROGRAM SYSTEM MOLPRO  ***
                                       Copyright, TTI GmbH Stuttgart, 2015
                                    Version 2019.2 linked Oct 25 2019 22:50:27


 **********************************************************************************************************************************
 LABEL *                                                                                 
  64 bit serial version                                                                  DATE: 07-Feb-23          TIME: 16:23:55  
 **********************************************************************************************************************************

 SHA1:             8dbd9ae1082e4ce945b0f27595c9eb2d4aa09004
 **********************************************************************************************************************************


 Variable memory set to  125000000 words,  buffer space 

 SETTING NELECT         =        16.00000000                                  
 SETTING BASIS          =    6-31G*
 ZSYMEL=NOSYM


Geometry recognized as XYZ



 Recomputing integrals since basis changed


 Using spherical harmonics

 Library entry C      S 6-31G                selected for orbital group  1
 Library entry C      P 6-31G                selected for orbital group  1
 Library entry C      D 6-31G*               selected for orbital group  1
 Library entry H      S 6-31G                selected for orbital group  2


 PROGRAM * SEWARD (Integral evaluation for generally contracted gaussian basis sets)     Author: Roland Lindh, 1990

 Geometry written to block  1 of record 700


 Point group  C1  



 ATOMIC COORDINATES

 NR  ATOM    CHARGE       X              Y              Z

   1  C       6.00   -1.189960541    0.266262411    0.539894754
   2  C       6.00    1.194495883   -0.348276525   -0.702978118
   3  H       1.00   -2.320961626    1.687903374   -0.378512143
   4  H       1.00   -1.812058381   -1.698107896    0.150422200
   5  H       1.00    1.841160163    1.481356309    0.555768453
   6  H       1.00    2.484800881   -1.794483928    0.092785553

 Bond lengths in Bohr (Angstrom)

 1-2  2.758264584  1-3  2.035607455  1-4  2.097008654  2-5  2.313044299  2-6  2.095147408
     ( 1.459610760)     ( 1.077197076)     ( 1.109689191)     ( 1.224010331)     ( 1.108704262)

 Bond angles

  1-2-5   79.64391692   1-2-6  121.00004252   2-1-3  115.63352822   2-1-4   87.94033625

  3-1-4  113.92818042   5-2-6   99.62134569

 NUCLEAR CHARGE:                   16
 NUMBER OF PRIMITIVE AOS:          72
 NUMBER OF SYMMETRY AOS:           70
 NUMBER OF CONTRACTIONS:           36   (   36A   )
 NUMBER OF CORE ORBITALS:           2   (    2A   )
 NUMBER OF VALENCE ORBITALS:       12   (   12A   )


 NUCLEAR REPULSION ENERGY   32.23216103

 Eigenvalues of metric

         1 0.958E-02 0.280E-01 0.601E-01 0.621E-01 0.878E-01 0.219E+00 0.239E+00 0.272E+00


 Contracted 2-electron integrals neglected if value below      1.0D-11
 AO integral compression algorithm  1   Integral accuracy      1.0D-11

     1.573 MB (compressed) written to integral file ( 59.0%)


 NUMBER OF SORTED TWO-ELECTRON INTEGRALS:     222111.     BUFFER LENGTH:  32768
 NUMBER OF SEGMENTS:   1  SEGMENT LENGTH:     222111      RECORD LENGTH: 524288

 Memory used in sort:       0.78 MW

 SORT1 READ      284735. AND WROTE      212530. INTEGRALS IN      1 RECORDS. CPU TIME:     0.00 SEC, REAL TIME:     0.00 SEC
 SORT2 READ      212530. AND WROTE      222111. INTEGRALS IN      6 RECORDS. CPU TIME:     0.02 SEC, REAL TIME:     0.03 SEC

 FILE SIZES:   FILE 1:    31.7 MBYTE,  FILE 4:     4.2 MBYTE,   TOTAL:     35.9 MBYTE

 OPERATOR DM      FOR CENTER  0  COORDINATES:    0.000000    0.000000    0.000000


 **********************************************************************************************************************************
 DATASETS  * FILE   NREC   LENGTH (MB)   RECORD NAMES
              1      19       31.13       500      610      700      900      950      970     1000      129      960     1100   
                                          VAR    BASINP    GEOM    SYMINP    ZMAT    AOBASIS   BASIS     P2S    ABASIS      S 
                                         1400     1410     1200     1210     1080     1600     1650     1300     1700   
                                           T        V       H0       H01     AOSYM     SMH    MOLCAS    ERIS     OPER   

 PROGRAMS   *        TOTAL       INT
 CPU TIMES  *         0.29      0.18
 REAL TIME  *         0.47 SEC
 DISK USED  *        36.24 MB
 **********************************************************************************************************************************


 PROGRAM * RHF-SCF (CLOSED SHELL)       Authors: W. Meyer, H.-J. Werner


 NUMBER OF ELECTRONS:       8+    8-    SPACE SYMMETRY=1    SPIN SYMMETRY: Singlet 
 CONVERGENCE THRESHOLDS:    1.00E-05 (Density)    1.00E-07 (Energy)
 MAX. NUMBER OF ITERATIONS:       60
 INTERPOLATION TYPE:            DIIS
 INTERPOLATION STEPS:              2 (START)      1 (STEP)
 LEVEL SHIFTS:                  0.00 (CLOSED)  0.00 (OPEN) 



 Orbital guess generated from atomic densities. Full valence occupancy:    8

 Molecular orbital dump at record        2100.2

 Initial occupancy:   8

 ITERATION    DDIFF          GRAD             ENERGY        2-EL.EN.            DIPOLE MOMENTS         DIIS   ORB.
    1      0.000D+00      0.000D+00       -77.81951229    115.694280   -0.13183   -0.00757    0.28720    0    start
    2      0.000D+00      0.718D-02       -77.83790628    114.642058   -0.11725   -0.10327    0.08730    1    diag
    3      0.822D-02      0.260D-02       -77.84008356    115.048913   -0.20635   -0.05820    0.21848    2    diag
    4      0.311D-02      0.129D-02       -77.84069901    114.973109   -0.17005   -0.09347    0.14356    3    diag
    5      0.184D-02      0.491D-03       -77.84082077    114.935917   -0.19100   -0.08378    0.16628    4    diag
    6      0.668D-03      0.205D-03       -77.84088152    114.944486   -0.19211   -0.08525    0.16334    5    diag
    7      0.656D-03      0.861D-04       -77.84089982    114.944609   -0.19196   -0.08488    0.16338    6    diag
    8      0.364D-03      0.353D-04       -77.84090311    114.945822   -0.19087   -0.08481    0.16263    7    diag
    9      0.165D-03      0.159D-04       -77.84090365    114.946269   -0.18991   -0.08473    0.16222    8    diag
   10      0.739D-04      0.601D-05       -77.84090370    114.946365   -0.18952   -0.08468    0.16198    9    orth
   11      0.249D-04      0.149D-05       -77.84090370    114.946372   -0.18942   -0.08466    0.16193    9    diag
   12      0.471D-05      0.387D-06       -77.84090370    114.946376   -0.18941   -0.08466    0.16193    0    orth

 Final occupancy:   8

 !RHF STATE  1.1 Energy               -77.840903704069
 Nuclear energy                        32.23216103
 One-electron energy                 -167.54625296
 Two-electron energy                   57.47318822
 Virial quotient                       -1.00172566
 !RHF STATE  1.1 Dipole moment         -0.18941351    -0.08465723     0.16193426
 Dipole moment /Debye                  -0.48140960    -0.21516311     0.41156888

 ELECTRON ORBITALS
 =================

  Orbital  Occupation    Energy     Coefficients
    1.1     2.00000   -11.26656     1 1s    0.99518
    2.1     2.00000   -11.25740     2 1s    0.99524
    3.1     2.00000    -1.03590     1 1s    0.29891     1 1s    0.26039     2 1s    0.26654
    4.1     2.00000    -0.78125     1 1s   -0.27817     2 1s    0.31120
    5.1     2.00000    -0.62402     1 2py   0.37530
    6.1     2.00000    -0.56010     1 2px   0.31614     2 2px  -0.29080
    7.1     2.00000    -0.41862     1 2pz   0.29434
    8.1     2.00000    -0.35608     2 2pz  -0.25357
    9.1     0.00000     0.06354     1 1s    0.42952     1 2pz   0.33769     1 2pz   0.47771     2 1s    0.37866     2 2pz  -0.31466
                                    2 2pz  -0.44764
   10.1     0.00000     0.22761     1 1s   -1.11611     1 2px   0.39579     1 2py   0.35028     1 2pz   0.31959     2 1s   -0.91651
                                    2 2px  -0.51949     2 2py  -0.41190     2 2pz  -0.49805     3 1s    0.55914     4 1s    0.98646
                                    5 1s    1.12530     6 1s    0.46413
   11.1     0.00000     0.28168     1 1s    1.34958     1 2py   0.33851     1 2pz  -0.40987     2 1s   -1.62011     2 2py   0.45140
                                    2 2pz  -0.47029     3 1s   -1.29688     6 1s    1.56407
   12.1     0.00000     0.30283     1 1s   -1.40551     1 2px   0.60064     1 2py  -0.37913     1 2pz   0.57533     2 2py   0.25115
                                    2 2py   1.00665     3 1s    1.51282     4 1s    0.67386     5 1s   -1.03617     6 1s    1.01040
   13.1     0.00000     0.32879     1 1s   -0.57900     1 2py   0.29106     1 2py   1.39113     2 1s    1.16508     2 2px   0.35939
                                    2 2pz   0.53940     3 1s   -0.98662     4 1s    1.82431     5 1s   -0.93161     6 1s   -0.89557
   14.1     0.00000     0.42406     1 1s    2.08642     1 2px   1.78353     1 2py  -0.54888     1 2pz  -0.81810     2 1s   -1.99347
                                    2 2px   1.77348     2 2py  -0.70096     2 2pz  -0.77493     3 1s    0.47147     6 1s   -0.73383
   15.1     0.00000     0.70216     1 1s   -0.32343     1 2px  -0.60106     1 2px   0.84397     2 2px   0.48820     2 2px  -1.00598
                                    2 2pz   0.25315     4 1s   -0.33976     5 1s   -0.51316     6 1s    0.30138
   16.1     0.00000     0.75935     1 1s   -0.29176     1 2py  -0.51968     1 2px  -0.57362     1 2py   1.22283     2 1s    0.25826
                                    2 2px  -0.59712     2 2py   0.32786     3 1s   -0.48079     3 1s   -0.26265     4 1s    0.31294
                                    6 1s    0.45751
   17.1     0.00000     0.79549     1 1s    0.38018     1 2pz   0.57096     1 2py   0.35285     1 2pz  -0.61663     2 2py   0.37206
                                    2 2pz   0.71063     2 2py  -0.74883     2 2pz  -0.66091     5 1s    0.32010
   18.1     0.00000     0.80362     1 2py   0.47382     1 2pz   0.62288     1 2py  -0.99415     1 2pz  -0.58305     2 2py  -0.56972
                                    2 2px  -0.25228     2 2py   1.08436
   19.1     0.00000     0.86505     1 1s    0.32726     1 2px   0.30022     1 2pz   0.58640     1 2px  -0.47714     1 2py   0.47206
                                    1 2pz  -0.89244     2 1s    0.35563     2 2py   0.28802     2 2pz  -0.74203     2 2px   0.46161
                                    2 2py  -0.69340     2 2pz   0.98902     6 1s   -0.29599
   20.1     0.00000     0.95290     1 2px   0.61613     1 2py   0.35369     1 2px  -0.97290     1 2py  -0.89672     2 1s   -0.25584
                                    2 1s    0.27968     2 2px   0.77515     2 2py   0.38689     2 2px  -1.05964     2 2py  -0.57898
                                    4 1s   -1.03782     5 1s    0.86782
   21.1     0.00000     1.08433     1 1s   -0.47945     1 1s    0.94969     1 2px   0.34989     1 2px  -0.39479     2 1s   -0.65277
                                    2 1s    1.10723     2 2py  -0.55466     2 2py   0.64204     2 2pz   0.33040     3 1s   -0.31644
                                    4 1s   -0.45421     5 1s    0.93474     5 1s   -1.54161
   22.1     0.00000     1.14031     1 1s   -0.25051     1 1s    0.89645     1 2px  -0.28969     1 2py   0.59491     1 2px   0.71681
                                    1 2py  -0.97662     2 1s   -0.39137     2 2px  -0.52312     2 2py   0.41701     2 2px   1.07546
                                    2 2py  -0.76857     3 1s   -0.51046     3 1s    1.08276     4 1s    0.29830     4 1s   -0.78040
                                    6 1s    0.60915     6 1s   -1.39355
   23.1     0.00000     1.17528     1 1s   -0.38758     1 2px   0.38250     1 2py   0.26965     1 2px  -0.92867     2 1s    0.74980
                                    2 2px  -0.65516     3 1s    0.61521     3 1s   -0.67331     4 1s    0.95640     4 1s   -1.18607
                                    5 1s   -0.28949     5 1s    0.48300
   24.1     0.00000     1.19233     1 2py  -0.51688     1 2py   0.55951     2 1s   -0.71047     2 1s    1.25586     2 2py   0.25343
                                    3 1s    0.68167     3 1s   -0.90344     4 1s   -0.40208     4 1s    0.64600     6 1s    0.75170
                                    6 1s   -1.05217
   25.1     0.00000     1.24007     1 1s   -2.09161     1 1s    5.05384     1 2px   0.48083     1 2pz  -1.42050     2 1s   -1.54419
                                    2 2px   1.32090     2 2py  -0.60628     3 1s   -1.25324     4 1s   -0.25769     4 1s   -0.64144
                                    5 1s   -0.27290     6 1s   -0.33533
   26.1     0.00000     1.29684     1 1s    0.40909     1 1s   -2.36432     1 2px  -1.20899     1 2py   1.01915     1 2pz   0.25516
                                    2 1s   -1.91367     2 1s    5.00263     2 2px  -0.50528     2 2pz   1.60040     3 1s   -0.25912
                                    5 1s   -0.53766     5 1s   -0.63116     6 1s   -0.39360     6 1s   -0.87473
   27.1     0.00000     1.70400     1 1s   -0.29472     1 3d0  -0.32269     1 3d2-  0.28721     1 3d2+  0.35495     2 1s    0.71171
                                    2 2pz   0.26686     2 3d0   0.34478     2 3d2- -0.29115     2 3d2+ -0.32363
   28.1     0.00000     1.89953     1 2px   0.31214     1 3d2- -0.26235     1 3d1+  0.45408     1 3d1-  0.54368     2 1s    0.40042
                                    2 1s   -1.15757     2 2pz  -0.46469     2 3d0   0.42103     6 1s    0.43735
   29.1     0.00000     1.96187     1 1s    0.37626     1 1s   -1.36033     1 2py   0.29376     1 2pz   0.34631     2 1s    0.91549
                                    2 2px  -0.27617     2 3d0   0.39131     2 3d1+  0.53368     2 3d2+  0.46107     2 3d1-  0.35016
                                    4 1s    0.27708
   30.1     0.00000     2.17234     1 1s    0.53175     1 1s   -1.64639     1 2px  -0.34191     1 2pz   0.51451     1 3d0   0.45666
                                    1 3d2-  0.32838     1 3d1+  0.44537     1 3d1-  0.25717     2 1s    1.05028     2 2px  -0.28093
                                    2 2py   0.26536     2 3d0  -0.39596     2 3d2+ -0.35664     3 1s    0.38095     5 1s   -0.33816
   31.1     0.00000     2.27343     1 1s   -0.30254     1 1s   -0.54197     1 3d2+  0.50222     1 3d1-  0.32909     2 1s   -0.61754
                                    2 1s    1.03337     2 2px  -0.55352     2 2py   0.40773     2 2pz   0.28159     2 3d0  -0.41349
                                    2 3d1+ -0.27764     2 3d2+  0.30611     2 3d1-  0.35366     3 1s    0.34839
   32.1     0.00000     2.34395     1 1s   -0.63718     1 2px  -0.27536     1 2py   0.42265     1 3d0   0.68349     2 1s    0.63344
                                    2 2pz   0.26462     2 3d2- -0.46912     2 3d1+ -0.27184     2 3d1- -0.46977     4 1s    0.50992
                                    5 1s    0.29919     6 1s   -0.41437
   33.1     0.00000     2.56057     1 2py  -0.34794     1 3d0  -0.27767     1 3d2-  0.68692     1 3d1-  0.45383     2 1s   -0.26406
                                    2 3d1- -0.62113     3 1s    0.58435     4 1s   -0.41454     5 1s    0.33542     6 1s   -0.34505
   34.1     0.00000     2.63302     1 1s    0.36388     1 2py  -0.48180     1 3d2+ -0.56590     1 3d1-  0.58594     2 3d2- -0.52933
                                    2 3d2+ -0.47121     2 3d1-  0.38199     4 1s   -0.47434
   35.1     0.00000     2.71390     1 3d0  -0.40005     1 3d2- -0.49673     1 3d1+  0.47508     2 3d0  -0.44500     2 3d2- -0.52392
                                    2 3d1+  0.52476     3 1s   -0.43133     6 1s   -0.49591
   36.1     0.00000     2.95974     1 1s   -1.72587     1 2px  -0.44341     1 2px  -0.87585     1 2pz   0.44000     1 3d2-  0.32593
                                    1 3d1+  0.70615     1 3d2+ -0.66823     2 1s    1.71416     2 2px  -0.43045     2 2px  -0.87398
                                    2 2py   0.26008     2 2pz   0.44368     2 3d2- -0.36290     2 3d1+ -0.68043     2 3d2+  0.62296


 HOMO      8.1    -0.356076 =      -9.6893eV
 LUMO      9.1     0.063540 =       1.7290eV
 LUMO-HOMO         0.419617 =      11.4183eV


 **********************************************************************************************************************************
 DATASETS  * FILE   NREC   LENGTH (MB)   RECORD NAMES
              1      19       31.13       500      610      700      900      950      970     1000      129      960     1100   
                                          VAR    BASINP    GEOM    SYMINP    ZMAT    AOBASIS   BASIS     P2S    ABASIS      S 
                                         1400     1410     1200     1210     1080     1600     1650     1300     1700   
                                           T        V       H0       H01     AOSYM     SMH    MOLCAS    ERIS     OPER   

              2       4        2.86       700     1000      520     2100   
                                         GEOM     BASIS   MCVARS     RHF  

 PROGRAMS   *        TOTAL    HF-SCF       INT
 CPU TIMES  *         0.39      0.10      0.18
 REAL TIME  *         0.61 SEC
 DISK USED  *        36.24 MB
 **********************************************************************************************************************************


 PROGRAM * MULTI (Direct Multiconfiguration SCF)       Authors: P.J. Knowles, H.-J. Werner (1984)


 Number of closed-shell orbitals:   7 (   7 )
 Number of active  orbitals:        2 (   2 )
 Number of external orbitals:      27 (  27 )

 State symmetry 1

 Number of electrons:     2    Spin symmetry=Singlet   Space symmetry=1
 Number of states:        3
 Number of CSFs:          3   (4 determinants, 4 intermediate states)

 Molecular orbitals read from record     2100.2  Type=RHF/CANONICAL (state 1.1)

 Wavefunction dump at record             2140.2

 Convergence thresholds  0.10E-01 (gradient)  0.10E-05 (energy)  0.10E-02 (step length)

 Weight factors for state symmetry  1:    0.33333   0.33333   0.33333

 Number of orbital rotations:      257   (    14 Core/Active    189 Core/Virtual   0 Active/Active     54 Active/Virtual)
 Total number of variables:        269

 Micro-Iterations solved by the two-step solver

 ITER. MIC  NCI  NEG     ENERGY(VAR)     ENERGY(PROJ)   ENERGY CHANGE     GRAD(0)  GRAD(ORB)   GRAD(CI)     STEP       TIME

   1   10    6    0     -77.68207216     -77.71456746   -0.03249530    0.15623345 0.00064093 0.00000000  0.22D+00      0.16
   2    6    5    0     -77.71367062     -77.71398295   -0.00031233    0.02820674 0.00003212 0.00000000  0.14D-01      0.24
   3    7    5    0     -77.71398415     -77.71398416   -0.00000001    0.00017037 0.00000000 0.00000000  0.12D-03      0.34
   4    4    3    0     -77.71398416     -77.71398416   -0.00000000    0.00000001 0.00000000 0.00000000  0.11D-07      0.40

 ** WVFN ****  CONVERGENCE REACHED, FINAL GRADIENT:  0.87D-13



 Results for state 1.1
 =====================

 !MCSCF STATE  1.1 Energy             -77.836071165945
 Nuclear energy                        32.23216103
 Kinetic energy                        77.75274456
 One electron energy                 -167.59091210
 Two electron energy                   57.52267990
 Virial ratio                           2.00107169

 !MCSCF STATE  1.1 Dipole moment       -0.28483618    -0.05765503     0.19925284
 Dipole moment /Debye                  -0.72393393    -0.14653488     0.50641703

 Results for state 2.1
 =====================

 !MCSCF STATE  2.1 Energy             -77.730928425330
 Nuclear energy                        32.23216103
 Kinetic energy                        77.83368832
 One electron energy                 -167.37230662
 Two electron energy                   57.40921716
 Virial ratio                           1.99867975

 !MCSCF STATE  2.1 Dipole moment        0.14479483    -0.09389790     0.10017696
 Dipole moment /Debye                   0.36800764    -0.23864902     0.25460777

 Results for state 3.1
 =====================

 !MCSCF STATE  3.1 Energy             -77.574952888056
 Nuclear energy                        32.23216103
 Kinetic energy                        77.91328419
 One electron energy                 -167.16031551
 Two electron energy                   57.35320159
 Virial ratio                           1.99565759

 !MCSCF STATE  3.1 Dipole moment        0.54559463    -0.11945761     0.03752975
 Dipole moment /Debye                   1.38667241    -0.30361108     0.09538486

 State-averaged charge density matrix saved on record  2140.2 (density set 1)

 !MCSCF expec         <1.1|DMX|1.1>    -0.284836175791 au =    -0.723933927666 Debye
 !MCSCF trans         <2.1|DMX|1.1>    -0.354417179329 au =    -0.900779614640 Debye
 !MCSCF expec         <2.1|DMX|2.1>     0.144794826867 au =     0.368007636067 Debye
 !MCSCF trans         <3.1|DMX|1.1>    -0.081284356435 au =    -0.206590694627 Debye
 !MCSCF trans         <3.1|DMX|2.1>    -0.431269061434 au =    -1.096104821160 Debye
 !MCSCF expec         <3.1|DMX|3.1>     0.545594632274 au =     1.386672405495 Debye

 !MCSCF expec         <1.1|DMY|1.1>    -0.057655033558 au =    -0.146534880191 Debye
 !MCSCF trans         <2.1|DMY|1.1>     0.132153102475 au =     0.335877682189 Debye
 !MCSCF expec         <2.1|DMY|2.1>    -0.093897898235 au =    -0.238649020197 Debye
 !MCSCF trans         <3.1|DMY|1.1>     0.007496166269 au =     0.019052106266 Debye
 !MCSCF trans         <3.1|DMY|2.1>     0.159114343407 au =     0.404401832916 Debye
 !MCSCF expec         <3.1|DMY|3.1>    -0.119457614463 au =    -0.303611083766 Debye

 !MCSCF expec         <1.1|DMZ|1.1>     0.199252840507 au =     0.506417034375 Debye
 !MCSCF trans         <2.1|DMZ|1.1>     0.450796093174 au =     1.145734334489 Debye
 !MCSCF expec         <2.1|DMZ|2.1>     0.100176964883 au =     0.254607770408 Debye
 !MCSCF trans         <3.1|DMZ|1.1>     0.021051664635 au =     0.053504489803 Debye
 !MCSCF trans         <3.1|DMZ|2.1>     0.542429608559 au =     1.378628244522 Debye
 !MCSCF expec         <3.1|DMZ|3.1>     0.037529750664 au =     0.095384863693 Debye


 NATURAL ORBITALS (state averaged)
 =================================

  Orbital  Occupation    Energy     Coefficients
    1.1     2.00000   -11.26597     2 1s    0.99613
    2.1     2.00000   -11.24635     1 1s    0.99604
    3.1     2.00000    -1.04473     1 1s    0.28076     2 1s    0.27730     2 1s    0.25647
    4.1     2.00000    -0.78190     1 1s   -0.30578     2 1s    0.32993
    5.1     2.00000    -0.62027     1 2py   0.34692
    6.1     2.00000    -0.55942     1 2px   0.27775     2 2px  -0.25727
    7.1     2.00000    -0.43539     1 2pz   0.32762     1 2pz   0.26942     2 2pz   0.29059
    8.1     1.00000    -0.08281     1 1s    0.30589     1 2pz   0.40914     1 2pz   0.44672     2 2pz  -0.38589     2 2pz  -0.42523
    9.1     1.00000    -0.21121     1 2px  -0.30715     2 2px   0.26560     4 1s    0.25890     5 1s    0.30216
   10.1    -0.00000     0.21548     1 1s   -0.97228     1 2px   0.36167     1 2py   0.31832     2 1s   -1.07378     2 2px  -0.52818
                                    2 2py  -0.42738     2 2pz  -0.47553     3 1s    0.43921     4 1s    0.87958     5 1s    1.22195
                                    6 1s    0.53994
   11.1    -0.00000     0.27834     1 1s    1.14185     1 2pz  -0.28275     2 1s   -1.62357     2 2py   0.66745     2 2pz  -0.48056
                                    3 1s   -0.93546     6 1s    1.77414
   12.1    -0.00000     0.29964     1 1s   -1.89908     1 2px   0.48657     1 2pz   0.60427     2 1s    0.55553     2 2py   0.84879
                                    3 1s    1.26030     4 1s    1.32486     5 1s   -1.19943     6 1s    0.50875
   13.1    -0.00000     0.32661     1 2py   0.31175     1 2py   1.50507     1 2pz  -0.32243     2 1s    0.92391     2 2px   0.30257
                                    2 2py  -0.33119     2 2pz   0.45120     3 1s   -1.62727     4 1s    1.51258     5 1s   -0.54952
                                    6 1s   -0.88984
   14.1    -0.00000     0.42967     1 1s    1.98218     1 2px   1.79871     1 2py  -0.45339     1 2pz  -0.76780     2 1s   -1.91172
                                    2 2px   1.78479     2 2py  -0.62445     2 2pz  -0.74755     3 1s    0.47442     6 1s   -0.72168
   15.1    -0.00000     0.70048     1 2px  -0.56285     1 2px   0.80887     2 2px   0.50620     2 2px  -1.00249     4 1s   -0.42099
                                    5 1s   -0.53828     6 1s    0.31289
   16.1    -0.00000     0.75820     1 1s   -0.46996     1 2py  -0.42740     1 2px  -0.62145     1 2py   1.02471     2 1s    0.28112
                                    2 2py  -0.31823     2 2px  -0.67863     2 2py   0.57021     3 1s   -0.45324     4 1s    0.28041
                                    6 1s    0.50714
   17.1    -0.00000     0.79014     1 1s    0.50617     1 2py  -0.32019     1 2pz   0.31785     1 2py   0.75061     1 2pz  -0.35743
                                    2 2py   0.45473     2 2pz   0.69507     2 2py  -0.96602     2 2pz  -0.76000     3 1s   -0.25472
                                    5 1s    0.34570
   18.1    -0.00000     0.80812     1 2py   0.43196     1 2pz   0.72020     1 2py  -0.93664     1 2pz  -0.74599     2 1s   -0.26013
                                    2 2py  -0.42150     2 2pz   0.31892     2 2py   0.79724     2 2pz  -0.27529     4 1s   -0.27356
                                    6 1s    0.25900
   19.1    -0.00000     0.86259     1 1s    0.29702     1 2px   0.31360     1 2pz   0.63727     1 2px  -0.49348     1 2py   0.47001
                                    1 2pz  -1.02456     2 1s    0.30548     2 2py   0.27532     2 2pz  -0.66334     2 2px   0.51980
                                    2 2py  -0.68141     2 2pz   0.97522     6 1s   -0.34167
   20.1    -0.00000     0.95934     1 2px   0.60182     1 2py   0.35498     1 2px  -0.89474     1 2py  -0.92156     2 2px   0.77288
                                    2 2py   0.41887     2 2px  -1.00785     2 2py  -0.61137     4 1s   -0.95482     5 1s    0.95977
   21.1    -0.00000     1.05344     1 1s   -0.36310     1 1s    0.74622     1 2px   0.36789     1 2px  -0.38148     2 1s   -0.69726
                                    2 1s    1.16038     2 2py  -0.52843     2 2py   0.61258     2 2pz   0.29657     4 1s   -0.36689
                                    5 1s    0.96736     5 1s   -1.51148
   22.1    -0.00000     1.13475     1 1s   -0.36082     1 1s    0.88776     1 2py   0.60363     1 2px   0.46373     1 2py  -0.96490
                                    2 1s   -0.43390     2 1s    0.46313     2 2px  -0.53941     2 2py   0.45507     2 2px   0.88647
                                    2 2py  -0.74716     3 1s   -0.27589     3 1s    0.80286     4 1s    0.48049     4 1s   -0.99197
                                    6 1s    0.66206     6 1s   -1.38971
   23.1    -0.00000     1.16147     1 1s   -0.35765     1 2px   0.38670     1 2py   0.35669     1 2px  -0.95613     2 1s    0.26236
                                    2 2px  -0.81522     2 2py   0.35971     3 1s    0.36040     3 1s   -0.52324     4 1s    0.96151
                                    4 1s   -1.24531     5 1s    0.36436     6 1s   -0.41601     6 1s    0.85299
   24.1    -0.00000     1.19689     1 1s   -0.80413     1 2px   0.35670     1 2py  -0.45517     1 2px  -0.74958     1 2py   0.60892
                                    1 2pz   0.26084     2 1s   -0.66085     2 1s    1.66512     2 2px  -0.45748     3 1s    0.94454
                                    3 1s   -1.10508     4 1s    0.35102     6 1s    0.60180     6 1s   -0.62887
   25.1    -0.00000     1.24448     1 1s   -2.04746     1 1s    4.68934     1 2py   0.30708     1 2pz  -1.34015     2 1s   -0.67283
                                    2 2px   1.21577     2 2py  -0.56207     2 2pz   0.25577     3 1s   -1.40924     4 1s   -0.27661
                                    4 1s   -0.54586     5 1s   -0.28070     6 1s   -0.51869
   26.1    -0.00000     1.28181     1 1s    0.67526     1 1s   -2.95730     1 2px  -1.24932     1 2py   0.99400     1 2pz   0.41597
                                    2 1s   -1.90163     2 1s    5.13657     2 2px  -0.66075     2 2pz   1.57380     3 1s   -0.27083
                                    4 1s    0.29103     5 1s   -0.48772     5 1s   -0.61747     6 1s   -0.38540     6 1s   -0.82261
   27.1    -0.00000     1.70086     1 1s   -0.30475     1 3d0  -0.31047     1 3d2-  0.28576     1 3d2+  0.35137     2 1s    0.71924
                                    2 2pz   0.27564     2 3d0   0.34581     2 3d2- -0.30172     2 3d2+ -0.33139
   28.1    -0.00000     1.90261     1 2px   0.29954     1 3d2- -0.25790     1 3d1+  0.43948     1 3d1-  0.52394     2 1s    0.38457
                                    2 1s   -1.10587     2 2pz  -0.44497     2 3d0   0.45634     6 1s    0.43076
   29.1    -0.00000     1.94986     1 1s    0.35499     1 1s   -1.31792     1 2py   0.29568     1 2pz   0.32821     2 1s    0.93370
                                    2 2px  -0.26901     2 3d0   0.37102     2 3d2- -0.26808     2 3d1+  0.53344     2 3d2+  0.46070
                                    2 3d1-  0.35632     4 1s    0.27187
   30.1    -0.00000     2.17294     1 1s    0.53172     1 1s   -1.60746     1 2px  -0.31397     1 2pz   0.51495     1 3d0   0.42523
                                    1 3d2-  0.31869     1 3d1+  0.45551     1 3d1-  0.27243     2 1s    0.97972     2 2px  -0.27336
                                    2 2py   0.28608     2 3d0  -0.38199     2 3d2+ -0.34579     3 1s    0.38136     5 1s   -0.34403
   31.1    -0.00000     2.27000     1 1s   -0.30912     1 1s   -0.53479     1 3d2+  0.49852     1 3d1-  0.31728     2 1s   -0.60855
                                    2 1s    1.02346     2 2px  -0.56274     2 2py   0.41454     2 2pz   0.27508     2 3d0  -0.42468
                                    2 3d1+ -0.28452     2 3d2+  0.31307     2 3d1-  0.36431     3 1s    0.33150
   32.1    -0.00000     2.34161     1 1s   -0.73351     1 2px  -0.28683     1 2py   0.42505     1 3d0   0.69528     2 1s    0.70112
                                    2 2pz   0.27424     2 3d2- -0.48346     2 3d1- -0.47537     4 1s    0.50338     5 1s    0.28537
                                    6 1s   -0.44253
   33.1    -0.00000     2.55888     1 2py  -0.33237     1 3d0  -0.30013     1 3d2-  0.69529     1 3d1-  0.42630     2 1s   -0.25487
                                    2 3d1- -0.62497     3 1s    0.57783     4 1s   -0.38818     5 1s    0.33188     6 1s   -0.33735
   34.1    -0.00000     2.62811     1 1s    0.39324     1 2py  -0.50618     1 3d2+ -0.56003     1 3d1-  0.60961     2 3d2- -0.56100
                                    2 3d2+ -0.45027     2 3d1-  0.33730     4 1s   -0.48485
   35.1    -0.00000     2.71746     1 3d0  -0.41004     1 3d2- -0.50689     1 3d1+  0.48112     2 3d0  -0.44529     2 3d2- -0.47295
                                    2 3d1+  0.52946     3 1s   -0.45904     6 1s   -0.46897
   36.1    -0.00000     2.95742     1 1s   -1.74612     1 2px  -0.43349     1 2px  -0.88745     1 2pz   0.44631     1 3d2-  0.32151
                                    1 3d1+  0.72226     1 3d2+ -0.66994     2 1s    1.72925     2 2px  -0.42869     2 2px  -0.87642
                                    2 2py   0.25989     2 2pz   0.44588     2 3d2- -0.36468     2 3d1+ -0.66804     2 3d2+  0.61600


 Natural orbital dump (state averaged) at molpro section  2140.2    (Orbital set 2)



 **********************************************************************************************************************************
 DATASETS  * FILE   NREC   LENGTH (MB)   RECORD NAMES
              1      20       31.86       500      610      700      900      950      970     1000      129      960     1100   
                                          VAR    BASINP    GEOM    SYMINP    ZMAT    AOBASIS   BASIS     P2S    ABASIS      S 
                                         1400     1410     1200     1210     1080     1600     1650     1300     1700     1380   
                                           T        V       H0       H01     AOSYM     SMH    MOLCAS    ERIS     OPER     JKOP   

              2       5        5.42       700     1000      520     2100     2140   
                                         GEOM     BASIS   MCVARS     RHF     MCSCF   

 PROGRAMS   *        TOTAL     MULTI    HF-SCF       INT
 CPU TIMES  *         0.83      0.44      0.10      0.18
 REAL TIME  *         1.09 SEC
 DISK USED  *        39.04 MB
 **********************************************************************************************************************************
 Molecular orbitals read from record     2140.2  Type=MCSCF/NATURAL (state averaged)
 Occupation numbers read from record     2140.2  Type=MCSCF/NATURAL (state averaged)
 Orbital energies read from record       2140.2  Type=MCSCF/NATURAL (state averaged)
 Redundancy group numbers read from rec  2140.2  Type=MCSCF/NATURAL (state averaged)

 MULTI/6-31G* energy=    -77.574952888056

           MULTI          HF-SCF
    -77.57495289    -77.84090370
 **********************************************************************************************************************************
 Molpro calculation terminated
