
 Primary working directories    : /scratch.local/johan406.molpro_temp/molpro.ggOO5OHw1G
 Secondary working directories  : /scratch.local/johan406.molpro_temp/molpro.ggOO5OHw1G
 Wavefunction directory         : /home/goodpast/johan406/wfu/
 Main file repository           : /scratch.local/johan406.molpro_temp/molpro.ggOO5OHw1G/

 id        : roweumn

 Nodes     nprocs
 acn09        1

 Using customized tuning parameters: mindgm=1; mindgv=20; mindgc=4; mindgr=1; noblas=0; minvec=7
 default implementation of scratch files=df  


 Variables initialized (934), CPU time= 0.00 sec
                                                                                 !leave this line blank
 
 gprint, orbitals=30
 memory, 125., m
 symmetry, nosym
 nelect=16
 basis=6-31g*
 
 geometry={
 C -0.6302 0.1414 0.2838
 C 0.6316 -0.1839 -0.3739
 H -1.2225 0.8927 -0.207
 H -0.9585 -0.9034 0.1118
 H 0.9748 0.7791 0.3263
 H 1.3207 -0.9501 0.0424
 }
 
 hf
 {multi,
 closed 7
 occ 9
 wf,spin=0;STATE,3
 }
 
 Commands  initialized (763), CPU time= 0.01 sec, 617 directives.
 Default parameters read. Elapsed time= 0.08 sec

 Checking input...
 Passed
1


                                         ***  PROGRAM SYSTEM MOLPRO  ***
                                       Copyright, TTI GmbH Stuttgart, 2015
                                    Version 2019.2 linked Oct 25 2019 22:50:27


 **********************************************************************************************************************************
 LABEL *                                                                                 
  64 bit serial version                                                                  DATE: 07-Feb-23          TIME: 16:25:14  
 **********************************************************************************************************************************

 SHA1:             8dbd9ae1082e4ce945b0f27595c9eb2d4aa09004
 **********************************************************************************************************************************


 Variable memory set to  125000000 words,  buffer space 

 SETTING NELECT         =        16.00000000                                  
 SETTING BASIS          =    6-31G*
 ZSYMEL=NOSYM


Geometry recognized as XYZ



 Recomputing integrals since basis changed


 Using spherical harmonics

 Library entry C      S 6-31G                selected for orbital group  1
 Library entry C      P 6-31G                selected for orbital group  1
 Library entry C      D 6-31G*               selected for orbital group  1
 Library entry H      S 6-31G                selected for orbital group  2


 PROGRAM * SEWARD (Integral evaluation for generally contracted gaussian basis sets)     Author: Roland Lindh, 1990

 Geometry written to block  1 of record 700


 Point group  C1  



 ATOMIC COORDINATES

 NR  ATOM    CHARGE       X              Y              Z

   1  C       6.00   -1.190905404    0.267207274    0.536304274
   2  C       6.00    1.193551020   -0.347520634   -0.706568598
   3  H       1.00   -2.310190187    1.686958511   -0.391173308
   4  H       1.00   -1.811302490   -1.707178581    0.211271381
   5  H       1.00    1.842105026    1.472285624    0.616617634
   6  H       1.00    2.495761293   -1.795428791    0.080124388

 Bond lengths in Bohr (Angstrom)

 1-2  2.758306693  1-3  2.031921915  1-4  2.094931605  2-5  2.341610326  2-6  2.100256050
     ( 1.459633043)     ( 1.075246772)     ( 1.108590064)     ( 1.239126822)     ( 1.111407639)

 Bond angles

  1-2-5   79.14115050   1-2-6  121.38941818   2-1-3  115.22892654   2-1-4   88.62782704

  3-1-4  115.12333000   5-2-6   98.76505696

 NUCLEAR CHARGE:                   16
 NUMBER OF PRIMITIVE AOS:          72
 NUMBER OF SYMMETRY AOS:           70
 NUMBER OF CONTRACTIONS:           36   (   36A   )
 NUMBER OF CORE ORBITALS:           2   (    2A   )
 NUMBER OF VALENCE ORBITALS:       12   (   12A   )


 NUCLEAR REPULSION ENERGY   32.18940198

 Eigenvalues of metric

         1 0.967E-02 0.282E-01 0.602E-01 0.616E-01 0.901E-01 0.220E+00 0.239E+00 0.272E+00


 Contracted 2-electron integrals neglected if value below      1.0D-11
 AO integral compression algorithm  1   Integral accuracy      1.0D-11

     1.573 MB (compressed) written to integral file ( 59.0%)


 NUMBER OF SORTED TWO-ELECTRON INTEGRALS:     222111.     BUFFER LENGTH:  32768
 NUMBER OF SEGMENTS:   1  SEGMENT LENGTH:     222111      RECORD LENGTH: 524288

 Memory used in sort:       0.78 MW

 SORT1 READ      284735. AND WROTE      212531. INTEGRALS IN      1 RECORDS. CPU TIME:     0.00 SEC, REAL TIME:     0.01 SEC
 SORT2 READ      212531. AND WROTE      222111. INTEGRALS IN      6 RECORDS. CPU TIME:     0.02 SEC, REAL TIME:     0.02 SEC

 FILE SIZES:   FILE 1:    31.7 MBYTE,  FILE 4:     4.2 MBYTE,   TOTAL:     35.9 MBYTE

 OPERATOR DM      FOR CENTER  0  COORDINATES:    0.000000    0.000000    0.000000


 **********************************************************************************************************************************
 DATASETS  * FILE   NREC   LENGTH (MB)   RECORD NAMES
              1      19       31.13       500      610      700      900      950      970     1000      129      960     1100   
                                          VAR    BASINP    GEOM    SYMINP    ZMAT    AOBASIS   BASIS     P2S    ABASIS      S 
                                         1400     1410     1200     1210     1080     1600     1650     1300     1700   
                                           T        V       H0       H01     AOSYM     SMH    MOLCAS    ERIS     OPER   

 PROGRAMS   *        TOTAL       INT
 CPU TIMES  *         0.28      0.17
 REAL TIME  *         0.65 SEC
 DISK USED  *        36.24 MB
 **********************************************************************************************************************************


 PROGRAM * RHF-SCF (CLOSED SHELL)       Authors: W. Meyer, H.-J. Werner


 NUMBER OF ELECTRONS:       8+    8-    SPACE SYMMETRY=1    SPIN SYMMETRY: Singlet 
 CONVERGENCE THRESHOLDS:    1.00E-05 (Density)    1.00E-07 (Energy)
 MAX. NUMBER OF ITERATIONS:       60
 INTERPOLATION TYPE:            DIIS
 INTERPOLATION STEPS:              2 (START)      1 (STEP)
 LEVEL SHIFTS:                  0.00 (CLOSED)  0.00 (OPEN) 



 Orbital guess generated from atomic densities. Full valence occupancy:    8

 Molecular orbital dump at record        2100.2

 Initial occupancy:   8

 ITERATION    DDIFF          GRAD             ENERGY        2-EL.EN.            DIPOLE MOMENTS         DIIS   ORB.
    1      0.000D+00      0.000D+00       -77.81688723    115.617250   -0.15721   -0.00551    0.34097    0    start
    2      0.000D+00      0.725D-02       -77.83545363    114.553573   -0.13410   -0.11955    0.09783    1    diag
    3      0.848D-02      0.274D-02       -77.83773029    114.955614   -0.23832   -0.06605    0.25222    2    diag
    4      0.319D-02      0.141D-02       -77.83842301    114.894057   -0.19960   -0.10483    0.17110    3    diag
    5      0.191D-02      0.485D-03       -77.83854450    114.850075   -0.22118   -0.09588    0.19230    4    diag
    6      0.693D-03      0.198D-03       -77.83859854    114.858437   -0.22319   -0.09728    0.18987    5    diag
    7      0.629D-03      0.809D-04       -77.83861373    114.858205   -0.22334   -0.09695    0.19002    6    diag
    8      0.322D-03      0.349D-04       -77.83861695    114.859362   -0.22236   -0.09688    0.18931    7    diag
    9      0.159D-03      0.166D-04       -77.83861757    114.859851   -0.22132   -0.09680    0.18885    8    diag
   10      0.793D-04      0.658D-05       -77.83861763    114.859985   -0.22086   -0.09674    0.18857    9    orth
   11      0.294D-04      0.161D-05       -77.83861764    114.859997   -0.22075   -0.09672    0.18851    9    diag
   12      0.540D-05      0.403D-06       -77.83861764    114.860002   -0.22074   -0.09671    0.18851    0    orth

 Final occupancy:   8

 !RHF STATE  1.1 Energy               -77.838617637182
 Nuclear energy                        32.18940198
 One-electron energy                 -167.45802046
 Two-electron energy                   57.43000085
 Virial quotient                       -1.00188111
 !RHF STATE  1.1 Dipole moment         -0.22074290    -0.09671344     0.18851473
 Dipole moment /Debye                  -0.56103575    -0.24580495     0.47912527

 ELECTRON ORBITALS
 =================

  Orbital  Occupation    Energy     Coefficients
    1.1     2.00000   -11.26851     1 1s    0.99558
    2.1     2.00000   -11.25699     2 1s    0.99564
    3.1     2.00000    -1.03552     1 1s    0.30127     1 1s    0.26272     2 1s    0.26403
    4.1     2.00000    -0.78035     1 1s   -0.27638     2 1s    0.31396
    5.1     2.00000    -0.62465     1 2py   0.38225
    6.1     2.00000    -0.55962     1 2px   0.31904     2 2px  -0.29063
    7.1     2.00000    -0.42216     1 2pz   0.29697
    8.1     2.00000    -0.35121     2 2pz  -0.25606
    9.1     0.00000     0.06364     1 1s    0.43511     1 2pz   0.33830     1 2pz   0.47901     2 1s    0.37662     2 2pz  -0.31085
                                    2 2pz  -0.44191
   10.1     0.00000     0.22629     1 1s   -1.09615     1 2px   0.37826     1 2py   0.34494     1 2pz   0.29912     2 1s   -0.88258
                                    2 2px  -0.52043     2 2py  -0.42401     2 2pz  -0.50493     3 1s    0.54590     4 1s    0.95710
                                    5 1s    1.13094     6 1s    0.43823
   11.1     0.00000     0.28149     1 1s    1.28411     1 2py   0.34662     1 2pz  -0.39595     2 1s   -1.61496     2 2py   0.47399
                                    2 2pz  -0.46662     3 1s   -1.26063     6 1s    1.58292
   12.1     0.00000     0.29921     1 1s   -1.49931     1 2px   0.61038     1 2py  -0.26061     1 2pz   0.56751     2 2py   0.94270
                                    3 1s    1.47435     4 1s    0.82959     5 1s   -1.05519     6 1s    0.87380
   13.1     0.00000     0.32750     1 1s   -0.47906     1 2py   0.29304     1 2py   1.43474     2 1s    1.16334     2 2px   0.35597
                                    2 2pz   0.54853     3 1s   -1.11939     4 1s    1.77450     5 1s   -0.80366     6 1s   -0.98591
   14.1     0.00000     0.42421     1 1s    2.09602     1 2px   1.78336     1 2py  -0.53746     1 2pz  -0.82337     2 1s   -1.98742
                                    2 2px   1.77211     2 2py  -0.70754     2 2pz  -0.77276     3 1s    0.44589     6 1s   -0.74554
   15.1     0.00000     0.70199     1 1s   -0.35621     1 2px  -0.60904     1 2px   0.83144     2 2px   0.47628     2 2px  -1.01451
                                    2 2pz   0.27499     4 1s   -0.33035     5 1s   -0.52337     6 1s    0.31139
   16.1     0.00000     0.76001     1 1s   -0.28377     1 2py  -0.52829     1 2px  -0.56043     1 2py   1.25959     2 2px  -0.59707
                                    2 2py   0.28770     3 1s   -0.47712     3 1s   -0.28647     4 1s    0.31659     6 1s    0.45582
   17.1     0.00000     0.79557     1 1s   -0.36097     1 2pz  -0.67632     1 2pz   0.72243     2 1s    0.25583     2 2py  -0.27554
                                    2 2pz  -0.69670     2 2py   0.55424     2 2pz   0.63398     5 1s   -0.28133
   18.1     0.00000     0.80648     1 2py   0.48659     1 2pz   0.52202     1 2py  -1.03246     1 2pz  -0.47413     2 2py  -0.62816
                                    2 2px  -0.26410     2 2py   1.18782     5 1s   -0.25637
   19.1     0.00000     0.86526     1 1s    0.31974     1 2px   0.31191     1 2pz   0.56388     1 2px  -0.48352     1 2py   0.47070
                                    1 2pz  -0.87623     2 1s    0.35361     2 2py   0.31126     2 2pz  -0.74752     2 2px   0.46222
                                    2 2py  -0.72690     2 2pz   0.98982     6 1s   -0.30988
   20.1     0.00000     0.94755     1 2px   0.59650     1 2py   0.35160     1 2px  -0.92568     1 2py  -0.90897     2 1s   -0.25214
                                    2 1s    0.25876     2 2px   0.78277     2 2py   0.38590     2 2px  -1.04427     2 2py  -0.54053
                                    4 1s   -1.01735     5 1s    0.83552
   21.1     0.00000     1.07668     1 1s   -0.46568     1 1s    0.92841     1 2px   0.34895     1 2px  -0.38714     2 1s   -0.66049
                                    2 1s    1.11073     2 2py  -0.53514     2 2py   0.62217     2 2pz   0.34152     3 1s   -0.30310
                                    4 1s   -0.42981     5 1s    0.94590     5 1s   -1.54164
   22.1     0.00000     1.13972     1 1s   -0.25303     1 1s    0.91109     1 2px  -0.29233     1 2py   0.58052     1 2px   0.73451
                                    1 2py  -0.96739     2 1s   -0.38107     2 2px  -0.52935     2 2py   0.42391     2 2px   1.09364
                                    2 2py  -0.76988     3 1s   -0.49653     3 1s    1.07079     4 1s    0.28171     4 1s   -0.74933
                                    6 1s    0.63072     6 1s   -1.40780
   23.1     0.00000     1.17144     1 1s   -0.34354     1 2px   0.39601     1 2py   0.28072     1 2px  -0.94808     2 1s    0.77159
                                    2 2px  -0.68775     3 1s    0.61979     3 1s   -0.64207     4 1s    0.96160     4 1s   -1.19277
                                    5 1s   -0.25203     5 1s    0.47277
   24.1     0.00000     1.19298     1 2py  -0.52842     1 2px  -0.26409     1 2py   0.58599     2 1s   -0.71937     2 1s    1.32688
                                    2 2py   0.25272     3 1s    0.68971     3 1s   -0.89874     4 1s   -0.41587     4 1s    0.68458
                                    6 1s    0.73702     6 1s   -1.02866
   25.1     0.00000     1.23728     1 1s   -2.11820     1 1s    5.12220     1 2px   0.52480     1 2pz  -1.40420     2 1s   -1.66886
                                    2 2px   1.34559     2 2py  -0.57464     3 1s   -1.27881     4 1s   -0.63744     5 1s   -0.25929
                                    6 1s   -0.30893
   26.1     0.00000     1.29730     1 1s    0.33220     1 1s   -2.15703     1 2px  -1.18236     1 2py   1.00205     2 1s   -1.89922
                                    2 1s    4.88861     2 2px  -0.45079     2 2pz   1.59048     3 1s   -0.25703     3 1s   -0.28905
                                    5 1s   -0.55267     5 1s   -0.59655     6 1s   -0.40374     6 1s   -0.87945
   27.1     0.00000     1.70609     1 3d0  -0.31873     1 3d2-  0.28592     1 3d2+  0.35913     2 1s    0.70737     2 2pz   0.27421
                                    2 3d0   0.33944     2 3d2- -0.28878     2 3d2+ -0.32689
   28.1     0.00000     1.89571     1 2px   0.30630     1 3d2- -0.27158     1 3d1+  0.44406     1 3d1-  0.54548     2 1s    0.39353
                                    2 1s   -1.13979     2 2pz  -0.45703     2 3d0   0.41716     6 1s    0.44176
   29.1     0.00000     1.96616     1 1s    0.36297     1 1s   -1.30949     1 2py   0.32320     1 2pz   0.31606     2 1s    0.90631
                                    2 2px  -0.25564     2 3d0   0.43081     2 3d1+  0.52894     2 3d2+  0.47480     2 3d1-  0.32166
                                    4 1s    0.28696
   30.1     0.00000     2.16966     1 1s    0.53614     1 1s   -1.61226     1 2px  -0.32590     1 2pz   0.51337     1 3d0   0.42400
                                    1 3d2-  0.33460     1 3d1+  0.46491     1 3d1-  0.27925     2 1s    0.96584     2 2px  -0.27175
                                    2 2py   0.26634     2 3d0  -0.36840     2 3d2+ -0.34274     3 1s    0.37618     5 1s   -0.33120
   31.1     0.00000     2.27742     1 1s   -0.30294     1 1s   -0.53541     1 3d2+  0.48833     1 3d1-  0.34114     2 1s   -0.61203
                                    2 1s    1.00720     2 2px  -0.56470     2 2py   0.43020     2 2pz   0.26954     2 3d0  -0.41992
                                    2 3d2+  0.31936     2 3d1-  0.41078     3 1s    0.35992
   32.1     0.00000     2.34405     1 1s   -0.76689     1 2px  -0.28502     1 2py   0.42564     1 3d0   0.69095     2 1s    0.78259
                                    2 2pz   0.29581     2 3d2- -0.47958     2 3d1+ -0.28519     2 3d1- -0.44829     4 1s    0.53789
                                    5 1s    0.26696     6 1s   -0.42199
   33.1     0.00000     2.55435     1 2py  -0.36603     1 3d0  -0.29729     1 3d2-  0.70167     1 3d1-  0.44630     2 3d1- -0.60181
                                    3 1s    0.59781     4 1s   -0.42351     5 1s    0.31265     6 1s   -0.32807
   34.1     0.00000     2.62859     1 1s    0.35805     1 2py  -0.49237     1 3d2+ -0.57124     1 3d1-  0.57568     2 3d2- -0.52587
                                    2 3d2+ -0.46749     2 3d1-  0.38343     4 1s   -0.46825
   35.1     0.00000     2.71210     1 3d0  -0.40437     1 3d2- -0.49639     1 3d1+  0.46739     2 3d0  -0.44771     2 3d2- -0.53457
                                    2 3d1+  0.53091     3 1s   -0.41954     6 1s   -0.49875
   36.1     0.00000     2.95961     1 1s   -1.72798     1 2px  -0.44445     1 2px  -0.87629     1 2pz   0.44064     1 3d2-  0.32234
                                    1 3d1+  0.70698     1 3d2+ -0.66955     2 1s    1.71419     2 2px  -0.42979     2 2px  -0.87483
                                    2 2py   0.26205     2 2pz   0.44455     2 3d2- -0.36473     2 3d1+ -0.67826     2 3d2+  0.62153


 HOMO      8.1    -0.351209 =      -9.5569eV
 LUMO      9.1     0.063637 =       1.7316eV
 LUMO-HOMO         0.414845 =      11.2885eV


 **********************************************************************************************************************************
 DATASETS  * FILE   NREC   LENGTH (MB)   RECORD NAMES
              1      19       31.13       500      610      700      900      950      970     1000      129      960     1100   
                                          VAR    BASINP    GEOM    SYMINP    ZMAT    AOBASIS   BASIS     P2S    ABASIS      S 
                                         1400     1410     1200     1210     1080     1600     1650     1300     1700   
                                           T        V       H0       H01     AOSYM     SMH    MOLCAS    ERIS     OPER   

              2       4        2.86       700     1000      520     2100   
                                         GEOM     BASIS   MCVARS     RHF  

 PROGRAMS   *        TOTAL    HF-SCF       INT
 CPU TIMES  *         0.40      0.12      0.17
 REAL TIME  *         0.86 SEC
 DISK USED  *        36.24 MB
 **********************************************************************************************************************************


 PROGRAM * MULTI (Direct Multiconfiguration SCF)       Authors: P.J. Knowles, H.-J. Werner (1984)


 Number of closed-shell orbitals:   7 (   7 )
 Number of active  orbitals:        2 (   2 )
 Number of external orbitals:      27 (  27 )

 State symmetry 1

 Number of electrons:     2    Spin symmetry=Singlet   Space symmetry=1
 Number of states:        3
 Number of CSFs:          3   (4 determinants, 4 intermediate states)

 Molecular orbitals read from record     2100.2  Type=RHF/CANONICAL (state 1.1)

 Wavefunction dump at record             2140.2

 Convergence thresholds  0.10E-01 (gradient)  0.10E-05 (energy)  0.10E-02 (step length)

 Weight factors for state symmetry  1:    0.33333   0.33333   0.33333

 Number of orbital rotations:      257   (    14 Core/Active    189 Core/Virtual   0 Active/Active     54 Active/Virtual)
 Total number of variables:        269

 Micro-Iterations solved by the two-step solver

 ITER. MIC  NCI  NEG     ENERGY(VAR)     ENERGY(PROJ)   ENERGY CHANGE     GRAD(0)  GRAD(ORB)   GRAD(CI)     STEP       TIME

   1    9    6    0     -77.68332624     -77.71499603   -0.03166979    0.16104455 0.00081191 0.00000000  0.21D+00      0.16
   2    6    5    0     -77.71405426     -77.71431203   -0.00025778    0.02571450 0.00002673 0.00000000  0.12D-01      0.25
   3    7    5    0     -77.71431293     -77.71431294   -0.00000001    0.00014255 0.00000001 0.00000000  0.97D-04      0.35
   4    4    3    0     -77.71431294     -77.71431294   -0.00000000    0.00000001 0.00000000 0.00000000  0.77D-08      0.42

 ** WVFN ****  CONVERGENCE REACHED, FINAL GRADIENT:  0.79D-13



 Results for state 1.1
 =====================

 !MCSCF STATE  1.1 Energy             -77.834093689066
 Nuclear energy                        32.18940198
 Kinetic energy                        77.73630909
 One electron energy                 -167.49648609
 Two electron energy                   57.47299042
 Virial ratio                           2.00125790

 !MCSCF STATE  1.1 Dipole moment       -0.31756535    -0.06438678     0.22866319
 Dipole moment /Debye                  -0.80711774    -0.16364416     0.58116580

 Results for state 2.1
 =====================

 !MCSCF STATE  2.1 Energy             -77.729569184516
 Nuclear energy                        32.18940198
 Kinetic energy                        77.81825557
 One electron energy                 -167.29894603
 Two electron energy                   57.37997486
 Virial ratio                           1.99886034

 !MCSCF STATE  2.1 Dipole moment        0.14214757    -0.10134104     0.13335586
 Dipole moment /Debye                   0.36127942    -0.25756637     0.33893459

 Results for state 3.1
 =====================

 !MCSCF STATE  3.1 Energy             -77.579275938834
 Nuclear energy                        32.18940198
 Kinetic energy                        77.90093835
 One electron energy                 -167.09704043
 Two electron energy                   57.32836251
 Virial ratio                           1.99587088

 !MCSCF STATE  3.1 Dipole moment        0.62274945    -0.14626092     0.01117117
 Dipole moment /Debye                   1.58276755    -0.37173384     0.02839241

 State-averaged charge density matrix saved on record  2140.2 (density set 1)

 !MCSCF expec         <1.1|DMX|1.1>    -0.317565349219 au =    -0.807117740267 Debye
 !MCSCF trans         <2.1|DMX|1.1>    -0.378842079918 au =    -0.962857453479 Debye
 !MCSCF expec         <2.1|DMX|2.1>     0.142147570441 au =     0.361279422082 Debye
 !MCSCF trans         <3.1|DMX|1.1>    -0.091929914539 au =    -0.233647232193 Debye
 !MCSCF trans         <3.1|DMX|2.1>    -0.459085651078 au =    -1.166802909067 Debye
 !MCSCF expec         <3.1|DMX|3.1>     0.622749449396 au =     1.582767545595 Debye

 !MCSCF expec         <1.1|DMY|1.1>    -0.064386781652 au =    -0.163644156512 Debye
 !MCSCF trans         <2.1|DMY|1.1>     0.143825031304 au =     0.365542823063 Debye
 !MCSCF expec         <2.1|DMY|2.1>    -0.101341044549 au =    -0.257566372005 Debye
 !MCSCF trans         <3.1|DMY|1.1>     0.006959050157 au =     0.017686982698 Debye
 !MCSCF trans         <3.1|DMY|2.1>     0.175586312437 au =     0.446266659964 Debye
 !MCSCF expec         <3.1|DMY|3.1>    -0.146260923010 au =    -0.371733836704 Debye

 !MCSCF expec         <1.1|DMZ|1.1>     0.228663194014 au =     0.581165800642 Debye
 !MCSCF trans         <2.1|DMZ|1.1>     0.485154781648 au =     1.233059689941 Debye
 !MCSCF expec         <2.1|DMZ|2.1>     0.133355862795 au =     0.338934593762 Debye
 !MCSCF trans         <3.1|DMZ|1.1>     0.017513809154 au =     0.044512747069 Debye
 !MCSCF trans         <3.1|DMZ|2.1>     0.592569609491 au =     1.506063068089 Debye
 !MCSCF expec         <3.1|DMZ|3.1>     0.011171165032 au =     0.028392409623 Debye


 NATURAL ORBITALS (state averaged)
 =================================

  Orbital  Occupation    Energy     Coefficients
    1.1     2.00000   -11.26796     2 1s    0.99618
    2.1     2.00000   -11.24542     1 1s    0.99608
    3.1     2.00000    -1.04324     1 1s    0.28137     2 1s    0.27713     2 1s    0.25774
    4.1     2.00000    -0.78088     1 1s   -0.30446     2 1s    0.33164
    5.1     2.00000    -0.61893     1 2py   0.35271
    6.1     2.00000    -0.55915     1 2px   0.28121     2 2px  -0.25779
    7.1     2.00000    -0.43885     1 2pz   0.32627     1 2pz   0.26601     2 2pz   0.28513
    8.1     1.00000    -0.08178     1 1s    0.31130     1 2pz   0.40822     1 2pz   0.44922     2 2pz  -0.38262     2 2pz  -0.42467
    9.1     1.00000    -0.20663     1 2px  -0.30311     2 2px   0.25895     4 1s    0.25403     5 1s    0.30124
   10.1    -0.00000     0.21396     1 1s   -0.93909     1 2px   0.33713     1 2py   0.30182     2 1s   -1.04952     2 2px  -0.52909
                                    2 2py  -0.43869     2 2pz  -0.48211     3 1s    0.42081     4 1s    0.83191     5 1s    1.23753
                                    6 1s    0.52045
   11.1    -0.00000     0.27716     1 1s    0.95463     2 1s   -1.58078     2 2py   0.72870     2 2pz  -0.46620     3 1s   -0.81228
                                    6 1s    1.81183
   12.1    -0.00000     0.29647     1 1s   -2.00089     1 2px   0.48349     1 2pz   0.60221     2 1s    0.67048     2 2py   0.72931
                                    3 1s    1.28955     4 1s    1.38506     5 1s   -1.12736     6 1s    0.31644
   13.1    -0.00000     0.32743     1 2py   0.30888     1 2py   1.51748     1 2pz  -0.37075     2 1s    0.87384     2 2px   0.29443
                                    2 2py  -0.36950     2 2pz   0.43808     3 1s   -1.69327     4 1s    1.48346     5 1s   -0.48006
                                    6 1s   -0.88746
   14.1    -0.00000     0.42980     1 1s    2.00166     1 2px   1.79904     1 2py  -0.44666     1 2pz  -0.77681     2 1s   -1.91885
                                    2 2px   1.78445     2 2py  -0.63544     2 2pz  -0.75132     3 1s    0.44955     6 1s   -0.72928
   15.1    -0.00000     0.70086     1 1s   -0.25167     1 2px  -0.56651     1 2px   0.79327     2 2px   0.50151     2 2px  -1.01648
                                    2 2pz   0.26317     4 1s   -0.41419     5 1s   -0.54334     6 1s    0.32292
   16.1    -0.00000     0.75931     1 1s   -0.46704     1 2py  -0.43131     1 2px  -0.61167     1 2py   1.04119     2 1s    0.25764
                                    2 2py  -0.31874     2 2px  -0.67856     2 2py   0.54849     3 1s   -0.44814     4 1s    0.28064
                                    6 1s    0.51166
   17.1    -0.00000     0.79085     1 1s   -0.52572     1 2py   0.27520     1 2pz  -0.37288     1 2py  -0.67118     1 2pz   0.41818
                                    2 2py  -0.42334     2 2pz  -0.72267     2 2py   0.89182     2 2pz   0.77971     3 1s    0.25872
                                    5 1s   -0.33672
   18.1    -0.00000     0.81052     1 2py   0.46461     1 2pz   0.69421     1 2py  -0.99953     1 2pz  -0.70942     2 2py  -0.46292
                                    2 2pz   0.25325     2 2py   0.87723     4 1s   -0.27475     6 1s    0.26017
   19.1    -0.00000     0.86255     1 1s    0.29094     1 2px   0.32571     1 2pz   0.63188     1 2px  -0.49866     1 2py   0.46419
                                    1 2pz  -1.02611     2 1s    0.30281     2 2py   0.29536     2 2pz  -0.65929     2 2px   0.52357
                                    2 2py  -0.70998     2 2pz   0.96359     6 1s   -0.35302
   20.1    -0.00000     0.95381     1 2px   0.58016     1 2py   0.35499     1 2px  -0.84832     1 2py  -0.93873     2 2px   0.77829
                                    2 2py   0.42092     2 2px  -0.99559     2 2py  -0.57478     4 1s   -0.92921     5 1s    0.95421
   21.1    -0.00000     1.04599     1 1s   -0.35377     1 1s    0.72532     1 2px   0.37607     1 2px  -0.39480     2 1s   -0.70299
                                    2 1s    1.16719     2 2py  -0.50355     2 2pz  -0.25848     2 2py   0.59107     2 2pz   0.30823
                                    4 1s   -0.35622     5 1s    0.96903     5 1s   -1.49556
   22.1    -0.00000     1.13346     1 1s   -0.34288     1 1s    0.86347     1 2py   0.56932     1 2px   0.48906     1 2py  -0.94068
                                    2 1s   -0.45174     2 1s    0.47488     2 2px  -0.54877     2 2py   0.46484     2 2px   0.90997
                                    2 2py  -0.75053     3 1s   -0.25401     3 1s    0.78873     4 1s    0.42887     4 1s   -0.91385
                                    6 1s    0.70985     6 1s   -1.44101
   23.1    -0.00000     1.16122     1 1s   -0.34645     1 2px   0.40194     1 2py   0.37928     1 2px  -0.96005     1 2py  -0.25613
                                    2 1s    0.30594     2 2px  -0.80480     2 2py   0.34018     3 1s    0.37686     3 1s   -0.49397
                                    4 1s    0.98662     4 1s   -1.28537     5 1s    0.36206     6 1s   -0.35520     6 1s    0.78524
   24.1    -0.00000     1.19761     1 1s   -1.08130     1 2px   0.34953     1 2py  -0.47842     1 2px  -0.78904     1 2py   0.65099
                                    1 2pz   0.30238     2 1s   -0.68098     2 1s    1.77656     2 2px  -0.53998     3 1s    0.94012
                                    3 1s   -1.07000     4 1s    0.43894     6 1s    0.58224     6 1s   -0.59809
   25.1    -0.00000     1.24412     1 1s   -2.07336     1 1s    4.74558     1 2px   0.27526     1 2py   0.30498     1 2pz  -1.32235
                                    2 1s   -0.78302     2 2px   1.22616     2 2py  -0.53189     3 1s   -1.45222     4 1s   -0.25209
                                    4 1s   -0.53759     5 1s   -0.27152     6 1s   -0.49245
   26.1    -0.00000     1.28115     1 1s    0.59737     1 1s   -2.74572     1 2px  -1.22425     1 2py   0.98026     1 2pz   0.35977
                                    2 1s   -1.88885     2 1s    5.02928     2 2px  -0.60442     2 2pz   1.57012     3 1s   -0.29322
                                    5 1s   -0.50414     5 1s   -0.58480     6 1s   -0.40304     6 1s   -0.82822
   27.1    -0.00000     1.70357     1 1s   -0.25331     1 3d0  -0.30561     1 3d2-  0.28353     1 3d2+  0.35452     2 1s    0.71026
                                    2 2pz   0.28205     2 3d0   0.34167     2 3d2- -0.30037     2 3d2+ -0.33593
   28.1    -0.00000     1.89951     1 2px   0.29431     1 3d2- -0.26785     1 3d1+  0.42835     1 3d1-  0.52408     2 1s    0.37834
                                    2 1s   -1.09371     2 2pz  -0.43749     2 3d0   0.45498     6 1s    0.43498
   29.1    -0.00000     1.95244     1 1s    0.34087     1 1s   -1.26403     1 2py   0.32367     1 2pz   0.29767     2 1s    0.91925
                                    2 3d0   0.41292     2 3d2- -0.26286     2 3d1+  0.52868     2 3d2+  0.47637     2 3d1-  0.32871
                                    4 1s    0.28180
   30.1    -0.00000     2.17078     1 1s    0.53270     1 1s   -1.56553     1 2px  -0.29407     1 2pz   0.51265     1 3d0   0.38669
                                    1 3d2-  0.32130     1 3d1+  0.47429     1 3d1-  0.29464     2 1s    0.88930     2 2px  -0.26435
                                    2 2py   0.28958     2 3d0  -0.35024     2 3d2+ -0.32874     3 1s    0.37414     5 1s   -0.33865
   31.1    -0.00000     2.27343     1 1s   -0.31791     1 1s   -0.50334     1 3d2+  0.47857     1 3d1-  0.32467     2 1s   -0.59870
                                    2 1s    0.97667     2 2px  -0.57063     2 2py   0.43718     2 2pz   0.25814     2 3d0  -0.42543
                                    2 3d2+  0.32971     2 3d1-  0.42735     3 1s    0.33513
   32.1    -0.00000     2.34339     1 1s   -0.87561     1 2px  -0.29491     1 2py   0.42302     1 3d0   0.69884     2 1s    0.85971
                                    2 2pz   0.30535     2 3d2- -0.49412     2 3d1+ -0.25678     2 3d1- -0.44614     4 1s    0.53094
                                    5 1s    0.25071     6 1s   -0.44783
   33.1    -0.00000     2.55418     1 2py  -0.34865     1 3d0  -0.32508     1 3d2-  0.70891     1 3d1-  0.41493     2 3d1- -0.60456
                                    3 1s    0.58792     4 1s   -0.39581     5 1s    0.30956     6 1s   -0.31895
   34.1    -0.00000     2.62452     1 1s    0.39158     1 2py  -0.52099     1 3d2+ -0.56624     1 3d1-  0.60187     2 3d2- -0.56159
                                    2 3d2+ -0.44501     2 3d1-  0.33353     4 1s   -0.48312
   35.1    -0.00000     2.71516     1 1s    0.25250     1 3d0  -0.41434     1 3d2- -0.51029     1 3d1+  0.47585     2 3d0  -0.44795
                                    2 3d2- -0.47707     2 3d1+  0.53512     3 1s   -0.45324     6 1s   -0.46836
   36.1    -0.00000     2.95780     1 1s   -1.74572     1 2px  -0.43403     1 2px  -0.88728     1 2pz   0.44639     1 3d2-  0.31819
                                    1 3d1+  0.72450     1 3d2+ -0.67244     2 1s    1.72552     2 2px  -0.42877     2 2px  -0.87527
                                    2 2py   0.26070     2 2pz   0.44546     2 3d2- -0.36657     2 3d1+ -0.66394     2 3d2+  0.61348


 Natural orbital dump (state averaged) at molpro section  2140.2    (Orbital set 2)



 **********************************************************************************************************************************
 DATASETS  * FILE   NREC   LENGTH (MB)   RECORD NAMES
              1      20       31.86       500      610      700      900      950      970     1000      129      960     1100   
                                          VAR    BASINP    GEOM    SYMINP    ZMAT    AOBASIS   BASIS     P2S    ABASIS      S 
                                         1400     1410     1200     1210     1080     1600     1650     1300     1700     1380   
                                           T        V       H0       H01     AOSYM     SMH    MOLCAS    ERIS     OPER     JKOP   

              2       5        5.42       700     1000      520     2100     2140   
                                         GEOM     BASIS   MCVARS     RHF     MCSCF   

 PROGRAMS   *        TOTAL     MULTI    HF-SCF       INT
 CPU TIMES  *         0.87      0.47      0.12      0.17
 REAL TIME  *         2.59 SEC
 DISK USED  *        39.04 MB
 **********************************************************************************************************************************
 Molecular orbitals read from record     2140.2  Type=MCSCF/NATURAL (state averaged)
 Occupation numbers read from record     2140.2  Type=MCSCF/NATURAL (state averaged)
 Orbital energies read from record       2140.2  Type=MCSCF/NATURAL (state averaged)
 Redundancy group numbers read from rec  2140.2  Type=MCSCF/NATURAL (state averaged)

 MULTI/6-31G* energy=    -77.579275938834

           MULTI          HF-SCF
    -77.57927594    -77.83861764
 **********************************************************************************************************************************
 Molpro calculation terminated
