
 Primary working directories    : /scratch.local/johan406.molpro_temp/molpro.szESncOBab
 Secondary working directories  : /scratch.local/johan406.molpro_temp/molpro.szESncOBab
 Wavefunction directory         : /home/goodpast/johan406/wfu/
 Main file repository           : /scratch.local/johan406.molpro_temp/molpro.szESncOBab/

 id        : roweumn

 Nodes     nprocs
 cn0391       1

 Using customized tuning parameters: mindgm=1; mindgv=20; mindgc=4; mindgr=1; noblas=0; minvec=7
 default implementation of scratch files=df  


 Variables initialized (934), CPU time= 0.01 sec
                                                                                 !leave this line blank
 
 gprint, orbitals=30
 memory, 125., m
 symmetry, nosym
 nelect=16
 basis=6-31g*
 
 geometry={
 C -0.6213 0.1394 0.2883
 C 0.6405 -0.1859 -0.3693
 H -1.3359 0.893 -0.0604
 H -0.9484 -0.8799 -0.1151
 H 0.9849 0.8025 0.0994
 H 1.2072 -0.9498 0.1891
 }
 
 hf
 {multi,
 closed 7
 occ 9
 wf,spin=0;STATE,3
 }
 
 Commands  initialized (763), CPU time= 0.01 sec, 617 directives.
 Default parameters read. Elapsed time= 0.07 sec

 Checking input...
 Passed
1


                                         ***  PROGRAM SYSTEM MOLPRO  ***
                                       Copyright, TTI GmbH Stuttgart, 2015
                                    Version 2019.2 linked Oct 25 2019 22:50:27


 **********************************************************************************************************************************
 LABEL *                                                                                 
  64 bit serial version                                                                  DATE: 07-Feb-23          TIME: 15:10:37  
 **********************************************************************************************************************************

 SHA1:             8dbd9ae1082e4ce945b0f27595c9eb2d4aa09004
 **********************************************************************************************************************************


 Variable memory set to  125000000 words,  buffer space 

 SETTING NELECT         =        16.00000000                                  
 SETTING BASIS          =    6-31G*
 ZSYMEL=NOSYM


Geometry recognized as XYZ



 Recomputing integrals since basis changed


 Using spherical harmonics

 Library entry C      S 6-31G                selected for orbital group  1
 Library entry C      P 6-31G                selected for orbital group  1
 Library entry C      D 6-31G*               selected for orbital group  1
 Library entry H      S 6-31G                selected for orbital group  2


 PROGRAM * SEWARD (Integral evaluation for generally contracted gaussian basis sets)     Author: Roland Lindh, 1990

 Geometry written to block  1 of record 700


 Point group  C1  



 ATOMIC COORDINATES

 NR  ATOM    CHARGE       X              Y              Z

   1  C       6.00   -1.174086841    0.263427822    0.544808042
   2  C       6.00    1.210369583   -0.351300087   -0.697875858
   3  H       1.00   -2.524485130    1.687525429   -0.114139458
   4  H       1.00   -1.792216257   -1.662770017   -0.217507477
   5  H       1.00    1.861191260    1.516505215    0.187838777
   6  H       1.00    2.281277378   -1.794861873    0.357347210

 Bond lengths in Bohr (Angstrom)

 1-2  2.758221549  1-3  2.070227365  1-4  2.161815681  2-5  2.167200017  2-6  2.084276819
     ( 1.459587986)     ( 1.095517143)     ( 1.143983593)     ( 1.146832861)     ( 1.102951794)

 Bond angles

  1-2-5   83.30399201   1-2-6  111.74276091   2-1-3  125.01629234   2-1-4   83.66923723

  3-1-4  108.31064466   5-2-6  103.63325947

 NUCLEAR CHARGE:                   16
 NUMBER OF PRIMITIVE AOS:          72
 NUMBER OF SYMMETRY AOS:           70
 NUMBER OF CONTRACTIONS:           36   (   36A   )
 NUMBER OF CORE ORBITALS:           2   (    2A   )
 NUMBER OF VALENCE ORBITALS:       12   (   12A   )


 NUCLEAR REPULSION ENERGY   32.32297022

 Eigenvalues of metric

         1 0.907E-02 0.283E-01 0.588E-01 0.646E-01 0.822E-01 0.220E+00 0.237E+00 0.273E+00


 Contracted 2-electron integrals neglected if value below      1.0D-11
 AO integral compression algorithm  1   Integral accuracy      1.0D-11

     1.573 MB (compressed) written to integral file ( 59.1%)


 NUMBER OF SORTED TWO-ELECTRON INTEGRALS:     222111.     BUFFER LENGTH:  32768
 NUMBER OF SEGMENTS:   1  SEGMENT LENGTH:     222111      RECORD LENGTH: 524288

 Memory used in sort:       0.78 MW

 SORT1 READ      284735. AND WROTE      212531. INTEGRALS IN      1 RECORDS. CPU TIME:     0.00 SEC, REAL TIME:     0.01 SEC
 SORT2 READ      212531. AND WROTE      222111. INTEGRALS IN      6 RECORDS. CPU TIME:     0.02 SEC, REAL TIME:     0.03 SEC

 FILE SIZES:   FILE 1:    31.7 MBYTE,  FILE 4:     4.2 MBYTE,   TOTAL:     35.9 MBYTE

 OPERATOR DM      FOR CENTER  0  COORDINATES:    0.000000    0.000000    0.000000


 **********************************************************************************************************************************
 DATASETS  * FILE   NREC   LENGTH (MB)   RECORD NAMES
              1      19       31.13       500      610      700      900      950      970     1000      129      960     1100   
                                          VAR    BASINP    GEOM    SYMINP    ZMAT    AOBASIS   BASIS     P2S    ABASIS      S 
                                         1400     1410     1200     1210     1080     1600     1650     1300     1700   
                                           T        V       H0       H01     AOSYM     SMH    MOLCAS    ERIS     OPER   

 PROGRAMS   *        TOTAL       INT
 CPU TIMES  *         0.36      0.26
 REAL TIME  *         0.79 SEC
 DISK USED  *        36.24 MB
 **********************************************************************************************************************************


 PROGRAM * RHF-SCF (CLOSED SHELL)       Authors: W. Meyer, H.-J. Werner


 NUMBER OF ELECTRONS:       8+    8-    SPACE SYMMETRY=1    SPIN SYMMETRY: Singlet 
 CONVERGENCE THRESHOLDS:    1.00E-05 (Density)    1.00E-07 (Energy)
 MAX. NUMBER OF ITERATIONS:       60
 INTERPOLATION TYPE:            DIIS
 INTERPOLATION STEPS:              2 (START)      1 (STEP)
 LEVEL SHIFTS:                  0.00 (CLOSED)  0.00 (OPEN) 



 Orbital guess generated from atomic densities. Full valence occupancy:    8

 Molecular orbital dump at record        2100.2

 Initial occupancy:   8

 ITERATION    DDIFF          GRAD             ENERGY        2-EL.EN.            DIPOLE MOMENTS         DIIS   ORB.
    1      0.000D+00      0.000D+00       -77.82625256    115.848436   -0.15501    0.02221    0.18458    0    start
    2      0.000D+00      0.706D-02       -77.84418017    114.837191   -0.11104    0.00459    0.07995    1    diag
    3      0.766D-02      0.237D-02       -77.84627243    115.242065   -0.17195    0.03836    0.16507    2    diag
    4      0.302D-02      0.108D-02       -77.84678524    115.145099   -0.14173    0.01586    0.11193    3    diag
    5      0.169D-02      0.451D-03       -77.84690734    115.121982   -0.16045    0.02637    0.13666    4    diag
    6      0.643D-03      0.241D-03       -77.84699287    115.131529   -0.16072    0.02384    0.13354    5    diag
    7      0.746D-03      0.994D-04       -77.84702056    115.132577   -0.16232    0.02342    0.13461    6    diag
    8      0.498D-03      0.306D-04       -77.84702288    115.133639   -0.16211    0.02347    0.13450    7    diag
    9      0.149D-03      0.100D-04       -77.84702306    115.133845   -0.16186    0.02349    0.13445    8    diag
   10      0.402D-04      0.314D-05       -77.84702308    115.133832   -0.16174    0.02353    0.13438    9    orth
   11      0.978D-05      0.783D-06       -77.84702308    115.133836   -0.16173    0.02353    0.13439    0    orth

 Final occupancy:   8

 !RHF STATE  1.1 Energy               -77.847023075735
 Nuclear energy                        32.32297022
 One-electron energy                 -167.73691123
 Two-electron energy                   57.56691793
 Virial quotient                       -1.00143423
 !RHF STATE  1.1 Dipole moment         -0.16172744     0.02353164     0.13438641
 Dipole moment /Debye                  -0.41104323     0.05980755     0.34155380

 ELECTRON ORBITALS
 =================

  Orbital  Occupation    Energy     Coefficients
    1.1     2.00000   -11.26745     1 1s    0.99580
    2.1     2.00000   -11.25385     2 1s    0.99585
    3.1     2.00000    -1.03746     1 1s    0.28776     2 1s    0.27758
    4.1     2.00000    -0.78309     1 1s   -0.29579     2 1s    0.29108
    5.1     2.00000    -0.62212     1 2py   0.33383     2 2py   0.27723
    6.1     2.00000    -0.55789     1 2px  -0.29772     2 2px   0.29515
    7.1     2.00000    -0.39240     1 2pz   0.28371     1 2pz   0.27043     2 2pz   0.32450     2 2pz   0.29008
    8.1     2.00000    -0.38728     2 2px   0.28323     4 1s    0.27467     5 1s    0.29352
    9.1     0.00000     0.06341     1 1s    0.40536     1 2pz   0.34331     1 2pz   0.49101     2 1s    0.38961     2 2pz  -0.31635
                                    2 2pz  -0.44585
   10.1     0.00000     0.23119     1 1s   -0.95747     1 2px   0.53118     1 2py   0.41416     1 2pz   0.35037     2 1s   -1.21533
                                    2 2px  -0.41967     2 2py  -0.32945     2 2pz  -0.51124     3 1s    0.49054     4 1s    1.12823
                                    5 1s    1.04226     6 1s    0.63719
   11.1     0.00000     0.27883     1 1s   -1.65625     1 2py  -0.41090     1 2pz   0.44931     2 1s    1.37680     2 2py  -0.30321
                                    2 2pz   0.43280     3 1s    1.57240     6 1s   -1.28231
   12.1     0.00000     0.31190     1 1s   -0.53378     1 2px   0.44093     1 2py  -0.98344     1 2pz   0.33296     2 1s   -0.91729
                                    2 2px  -0.32581     2 2py   1.01646     2 2pz  -0.56130     3 1s    1.42459     4 1s   -0.45719
                                    5 1s   -0.39684     6 1s    1.63156
   13.1     0.00000     0.33484     1 1s    1.02379     1 2px  -0.25570     1 2py  -0.75809     1 2pz  -0.28544     2 1s   -1.09392
                                    2 2px  -0.30497     2 2py  -0.75777     2 2pz  -0.35905     4 1s   -1.66162     5 1s    1.72622
   14.1     0.00000     0.42334     1 1s    1.96411     1 2px   1.83282     1 2py  -0.68619     1 2pz  -0.80764     2 1s   -2.15532
                                    2 2px   1.74757     2 2py  -0.57423     2 2pz  -0.79823     3 1s    0.79029     6 1s   -0.44406
   15.1     0.00000     0.70270     1 2px   0.52379     1 2pz  -0.25257     1 2px  -0.95981     2 2px  -0.56607     2 2px   0.87021
                                    3 1s   -0.30725     4 1s    0.41228     5 1s    0.43824
   16.1     0.00000     0.75824     1 2px  -0.66819     1 2py   0.38463     2 1s    0.35878     2 2py  -0.54505     2 2px  -0.46051
                                    2 2py   1.05639     3 1s   -0.45638     5 1s   -0.35620     6 1s    0.46970
   17.1     0.00000     0.78994     1 2py  -0.54825     1 2pz  -0.67201     1 2px  -0.32689     1 2py   1.25686     1 2pz   0.71256
                                    2 1s    0.50353     2 2py   0.32485     2 2py  -0.63474     2 2pz   0.25769     4 1s    0.35847
   18.1     0.00000     0.80459     1 2py  -0.36036     1 2pz   0.42103     1 2px  -0.40875     1 2py   0.77171     1 2pz  -0.33837
                                    2 2py   0.32085     2 2pz   0.76999     2 2py  -0.62011     2 2pz  -0.71310     3 1s   -0.33808
   19.1     0.00000     0.86590     1 1s   -0.36849     1 1s    0.38787     1 2px  -0.29684     1 2pz  -0.67378     1 2px   0.72774
                                    1 2py  -0.72482     1 2pz   0.86107     2 1s   -0.31771     2 2pz   0.66945     2 2py   0.44684
                                    2 2pz  -1.02952     3 1s    0.32983
   20.1     0.00000     0.97062     1 2px   0.66259     1 2py   0.41256     1 2px  -1.11312     1 2py  -0.82096     2 1s    0.31040
                                    2 2px   0.74427     2 2py   0.32828     2 2px  -1.13210     2 2py  -0.73985     4 1s   -1.11237
                                    5 1s    0.94342
   21.1     0.00000     1.11767     1 1s   -0.66134     1 1s    1.34644     1 2py   0.52740     1 2py  -0.62104     1 2pz  -0.25186
                                    2 1s   -0.67764     2 1s    1.08236     2 2px  -0.41462     2 2px   0.65839     3 1s   -0.32540
                                    3 1s    0.33570     4 1s    0.62761     4 1s   -1.21478     5 1s    0.58094     5 1s   -1.04619
                                    6 1s   -0.43344
   22.1     0.00000     1.13102     1 1s    0.32546     1 2px   0.36389     1 2py  -0.41389     1 2px  -0.68543     1 2py   0.76874
                                    2 1s    0.27960     2 2px   0.29191     2 2py  -0.74114     2 2px  -0.42998     2 2py   1.00756
                                    3 1s    0.26652     3 1s   -1.01246     4 1s    0.33248     5 1s    0.53156     5 1s   -1.05650
                                    6 1s   -0.64018     6 1s    1.25064
   23.1     0.00000     1.15290     1 1s   -0.72829     1 2px   0.45681     1 2px  -0.99018     1 2pz   0.36361     2 1s    0.88597
                                    2 2px  -0.83990     2 2py   0.25395     3 1s    0.83990     3 1s   -0.90551     4 1s    0.77636
                                    4 1s   -0.62728     5 1s   -0.32434     5 1s    0.48034
   24.1     0.00000     1.19877     1 1s   -0.63995     1 1s    1.27099     1 2py  -0.43634     1 2py   0.44614     1 2pz  -0.28962
                                    2 1s   -0.98288     2 1s    1.39983     2 2pz  -0.35732     2 2px   0.59898     2 2py  -0.34597
                                    2 2pz   0.47706     3 1s    0.40468     3 1s   -0.92465     4 1s   -0.51070     4 1s    0.39907
                                    5 1s    0.27085     5 1s   -0.57843     6 1s    0.64627     6 1s   -1.32377
   25.1     0.00000     1.22809     1 1s   -1.91646     1 1s    4.40803     1 2pz   0.27352     1 2pz  -1.24484     2 1s    0.40409
                                    2 1s   -1.72366     2 2px   0.81565     2 2py  -0.81740     3 1s   -1.06412     4 1s   -0.96094
                                    5 1s   -0.42975     5 1s    0.52466     6 1s   -0.36326
   26.1     0.00000     1.34493     1 1s    0.41673     1 1s   -2.73045     1 2px  -1.42673     1 2py   0.91719     1 2pz   0.38580
                                    2 1s   -1.87124     2 1s    5.36564     2 2px  -0.83198     2 2py   0.30996     2 2pz   1.70750
                                    5 1s   -0.59437     5 1s   -0.66472     6 1s   -0.52642     6 1s   -0.74457
   27.1     0.00000     1.69587     1 1s   -0.57264     1 3d0  -0.34901     1 3d2-  0.30409     1 3d2+  0.33773     2 1s    0.70936
                                    2 3d0   0.35486     2 3d2- -0.28333     2 3d2+ -0.31022
   28.1     0.00000     1.91319     1 1s    0.27875     1 2px   0.41347     1 3d0   0.26891     1 3d1+  0.45298     1 3d2+  0.36218
                                    1 3d1-  0.48015     2 1s    0.50775     2 1s   -1.50752     2 2pz  -0.58443     2 3d0   0.37778
                                    5 1s    0.25520     6 1s    0.35359     6 1s    0.27846
   29.1     0.00000     1.93809     1 1s    0.33762     1 1s   -1.35008     1 2pz   0.39727     2 1s    0.86914     2 2px  -0.33578
                                    2 2py   0.26074     2 3d2- -0.35588     2 3d1+  0.51403     2 3d2+  0.32481     2 3d1-  0.44768
                                    3 1s    0.40819
   30.1     0.00000     2.16619     1 1s    1.30300     1 2pz  -0.34150     1 3d0  -0.43814     1 3d2+ -0.44566     2 1s    0.46543
                                    2 1s   -1.53332     2 2px   0.40093     2 2py  -0.32364     2 2pz  -0.41979     2 3d0   0.62888
                                    2 3d2+  0.26027     3 1s   -0.36533     4 1s   -0.26499     5 1s    0.29938     6 1s    0.27470
   31.1     0.00000     2.25606     1 1s   -0.57656     1 1s    0.89684     1 2px   0.48454     1 2py  -0.32995     1 2pz  -0.27112
                                    1 3d0  -0.28999     1 3d2- -0.27905     1 3d1+ -0.45109     1 3d2+  0.30121     2 1s   -0.36490
                                    2 1s   -0.28961     2 2px   0.27263     2 3d2- -0.27251     2 3d1+ -0.35228     2 3d2+  0.43944
                                    5 1s    0.25707
   32.1     0.00000     2.34685     1 1s   -0.49522     1 2px  -0.39024     1 2py   0.48808     1 3d0   0.57498     1 3d2- -0.43249
                                    1 3d1- -0.41430     2 1s    0.47272     2 2pz   0.27718     2 3d0   0.41608     2 3d2- -0.32923
                                    2 3d1- -0.28977     3 1s   -0.26502     4 1s    0.51325     5 1s    0.28842     6 1s   -0.28085
   33.1     0.00000     2.57669     1 1s   -0.32761     1 2py   0.29140     1 3d2- -0.29017     1 3d2+  0.26394     1 3d1- -0.57294
                                    2 2py   0.26624     2 3d2-  0.60507     2 3d1-  0.56953     3 1s   -0.31309     4 1s    0.44576
                                    5 1s   -0.34939     6 1s    0.57878
   34.1     0.00000     2.64956     1 2py  -0.28990     1 3d2- -0.51043     1 3d2+ -0.48394     1 3d1-  0.38560     2 2py   0.38118
                                    2 3d2- -0.28828     2 3d2+ -0.49792     2 3d1-  0.67629     4 1s   -0.27984     5 1s   -0.45114
   35.1     0.00000     2.71193     1 3d0  -0.44497     1 3d2- -0.54818     1 3d1+  0.56327     1 3d1- -0.26349     2 3d0  -0.40426
                                    2 3d2- -0.44204     2 3d1+  0.40663     3 1s   -0.55778     6 1s   -0.31719
   36.1     0.00000     2.96338     1 1s    1.69417     1 2px   0.43176     1 2px   0.86013     1 2pz  -0.43748     1 3d2- -0.39111
                                    1 3d1+ -0.65303     1 3d2+  0.64077     2 1s   -1.72413     2 2px   0.43042     2 2px   0.87189
                                    2 2pz  -0.43729     2 3d2-  0.31529     2 3d1+  0.72990     2 3d2+ -0.64523


 HOMO      8.1    -0.387282 =     -10.5385eV
 LUMO      9.1     0.063406 =       1.7254eV
 LUMO-HOMO         0.450689 =      12.2639eV


 **********************************************************************************************************************************
 DATASETS  * FILE   NREC   LENGTH (MB)   RECORD NAMES
              1      19       31.13       500      610      700      900      950      970     1000      129      960     1100   
                                          VAR    BASINP    GEOM    SYMINP    ZMAT    AOBASIS   BASIS     P2S    ABASIS      S 
                                         1400     1410     1200     1210     1080     1600     1650     1300     1700   
                                           T        V       H0       H01     AOSYM     SMH    MOLCAS    ERIS     OPER   

              2       4        2.86       700     1000      520     2100   
                                         GEOM     BASIS   MCVARS     RHF  

 PROGRAMS   *        TOTAL    HF-SCF       INT
 CPU TIMES  *         0.50      0.14      0.26
 REAL TIME  *         0.98 SEC
 DISK USED  *        36.24 MB
 **********************************************************************************************************************************


 PROGRAM * MULTI (Direct Multiconfiguration SCF)       Authors: P.J. Knowles, H.-J. Werner (1984)


 Number of closed-shell orbitals:   7 (   7 )
 Number of active  orbitals:        2 (   2 )
 Number of external orbitals:      27 (  27 )

 State symmetry 1

 Number of electrons:     2    Spin symmetry=Singlet   Space symmetry=1
 Number of states:        3
 Number of CSFs:          3   (4 determinants, 4 intermediate states)

 Molecular orbitals read from record     2100.2  Type=RHF/CANONICAL (state 1.1)

 Wavefunction dump at record             2140.2

 Convergence thresholds  0.10E-01 (gradient)  0.10E-05 (energy)  0.10E-02 (step length)

 Weight factors for state symmetry  1:    0.33333   0.33333   0.33333

 Number of orbital rotations:      257   (    14 Core/Active    189 Core/Virtual   0 Active/Active     54 Active/Virtual)
 Total number of variables:        269

 Micro-Iterations solved by the two-step solver

 ITER. MIC  NCI  NEG     ENERGY(VAR)     ENERGY(PROJ)   ENERGY CHANGE     GRAD(0)  GRAD(ORB)   GRAD(CI)     STEP       TIME

   1   12    6    0     -77.68859365     -77.70946192   -0.02086827    0.16648853 0.00141991 0.00000000  0.15D+00      0.16
   2    7    5    0     -77.70905207     -77.70910419   -0.00005212    0.01085508 0.00002412 0.00000000  0.67D-02      0.26
   3    8    5    0     -77.70910431     -77.70910431   -0.00000000    0.00003646 0.00000000 0.00000000  0.41D-04      0.36

 ** WVFN ****  CONVERGENCE REACHED, FINAL GRADIENT:  0.80D-09



 Results for state 1.1
 =====================

 !MCSCF STATE  1.1 Energy             -77.840649445045
 Nuclear energy                        32.32297022
 Kinetic energy                        77.78997521
 One electron energy                 -167.81167205
 Two electron energy                   57.64805238
 Virial ratio                           2.00065142

 !MCSCF STATE  1.1 Dipole moment       -0.17328147     0.02502769     0.15100621
 Dipole moment /Debye                  -0.44040872     0.06360987     0.38379435

 Results for state 2.1
 =====================

 !MCSCF STATE  2.1 Energy             -77.736778935135
 Nuclear energy                        32.32297022
 Kinetic energy                        77.86607937
 One electron energy                 -167.51177203
 Two electron energy                   57.45202287
 Virial ratio                           1.99833945

 !MCSCF STATE  2.1 Dipole moment       -0.11844804     0.02371332     0.11736389
 Dipole moment /Debye                  -0.30104516     0.06026929     0.29828972

 Results for state 3.1
 =====================

 !MCSCF STATE  3.1 Energy             -77.549884561550
 Nuclear energy                        32.32297022
 Kinetic energy                        77.92779102
 One electron energy                 -167.25727312
 Two electron energy                   57.38441833
 Virial ratio                           1.99515056

 !MCSCF STATE  3.1 Dipole moment       -0.06013189     0.02849743     0.08985855
 Dipole moment /Debye                  -0.15283000     0.07242851     0.22838269

 State-averaged charge density matrix saved on record  2140.2 (density set 1)

 !MCSCF expec         <1.1|DMX|1.1>    -0.173281468778 au =    -0.440408715416 Debye
 !MCSCF trans         <2.1|DMX|1.1>     0.009716870909 au =     0.024696204764 Debye
 !MCSCF expec         <2.1|DMX|2.1>    -0.118448035748 au =    -0.301045158696 Debye
 !MCSCF trans         <3.1|DMX|1.1>    -0.004749817349 au =    -0.012072040779 Debye
 !MCSCF trans         <3.1|DMX|2.1>     0.006322880680 au =     0.016070107080 Debye
 !MCSCF expec         <3.1|DMX|3.1>    -0.060131887586 au =    -0.152830002852 Debye

 !MCSCF expec         <1.1|DMY|1.1>     0.025027687811 au =     0.063609870786 Debye
 !MCSCF trans         <2.1|DMY|1.1>     0.013283423805 au =     0.033760884275 Debye
 !MCSCF expec         <2.1|DMY|2.1>     0.023713316271 au =     0.060269290369 Debye
 !MCSCF trans         <3.1|DMY|1.1>     0.000857388236 au =     0.002179120792 Debye
 !MCSCF trans         <3.1|DMY|2.1>     0.014468159138 au =     0.036771983901 Debye
 !MCSCF expec         <3.1|DMY|3.1>     0.028497434615 au =     0.072428509868 Debye

 !MCSCF expec         <1.1|DMZ|1.1>     0.151006206346 au =     0.383794353925 Debye
 !MCSCF trans         <2.1|DMZ|1.1>     0.012128164677 au =     0.030824700779 Debye
 !MCSCF expec         <2.1|DMZ|2.1>     0.117363891750 au =     0.298289719995 Debye
 !MCSCF trans         <3.1|DMZ|1.1>     0.003909307539 au =     0.009935817856 Debye
 !MCSCF trans         <3.1|DMZ|2.1>     0.015687229504 au =     0.039870348762 Debye
 !MCSCF expec         <3.1|DMZ|3.1>     0.089858549392 au =     0.228382691964 Debye


 NATURAL ORBITALS (state averaged)
 =================================

  Orbital  Occupation    Energy     Coefficients
    1.1     2.00000   -11.25767     1 1s    0.99348
    2.1     2.00000   -11.25266     2 1s    0.99354
    3.1     2.00000    -1.05000     1 1s    0.27924     2 1s    0.27583
    4.1     2.00000    -0.78347     1 1s   -0.32448     2 1s    0.31423
    5.1     2.00000    -0.62440     1 2py   0.31881     2 2py   0.28080
    6.1     2.00000    -0.55656     1 2px  -0.25674     2 2px   0.25655     2 2py  -0.26529
    7.1     2.00000    -0.41961     1 2pz   0.31151     1 2pz   0.27328     2 2pz   0.33472     2 2pz   0.28326
    8.1     1.00000    -0.08667     1 1s    0.26901     1 2pz   0.41971     1 2pz   0.44514     2 1s    0.26498     2 2pz  -0.38733
                                    2 2pz  -0.41291
    9.1     1.00000    -0.23112     1 2px  -0.30564     2 2px   0.31153     4 1s    0.29085     5 1s    0.29820
   10.1    -0.00000     0.21925     1 1s   -0.96706     1 2px   0.51693     1 2py   0.42346     1 2pz   0.29316     2 1s   -1.22319
                                    2 2px  -0.42629     2 2py  -0.35005     2 2pz  -0.45390     3 1s    0.46046     4 1s    1.12003
                                    5 1s    1.07068     6 1s    0.60549
   11.1    -0.00000     0.27825     1 1s   -1.72171     1 2py  -0.30827     1 2pz   0.44164     2 1s    1.49640     2 2py  -0.28525
                                    2 2pz   0.48107     3 1s    1.50056     6 1s   -1.34103
   12.1    -0.00000     0.31427     1 1s   -0.80679     1 2px   0.45754     1 2py  -0.85470     1 2pz   0.36803     2 1s   -0.73404
                                    2 2px  -0.30150     2 2py   1.10749     2 2pz  -0.45908     3 1s    1.46499     5 1s   -0.60799
                                    6 1s    1.59248
   13.1    -0.00000     0.31923     1 1s    0.92246     1 2py  -0.25597     1 2py  -0.99182     1 2pz  -0.25568     2 1s   -1.23468
                                    2 2py  -0.66740     2 2pz  -0.43915     3 1s    0.40129     4 1s   -1.72938     5 1s    1.65589
   14.1    -0.00000     0.42940     1 1s    1.82480     1 2px   1.84082     1 2py  -0.57853     1 2pz  -0.75181     2 1s   -2.01339
                                    2 2px   1.76160     2 2py  -0.47153     2 2pz  -0.73713     3 1s    0.79036     6 1s   -0.44882
   15.1    -0.00000     0.69931     1 2px   0.50723     1 2px  -0.92694     2 2px  -0.55511     2 2px   0.86174     3 1s   -0.30177
                                    4 1s   -0.27940     4 1s    0.47692     5 1s    0.48712
   16.1    -0.00000     0.75381     1 1s   -0.28030     1 2px  -0.66217     1 2py   0.32728     2 1s    0.42898     2 2py  -0.54932
                                    2 2px  -0.51422     2 2py   1.11411     3 1s   -0.43176     5 1s   -0.38489     6 1s    0.47286
   17.1    -0.00000     0.79055     1 1s   -0.28241     1 2py  -0.51177     1 2pz  -0.67718     1 2px  -0.40815     1 2py   1.24320
                                    1 2pz   0.82189     2 1s    0.62179     2 2py   0.28112     2 2py  -0.53494     2 2pz   0.28330
                                    4 1s    0.36612
   18.1    -0.00000     0.80522     1 1s    0.29986     1 2py  -0.37531     1 2pz   0.38490     1 2px  -0.38384     1 2py   0.78364
                                    1 2pz  -0.30423     2 2py   0.29527     2 2pz   0.77113     2 2py  -0.61399     2 2pz  -0.80758
                                    3 1s   -0.34249
   19.1    -0.00000     0.86417     1 1s   -0.32663     1 1s    0.31634     1 2px  -0.30904     1 2pz  -0.65866     1 2px   0.77368
                                    1 2py  -0.74690     1 2pz   0.91900     2 1s   -0.27534     2 2pz   0.62926     2 2px  -0.26200
                                    2 2py   0.46120     2 2pz  -1.06747     3 1s    0.38414
   20.1    -0.00000     0.97685     1 2px   0.66060     1 2py   0.41636     1 2px  -1.03726     1 2py  -0.83469     2 2px   0.73859
                                    2 2py   0.32858     2 2px  -1.04104     2 2py  -0.75333     4 1s   -1.06676     5 1s    0.89984
   21.1    -0.00000     1.09313     1 1s   -0.63149     1 1s    1.16495     1 2py   0.43782     1 2px  -0.26767     1 2py  -0.44584
                                    2 1s   -0.67257     2 1s    1.19785     2 2px  -0.35962     2 2py  -0.38189     2 2px   0.46107
                                    2 2py   0.38890     4 1s    0.64582     4 1s   -1.11606     5 1s    0.66331     5 1s   -1.19320
   22.1    -0.00000     1.11419     1 2py  -0.49820     1 2py   0.72017     2 2py  -0.63278     2 2py   0.71834     3 1s   -0.44769
                                    4 1s   -0.71092     4 1s    0.96288     5 1s    0.63474     5 1s   -1.16292     6 1s   -0.42637
                                    6 1s    0.71947
   23.1    -0.00000     1.14448     1 1s   -0.84829     1 2px   0.54108     1 2px  -1.19043     1 2py   0.59116     1 2pz   0.36917
                                    2 1s    0.44453     2 2px   0.32864     2 2py  -0.28025     2 2px  -1.16696     2 2py   0.74028
                                    3 1s    0.81222     3 1s   -1.19786     4 1s    0.48371     6 1s   -0.34284     6 1s    1.13110
   24.1    -0.00000     1.19472     1 1s   -0.26730     1 2px   0.26206     1 2py  -0.38532     1 2px  -0.30047     1 2py   0.43301
                                    2 1s   -1.02056     2 1s    1.90769     2 2pz  -0.30099     2 2pz   0.41060     3 1s    0.59333
                                    3 1s   -0.68466     4 1s    0.47370     5 1s   -0.42915     6 1s    0.79961     6 1s   -1.25102
   25.1    -0.00000     1.22056     1 1s   -2.04438     1 1s    4.55797     1 2pz  -1.23898     2 1s   -1.03170     2 2px   0.91649
                                    2 2py  -0.80392     3 1s   -1.35157     4 1s   -0.79742     5 1s   -0.29375     6 1s   -0.41815
   26.1    -0.00000     1.33538     1 1s    0.46603     1 1s   -2.83717     1 2px  -1.44199     1 2py   0.91401     1 2pz   0.41112
                                    2 1s   -1.89883     2 1s    5.44156     2 2px  -0.85916     2 2py   0.31367     2 2pz   1.70467
                                    5 1s   -0.56108     5 1s   -0.69471     6 1s   -0.52378     6 1s   -0.74386
   27.1    -0.00000     1.69084     1 1s   -0.59930     1 3d0  -0.34142     1 3d2-  0.30704     1 3d2+  0.33839     2 1s    0.74252
                                    2 3d0   0.34943     2 3d2- -0.28924     2 3d2+ -0.31352
   28.1    -0.00000     1.91172     1 2px   0.40892     1 2py  -0.25005     1 3d0   0.27308     1 3d1+  0.43888     1 3d2+  0.36696
                                    1 3d1-  0.46778     2 1s    0.48810     2 1s   -1.44778     2 2pz  -0.56857     2 3d0   0.38491
                                    2 3d2+  0.26303     6 1s    0.34702     6 1s    0.27431
   29.1    -0.00000     1.93355     1 1s    0.32059     1 1s   -1.32311     1 2pz   0.38269     2 1s    0.90584     2 2px  -0.33104
                                    2 2py   0.25959     2 3d2- -0.36181     2 3d1+  0.50753     2 3d2+  0.31804     2 3d1-  0.44035
                                    3 1s    0.40597
   30.1    -0.00000     2.16590     1 1s    1.28314     1 2pz  -0.33447     1 3d0  -0.43935     1 3d2+ -0.45406     2 1s    0.47016
                                    2 1s   -1.51151     2 2px   0.39845     2 2py  -0.32710     2 2pz  -0.41002     2 3d0   0.62999
                                    2 3d2+  0.25383     3 1s   -0.36314     4 1s   -0.26224     5 1s    0.28932     6 1s    0.27113
   31.1    -0.00000     2.25242     1 1s   -0.57053     1 1s    0.88264     1 2px   0.45960     1 2py  -0.29974     1 2pz  -0.27349
                                    1 3d0  -0.27635     1 3d2- -0.29771     1 3d1+ -0.45250     1 3d2+  0.29372     2 1s   -0.35563
                                    2 1s   -0.26817     2 2px   0.27195     2 3d2- -0.28619     2 3d1+ -0.36767     2 3d2+  0.44243
                                    5 1s    0.27220
   32.1    -0.00000     2.34107     1 1s   -0.54084     1 2px  -0.41729     1 2py   0.51102     1 3d0   0.58196     1 3d2- -0.42557
                                    1 3d1- -0.42828     2 1s    0.48695     2 2pz   0.28292     2 3d0   0.41094     2 3d2- -0.32289
                                    2 3d1- -0.30301     3 1s   -0.27238     4 1s    0.50212     5 1s    0.27369     6 1s   -0.30032
   33.1    -0.00000     2.57055     1 1s   -0.31822     1 2py   0.29710     1 3d2- -0.28705     1 3d2+  0.27146     1 3d1- -0.58010
                                    2 2py   0.26114     2 3d2-  0.61059     2 3d1-  0.56252     3 1s   -0.31277     4 1s    0.44075
                                    5 1s   -0.33651     6 1s    0.58069
   34.1    -0.00000     2.64172     1 2py  -0.29315     1 3d2- -0.52330     1 3d2+ -0.47670     1 3d1-  0.38165     2 2py   0.38753
                                    2 3d2- -0.28852     2 3d2+ -0.49060     2 3d1-  0.68167     4 1s   -0.26895     5 1s   -0.44095
   35.1    -0.00000     2.71707     1 3d0  -0.45219     1 3d2- -0.53457     1 3d1+  0.57187     1 3d1- -0.26815     2 3d0  -0.41216
                                    2 3d2- -0.42964     2 3d1+  0.40722     3 1s   -0.55639     6 1s   -0.31353
   36.1    -0.00000     2.95929     1 1s    1.72423     1 2px   0.42491     1 2px   0.87165     1 2pz  -0.44496     1 3d2- -0.39188
                                    1 3d1+ -0.65452     1 3d2+  0.63915     2 1s   -1.75235     2 2px   0.42445     2 2px   0.88303
                                    2 2py  -0.25546     2 2pz  -0.44506     2 3d2-  0.31066     2 3d1+  0.73333     2 3d2+ -0.64098


 Natural orbital dump (state averaged) at molpro section  2140.2    (Orbital set 2)



 **********************************************************************************************************************************
 DATASETS  * FILE   NREC   LENGTH (MB)   RECORD NAMES
              1      20       31.86       500      610      700      900      950      970     1000      129      960     1100   
                                          VAR    BASINP    GEOM    SYMINP    ZMAT    AOBASIS   BASIS     P2S    ABASIS      S 
                                         1400     1410     1200     1210     1080     1600     1650     1300     1700     1380   
                                           T        V       H0       H01     AOSYM     SMH    MOLCAS    ERIS     OPER     JKOP   

              2       5        5.42       700     1000      520     2100     2140   
                                         GEOM     BASIS   MCVARS     RHF     MCSCF   

 PROGRAMS   *        TOTAL     MULTI    HF-SCF       INT
 CPU TIMES  *         0.93      0.43      0.14      0.26
 REAL TIME  *         1.50 SEC
 DISK USED  *        39.04 MB
 **********************************************************************************************************************************
 Molecular orbitals read from record     2140.2  Type=MCSCF/NATURAL (state averaged)
 Occupation numbers read from record     2140.2  Type=MCSCF/NATURAL (state averaged)
 Orbital energies read from record       2140.2  Type=MCSCF/NATURAL (state averaged)
 Redundancy group numbers read from rec  2140.2  Type=MCSCF/NATURAL (state averaged)

 MULTI/6-31G* energy=    -77.549884561550

           MULTI          HF-SCF
    -77.54988456    -77.84702308
 **********************************************************************************************************************************
 Molpro calculation terminated
