
 Primary working directories    : /scratch.local/johan406.molpro_temp/molpro.XRKEFAbwEe
 Secondary working directories  : /scratch.local/johan406.molpro_temp/molpro.XRKEFAbwEe
 Wavefunction directory         : /home/goodpast/johan406/wfu/
 Main file repository           : /scratch.local/johan406.molpro_temp/molpro.XRKEFAbwEe/

 id        : roweumn

 Nodes     nprocs
 cn0391       1

 Using customized tuning parameters: mindgm=1; mindgv=20; mindgc=4; mindgr=1; noblas=0; minvec=7
 default implementation of scratch files=df  


 Variables initialized (934), CPU time= 0.01 sec
                                                                                 !leave this line blank
 
 gprint, orbitals=30
 memory, 125., m
 symmetry, nosym
 nelect=16
 basis=6-31g*
 
 geometry={
 C -0.6194 0.1401 0.2845
 C 0.6424 -0.1852 -0.3732
 H -1.3615 0.8917 -0.0252
 H -0.9433 -0.8851 -0.1068
 H 0.99 0.7974 0.1077
 H 1.1816 -0.9511 0.2243
 }
 
 hf
 {multi,
 closed 7
 occ 9
 wf,spin=0;STATE,3
 }
 
 Commands  initialized (763), CPU time= 0.01 sec, 617 directives.
 Default parameters read. Elapsed time= 0.07 sec

 Checking input...
 Passed
1


                                         ***  PROGRAM SYSTEM MOLPRO  ***
                                       Copyright, TTI GmbH Stuttgart, 2015
                                    Version 2019.2 linked Oct 25 2019 22:50:27


 **********************************************************************************************************************************
 LABEL *                                                                                 
  64 bit serial version                                                                  DATE: 07-Feb-23          TIME: 15:13:41  
 **********************************************************************************************************************************

 SHA1:             8dbd9ae1082e4ce945b0f27595c9eb2d4aa09004
 **********************************************************************************************************************************


 Variable memory set to  125000000 words,  buffer space 

 SETTING NELECT         =        16.00000000                                  
 SETTING BASIS          =    6-31G*
 ZSYMEL=NOSYM


Geometry recognized as XYZ



 Recomputing integrals since basis changed


 Using spherical harmonics

 Library entry C      S 6-31G                selected for orbital group  1
 Library entry C      P 6-31G                selected for orbital group  1
 Library entry C      D 6-31G*               selected for orbital group  1
 Library entry H      S 6-31G                selected for orbital group  2


 PROGRAM * SEWARD (Integral evaluation for generally contracted gaussian basis sets)     Author: Roland Lindh, 1990

 Geometry written to block  1 of record 700


 Point group  C1  



 ATOMIC COORDINATES

 NR  ATOM    CHARGE       X              Y              Z

   1  C       6.00   -1.170496362    0.264750630    0.537627082
   2  C       6.00    1.213960062   -0.349977278   -0.705245790
   3  H       1.00   -2.572862119    1.685068785   -0.047621098
   4  H       1.00   -1.782578653   -1.672596593   -0.201822750
   5  H       1.00    1.870828863    1.506867612    0.203523504
   6  H       1.00    2.232900389   -1.797318517    0.423865570

 Bond lengths in Bohr (Angstrom)

 1-2  2.758306693  1-3  2.080011734  1-4  2.162115873  2-5  2.169149879  2-6  2.099506731
     ( 1.459633043)     ( 1.100694808)     ( 1.144142447)     ( 1.147864683)     ( 1.111011116)

 Bond angles

  1-2-5   83.23633989   1-2-6  109.32056402   2-1-3  127.46157890   2-1-4   83.73799584

  3-1-4  108.95110638   5-2-6  102.58221602

 NUCLEAR CHARGE:                   16
 NUMBER OF PRIMITIVE AOS:          72
 NUMBER OF SYMMETRY AOS:           70
 NUMBER OF CONTRACTIONS:           36   (   36A   )
 NUMBER OF CORE ORBITALS:           2   (    2A   )
 NUMBER OF VALENCE ORBITALS:       12   (   12A   )


 NUCLEAR REPULSION ENERGY   32.28333918

 Eigenvalues of metric

         1 0.893E-02 0.290E-01 0.581E-01 0.648E-01 0.839E-01 0.222E+00 0.237E+00 0.273E+00


 Contracted 2-electron integrals neglected if value below      1.0D-11
 AO integral compression algorithm  1   Integral accuracy      1.0D-11

     1.573 MB (compressed) written to integral file ( 59.1%)


 NUMBER OF SORTED TWO-ELECTRON INTEGRALS:     222111.     BUFFER LENGTH:  32768
 NUMBER OF SEGMENTS:   1  SEGMENT LENGTH:     222111      RECORD LENGTH: 524288

 Memory used in sort:       0.78 MW

 SORT1 READ      284735. AND WROTE      212530. INTEGRALS IN      1 RECORDS. CPU TIME:     0.00 SEC, REAL TIME:     0.01 SEC
 SORT2 READ      212530. AND WROTE      222111. INTEGRALS IN      6 RECORDS. CPU TIME:     0.03 SEC, REAL TIME:     0.02 SEC

 FILE SIZES:   FILE 1:    31.7 MBYTE,  FILE 4:     4.2 MBYTE,   TOTAL:     35.9 MBYTE

 OPERATOR DM      FOR CENTER  0  COORDINATES:    0.000000    0.000000    0.000000


 **********************************************************************************************************************************
 DATASETS  * FILE   NREC   LENGTH (MB)   RECORD NAMES
              1      19       31.13       500      610      700      900      950      970     1000      129      960     1100   
                                          VAR    BASINP    GEOM    SYMINP    ZMAT    AOBASIS   BASIS     P2S    ABASIS      S 
                                         1400     1410     1200     1210     1080     1600     1650     1300     1700   
                                           T        V       H0       H01     AOSYM     SMH    MOLCAS    ERIS     OPER   

 PROGRAMS   *        TOTAL       INT
 CPU TIMES  *         0.37      0.27
 REAL TIME  *         0.69 SEC
 DISK USED  *        36.24 MB
 **********************************************************************************************************************************


 PROGRAM * RHF-SCF (CLOSED SHELL)       Authors: W. Meyer, H.-J. Werner


 NUMBER OF ELECTRONS:       8+    8-    SPACE SYMMETRY=1    SPIN SYMMETRY: Singlet 
 CONVERGENCE THRESHOLDS:    1.00E-05 (Density)    1.00E-07 (Energy)
 MAX. NUMBER OF ITERATIONS:       60
 INTERPOLATION TYPE:            DIIS
 INTERPOLATION STEPS:              2 (START)      1 (STEP)
 LEVEL SHIFTS:                  0.00 (CLOSED)  0.00 (OPEN) 



 Orbital guess generated from atomic densities. Full valence occupancy:    8

 Molecular orbital dump at record        2100.2

 Initial occupancy:   8

 ITERATION    DDIFF          GRAD             ENERGY        2-EL.EN.            DIPOLE MOMENTS         DIIS   ORB.
    1      0.000D+00      0.000D+00       -77.82471915    115.764218   -0.21298    0.03108    0.25373    0    start
    2      0.000D+00      0.709D-02       -77.84259120    114.762923   -0.15152    0.00664    0.10816    1    diag
    3      0.777D-02      0.245D-02       -77.84471148    115.156845   -0.23382    0.05247    0.22328    2    diag
    4      0.308D-02      0.124D-02       -77.84530050    115.079161   -0.19742    0.02504    0.15848    3    diag
    5      0.176D-02      0.470D-03       -77.84543653    115.044430   -0.21765    0.03584    0.18365    4    diag
    6      0.695D-03      0.242D-03       -77.84552288    115.054407   -0.21979    0.03352    0.18189    5    diag
    7      0.765D-03      0.979D-04       -77.84554913    115.055258   -0.22179    0.03290    0.18314    6    diag
    8      0.477D-03      0.318D-04       -77.84555166    115.056355   -0.22157    0.03296    0.18304    7    diag
    9      0.152D-03      0.113D-04       -77.84555188    115.056581   -0.22124    0.03299    0.18297    8    diag
   10      0.446D-04      0.366D-05       -77.84555189    115.056579   -0.22107    0.03303    0.18288    9    orth
   11      0.120D-04      0.898D-06       -77.84555189    115.056577   -0.22103    0.03303    0.18285    9    diag
   12      0.280D-05      0.262D-06       -77.84555189    115.056579   -0.22102    0.03303    0.18286    0    orth

 Final occupancy:   8

 !RHF STATE  1.1 Energy               -77.845551894063
 Nuclear energy                        32.28333918
 One-electron energy                 -167.65718036
 Two-electron energy                   57.52828929
 Virial quotient                       -1.00161893
 !RHF STATE  1.1 Dipole moment         -0.22102263     0.03303466     0.18285599
 Dipole moment /Debye                  -0.56174670     0.08396022     0.46474312

 ELECTRON ORBITALS
 =================

  Orbital  Occupation    Energy     Coefficients
    1.1     2.00000   -11.27099     1 1s    0.99602
    2.1     2.00000   -11.25246     2 1s    0.99608
    3.1     2.00000    -1.03769     1 1s    0.28931     2 1s    0.27545
    4.1     2.00000    -0.78201     1 1s   -0.29732     2 1s    0.29073
    5.1     2.00000    -0.62224     1 2py   0.34050     2 2py   0.26648
    6.1     2.00000    -0.55473     1 2px  -0.29586     2 2px   0.29318     2 2py  -0.25211
    7.1     2.00000    -0.39286     1 2pz   0.27344     1 2pz   0.26291     2 2pz   0.32742     2 2pz   0.28871
    8.1     2.00000    -0.38731     2 2px  -0.28268     4 1s   -0.27026     5 1s   -0.29564
    9.1     0.00000     0.06345     1 1s    0.40734     1 2pz   0.34758     1 2pz   0.49907     2 1s    0.38650     2 2pz  -0.31078
                                    2 2pz  -0.43709
   10.1     0.00000     0.23086     1 1s   -0.89926     1 2px   0.54213     1 2py   0.43556     1 2pz   0.31912     2 1s   -1.25261
                                    2 2px  -0.39434     2 2py  -0.31641     2 2pz  -0.53843     3 1s    0.45027     4 1s    1.14183
                                    5 1s    1.02400     6 1s    0.65907
   11.1     0.00000     0.27588     1 1s   -1.66437     1 2py  -0.42348     1 2pz   0.43572     2 1s    1.28148     2 2py  -0.28646
                                    2 2pz   0.41221     3 1s    1.60472     6 1s   -1.21649
   12.1     0.00000     0.31070     1 1s   -0.45731     1 2px   0.44418     1 2py  -0.96279     1 2pz   0.29175     2 1s   -0.94886
                                    2 2px  -0.29760     2 2py   1.01068     2 2pz  -0.59096     3 1s    1.36308     4 1s   -0.46508
                                    5 1s   -0.38956     6 1s    1.63655
   13.1     0.00000     0.33438     1 1s    1.01315     1 2py  -0.75755     1 2pz  -0.27380     2 1s   -1.11095     2 2px  -0.31093
                                    2 2py  -0.75483     2 2pz  -0.37564     4 1s   -1.64672     5 1s    1.73449
   14.1     0.00000     0.42317     1 1s    1.95330     1 2px   1.85457     1 2py  -0.70419     1 2pz  -0.82017     2 1s   -2.21265
                                    2 2px   1.73945     2 2py  -0.55104     2 2pz  -0.80845     3 1s    0.84509     4 1s   -0.25514
                                    6 1s   -0.37221
   15.1     0.00000     0.70277     1 2px   0.51305     1 2pz  -0.26194     1 2px  -0.96335     2 2px  -0.56888     2 2px   0.84365
                                    3 1s   -0.33102     4 1s    0.40586     5 1s    0.44168
   16.1     0.00000     0.75837     1 2px  -0.66190     2 1s    0.36112     2 2py  -0.58319     2 2px  -0.39490     2 2py   1.09830
                                    3 1s   -0.44169     5 1s   -0.37830     6 1s    0.45540
   17.1     0.00000     0.78992     1 2py  -0.47752     1 2pz  -0.75494     1 2px  -0.33095     1 2py   1.13297     1 2pz   0.80453
                                    2 1s    0.53518     2 2pz  -0.28154     2 2py  -0.42976     2 2pz   0.36634     4 1s    0.34280
   18.1     0.00000     0.80892     1 2py  -0.44930     1 2pz   0.27663     1 2px  -0.53147     1 2py   0.98327     2 1s    0.34700
                                    2 2py   0.34451     2 2pz   0.75555     2 2py  -0.64008     2 2pz  -0.68386     3 1s   -0.25267
                                    3 1s   -0.39842
   19.1     0.00000     0.86706     1 1s   -0.36654     1 1s    0.45238     1 2px  -0.32302     1 2py   0.26746     1 2pz  -0.66186
                                    1 2px   0.85472     1 2py  -0.82583     1 2pz   0.81202     2 1s   -0.29637     2 2pz   0.64876
                                    2 2py   0.43510     2 2pz  -1.04481     3 1s    0.38268
   20.1     0.00000     0.96766     1 2px   0.63586     1 2py   0.42658     1 2px  -1.08172     1 2py  -0.84309     2 1s    0.31590
                                    2 2px   0.74711     2 2py   0.31339     2 2px  -1.11212     2 2py  -0.72902     4 1s   -1.12414
                                    5 1s    0.89595
   21.1     0.00000     1.11507     1 1s   -0.61312     1 1s    1.32732     1 2py   0.58256     1 2py  -0.75533     1 2pz  -0.27164
                                    2 1s   -0.66248     2 1s    0.95429     2 2px  -0.48770     2 2px   0.80605     3 1s   -0.42330
                                    3 1s    0.57341     4 1s    0.57809     4 1s   -1.17795     5 1s    0.47989     5 1s   -0.85667
                                    6 1s   -0.71686
   22.1     0.00000     1.12579     1 1s    0.42166     1 1s   -0.89094     1 2py   0.28616     1 2px   0.41103     1 2py  -0.56482
                                    2 2py   0.76008     2 2py  -0.89467     3 1s    0.71413     5 1s   -0.67091     5 1s    1.30022
                                    6 1s    0.66545     6 1s   -1.08450
   23.1     0.00000     1.13921     1 1s   -0.75470     1 2px   0.55238     1 2px  -1.15588     1 2py   0.29260     1 2pz   0.40101
                                    2 1s    1.15216     2 2px  -0.89731     2 2py   0.50704     3 1s    0.81419     3 1s   -0.98940
                                    4 1s    0.80067     4 1s   -0.65336     6 1s    0.44137
   24.1     0.00000     1.19760     1 1s   -0.98910     1 1s    1.99555     1 2py  -0.43682     1 2py   0.42906     1 2pz  -0.46646
                                    2 1s   -0.90469     2 1s    1.13730     2 2pz  -0.34367     2 2px   0.66531     2 2py  -0.46484
                                    2 2pz   0.50219     3 1s    0.41436     3 1s   -1.14116     4 1s   -0.51794     5 1s   -0.46396
                                    6 1s    0.53564     6 1s   -1.28416
   25.1     0.00000     1.21972     1 1s   -1.74609     1 1s    4.02312     1 2pz   0.27380     1 2py  -0.28080     1 2pz  -1.08532
                                    2 1s    0.68584     2 1s   -2.13485     2 2px   0.65595     2 2py  -0.73693     2 2pz  -0.25459
                                    3 1s   -0.84610     4 1s   -1.06280     5 1s   -0.48474     5 1s    0.71473     6 1s   -0.42554
   26.1     0.00000     1.37491     1 1s    0.33431     1 1s   -2.63630     1 2px  -1.45005     1 2py   0.90409     1 2pz   0.37915
                                    2 1s   -1.83969     2 1s    5.34429     2 2px  -0.86165     2 2py   0.31075     2 2pz   1.75060
                                    3 1s   -0.27103     5 1s   -0.63018     5 1s   -0.65144     6 1s   -0.58505     6 1s   -0.70490
   27.1     0.00000     1.69617     1 1s   -0.59331     1 3d0  -0.35009     1 3d2-  0.30484     1 3d2+  0.34081     2 1s    0.79101
                                    2 3d0   0.35820     2 3d2- -0.27633     2 3d2+ -0.30260
   28.1     0.00000     1.90735     1 1s    0.55993     1 2px   0.44165     1 3d1+  0.46621     1 3d2+  0.34123     1 3d1-  0.51108
                                    2 1s    0.55962     2 1s   -1.70727     2 2pz  -0.63361     2 3d0   0.37625     5 1s    0.27681
                                    6 1s    0.37843     6 1s    0.26822
   29.1     0.00000     1.93634     1 1s    0.32355     1 1s   -1.21301     1 2pz   0.36742     1 3d0   0.27377     2 1s    0.58987
                                    2 2px  -0.28861     2 2py   0.26019     2 3d2- -0.36051     2 3d1+  0.53154     2 3d2+  0.35433
                                    2 3d1-  0.44034     3 1s    0.41672
   30.1     0.00000     2.15502     1 1s    1.13190     1 2pz  -0.29230     1 3d0  -0.39987     1 3d2+ -0.45676     1 3d1- -0.25514
                                    2 1s    0.46652     2 1s   -1.40158     2 2px   0.36607     2 2py  -0.31159     2 2pz  -0.38784
                                    2 3d0   0.63067     2 3d2+  0.25240     3 1s   -0.35387     5 1s    0.27823
   31.1     0.00000     2.25873     1 1s    0.58468     1 1s   -0.99204     1 2px  -0.52169     1 2py   0.35431     1 2pz   0.30153
                                    1 3d0   0.30278     1 3d2-  0.25662     1 3d1+  0.47414     1 3d2+ -0.28296     2 1s    0.33969
                                    2 1s    0.39676     2 2px  -0.27575     2 3d2-  0.25816     2 3d1+  0.35468     2 3d2+ -0.43963
                                    5 1s   -0.27737
   32.1     0.00000     2.34453     1 1s   -0.63193     1 2px  -0.44793     1 2py   0.52024     1 3d0   0.58307     1 3d2- -0.45860
                                    1 3d1- -0.41868     2 1s    0.62367     2 2pz   0.31535     2 3d0   0.37971     2 3d2- -0.32505
                                    2 3d1+ -0.26382     2 3d1- -0.26675     3 1s   -0.26152     4 1s    0.54646     5 1s    0.25922
                                    6 1s   -0.27967
   33.1     0.00000     2.57115     1 1s   -0.32630     1 2py   0.28104     1 3d2+  0.30520     1 3d1- -0.54644     2 2py   0.25738
                                    2 3d2-  0.62495     2 3d1-  0.56893     4 1s    0.44306     5 1s   -0.34085     6 1s    0.58929
   34.1     0.00000     2.65230     1 2py  -0.30139     1 3d2- -0.47933     1 3d2+ -0.47356     1 3d1-  0.38390     2 2py   0.39086
                                    2 3d2+ -0.49339     2 3d1-  0.71970     4 1s   -0.27613     5 1s   -0.47251
   35.1     0.00000     2.70515     1 3d0   0.46195     1 3d2-  0.58852     1 3d1+ -0.57320     2 3d0   0.41390     2 3d2-  0.42877
                                    2 3d1+ -0.37114     3 1s    0.57569
   36.1     0.00000     2.96586     1 1s    1.68253     1 2px   0.42775     1 2px   0.85584     1 2pz  -0.43571     1 3d2- -0.40610
                                    1 3d1+ -0.64062     1 3d2+  0.63933     2 1s   -1.72513     2 2px   0.42727     2 2px   0.86730
                                    2 2pz  -0.43754     2 3d2-  0.30952     2 3d1+  0.73587     2 3d2+ -0.64451


 HOMO      8.1    -0.387312 =     -10.5393eV
 LUMO      9.1     0.063451 =       1.7266eV
 LUMO-HOMO         0.450763 =      12.2659eV


 **********************************************************************************************************************************
 DATASETS  * FILE   NREC   LENGTH (MB)   RECORD NAMES
              1      19       31.13       500      610      700      900      950      970     1000      129      960     1100   
                                          VAR    BASINP    GEOM    SYMINP    ZMAT    AOBASIS   BASIS     P2S    ABASIS      S 
                                         1400     1410     1200     1210     1080     1600     1650     1300     1700   
                                           T        V       H0       H01     AOSYM     SMH    MOLCAS    ERIS     OPER   

              2       4        2.86       700     1000      520     2100   
                                         GEOM     BASIS   MCVARS     RHF  

 PROGRAMS   *        TOTAL    HF-SCF       INT
 CPU TIMES  *         0.52      0.15      0.27
 REAL TIME  *         0.93 SEC
 DISK USED  *        36.24 MB
 **********************************************************************************************************************************


 PROGRAM * MULTI (Direct Multiconfiguration SCF)       Authors: P.J. Knowles, H.-J. Werner (1984)


 Number of closed-shell orbitals:   7 (   7 )
 Number of active  orbitals:        2 (   2 )
 Number of external orbitals:      27 (  27 )

 State symmetry 1

 Number of electrons:     2    Spin symmetry=Singlet   Space symmetry=1
 Number of states:        3
 Number of CSFs:          3   (4 determinants, 4 intermediate states)

 Molecular orbitals read from record     2100.2  Type=RHF/CANONICAL (state 1.1)

 Wavefunction dump at record             2140.2

 Convergence thresholds  0.10E-01 (gradient)  0.10E-05 (energy)  0.10E-02 (step length)

 Weight factors for state symmetry  1:    0.33333   0.33333   0.33333

 Number of orbital rotations:      257   (    14 Core/Active    189 Core/Virtual   0 Active/Active     54 Active/Virtual)
 Total number of variables:        269

 Micro-Iterations solved by the two-step solver

 ITER. MIC  NCI  NEG     ENERGY(VAR)     ENERGY(PROJ)   ENERGY CHANGE     GRAD(0)  GRAD(ORB)   GRAD(CI)     STEP       TIME

   1   14    7    0     -77.68581581     -77.70765833   -0.02184252    0.16607661 0.00115301 0.00000000  0.16D+00      0.17
   2    7    5    0     -77.70712905     -77.70720905   -0.00008000    0.01387433 0.00003030 0.00000000  0.75D-02      0.27
   3    8    5    0     -77.70720926     -77.70720926   -0.00000000    0.00005477 0.00000000 0.00000000  0.57D-04      0.38
   4    3    3    0     -77.70720926     -77.70720926   -0.00000000    0.00000000 0.00000000 0.00000000  0.21D-08      0.45

 ** WVFN ****  CONVERGENCE REACHED, FINAL GRADIENT:  0.56D-12



 Results for state 1.1
 =====================

 !MCSCF STATE  1.1 Energy             -77.839186305102
 Nuclear energy                        32.28333918
 Kinetic energy                        77.77288531
 One electron energy                 -167.73031647
 Two electron energy                   57.60779099
 Virial ratio                           2.00085249

 !MCSCF STATE  1.1 Dipole moment       -0.23685820     0.03527142     0.20576235
 Dipole moment /Debye                  -0.60199407     0.08964513     0.52296147

 Results for state 2.1
 =====================

 !MCSCF STATE  2.1 Energy             -77.734860327955
 Nuclear energy                        32.28333918
 Kinetic energy                        77.84939449
 One electron energy                 -167.43489871
 Two electron energy                   57.41669920
 Virial ratio                           1.99852877

 !MCSCF STATE  2.1 Dipole moment       -0.16186947     0.03265363     0.15993217
 Dipole moment /Debye                  -0.41140420     0.08299181     0.40648041

 Results for state 3.1
 =====================

 !MCSCF STATE  3.1 Energy             -77.547581137511
 Nuclear energy                        32.28333918
 Kinetic energy                        77.91134154
 One electron energy                 -167.18374334
 Two electron energy                   57.35282303
 Virial ratio                           1.99533110

 !MCSCF STATE  3.1 Dipole moment       -0.08203290     0.03838284     0.12233873
 Dipole moment /Debye                  -0.20849317     0.09755306     0.31093368

 State-averaged charge density matrix saved on record  2140.2 (density set 1)

 !MCSCF expec         <1.1|DMX|1.1>    -0.236858201651 au =    -0.601994068152 Debye
 !MCSCF trans         <2.1|DMX|1.1>    -0.013471688951 au =    -0.034239375205 Debye
 !MCSCF expec         <2.1|DMX|2.1>    -0.161869465817 au =    -0.411404196932 Debye
 !MCSCF trans         <3.1|DMX|1.1>    -0.006463406136 au =    -0.016427263767 Debye
 !MCSCF trans         <3.1|DMX|2.1>    -0.008838947335 au =    -0.022464891769 Debye
 !MCSCF expec         <3.1|DMX|3.1>    -0.082032896034 au =    -0.208493167901 Debye

 !MCSCF expec         <1.1|DMY|1.1>     0.035271419693 au =     0.089645134862 Debye
 !MCSCF trans         <2.1|DMY|1.1>    -0.018143384552 au =    -0.046112863310 Debye
 !MCSCF expec         <2.1|DMY|2.1>     0.032653629726 au =     0.082991812238 Debye
 !MCSCF trans         <3.1|DMY|1.1>     0.001251096672 au =     0.003179762280 Debye
 !MCSCF trans         <3.1|DMY|2.1>    -0.019818544066 au =    -0.050370415228 Debye
 !MCSCF expec         <3.1|DMY|3.1>     0.038382839818 au =     0.097553058025 Debye

 !MCSCF expec         <1.1|DMZ|1.1>     0.205762347936 au =     0.522961468266 Debye
 !MCSCF trans         <2.1|DMZ|1.1>    -0.016245124501 au =    -0.041288283529 Debye
 !MCSCF expec         <2.1|DMZ|2.1>     0.159932172741 au =     0.406480411595 Debye
 !MCSCF trans         <3.1|DMZ|1.1>     0.005298750393 au =     0.013467198023 Debye
 !MCSCF trans         <3.1|DMZ|2.1>    -0.021066764468 au =    -0.053542867236 Debye
 !MCSCF expec         <3.1|DMZ|3.1>     0.122338733056 au =     0.310933677160 Debye


 NATURAL ORBITALS (state averaged)
 =================================

  Orbital  Occupation    Energy     Coefficients
    1.1     2.00000   -11.25938     1 1s    0.99471
    2.1     2.00000   -11.25264     2 1s    0.99479
    3.1     2.00000    -1.05006     1 1s    0.27951     2 1s    0.27484     2 1s    0.25118
    4.1     2.00000    -0.78199     1 1s   -0.32754     2 1s    0.31355
    5.1     2.00000    -0.62394     1 2py   0.32312     2 2py   0.27321
    6.1     2.00000    -0.55361     1 2px  -0.25445     2 2px   0.25474     2 2py  -0.27299
    7.1     2.00000    -0.41982     1 2pz   0.30554     1 2pz   0.26937     2 2pz   0.33727     2 2pz   0.28284
    8.1     1.00000    -0.23143     1 2px   0.30316     2 2px  -0.31122     4 1s   -0.28976     5 1s   -0.29972
    9.1     1.00000    -0.08655     1 1s    0.26935     1 2pz   0.42474     1 2pz   0.45045     2 1s    0.26379     2 2pz  -0.38064
                                    2 2pz  -0.40632
   10.1    -0.00000     0.21897     1 1s   -0.91167     1 2px   0.52479     1 2py   0.44214     1 2pz   0.26326     2 1s   -1.25954
                                    2 2px  -0.40501     2 2py  -0.33902     2 2pz  -0.48156     3 1s    0.42345     4 1s    1.12753
                                    5 1s    1.05918     6 1s    0.62701
   11.1    -0.00000     0.27564     1 1s   -1.72341     1 2py  -0.31449     1 2pz   0.42120     2 1s    1.40960     2 2py  -0.28449
                                    2 2pz   0.47145     3 1s    1.51782     6 1s   -1.29631
   12.1    -0.00000     0.31298     1 1s   -0.78268     1 2px   0.46237     1 2py  -0.80581     1 2pz   0.33838     2 1s   -0.70479
                                    2 2py   0.25861     2 2px  -0.26753     2 2py   1.11844     2 2pz  -0.46566     3 1s    1.40929
                                    5 1s   -0.65551     6 1s    1.57481
   13.1    -0.00000     0.31883     1 1s    0.90575     1 2py  -0.25943     1 2py  -1.01944     2 1s   -1.29160     2 2py  -0.62266
                                    2 2pz  -0.47616     3 1s    0.44538     4 1s   -1.72566     5 1s    1.64169
   14.1    -0.00000     0.42912     1 1s    1.81266     1 2px   1.86122     1 2py  -0.59688     1 2pz  -0.76486     2 1s   -2.06908
                                    2 2px   1.75389     2 2py  -0.45005     2 2pz  -0.74585     3 1s    0.84604     6 1s   -0.37908
   15.1    -0.00000     0.69941     1 2px   0.49626     1 2px  -0.92901     2 2px  -0.55999     2 2px   0.84071     3 1s   -0.32482
                                    4 1s   -0.28753     4 1s    0.47318     5 1s    0.48719
   16.1    -0.00000     0.75306     1 2px  -0.64037     2 1s    0.41741     2 2py  -0.58429     2 2px  -0.44286     2 2py   1.15009
                                    3 1s   -0.41253     5 1s   -0.40589     6 1s    0.45830
   17.1    -0.00000     0.79113     1 1s   -0.36729     1 2py  -0.42747     1 2pz  -0.75714     1 2px  -0.40178     1 2py   1.09056
                                    1 2pz   0.90940     2 1s    0.67162     2 2pz  -0.32394     2 2py  -0.31238     2 2pz   0.42080
                                    4 1s    0.34377
   18.1    -0.00000     0.81021     1 2py  -0.46190     1 2px  -0.51017     1 2py   0.99840     2 2py   0.31511     2 2pz   0.75274
                                    2 2py  -0.61975     2 2pz  -0.77852     3 1s   -0.27495     3 1s   -0.38737
   19.1    -0.00000     0.86557     1 1s   -0.32504     1 1s    0.38156     1 2px  -0.33534     1 2py   0.27876     1 2pz  -0.64810
                                    1 2px   0.90850     1 2py  -0.86365     1 2pz   0.86480     2 1s   -0.25412     2 1s   -0.27965
                                    2 2pz   0.59983     2 2py   0.45618     2 2pz  -1.07127     3 1s    0.44083
   20.1    -0.00000     0.97349     1 2px   0.63349     1 2py   0.42681     1 2px  -1.00574     1 2py  -0.85213     2 2px   0.73985
                                    2 2py   0.30896     2 2px  -1.01543     2 2py  -0.73728     4 1s   -1.07013     5 1s    0.84556
   21.1    -0.00000     1.09254     1 1s   -0.63000     1 1s    1.17107     1 2py   0.45068     1 2py  -0.46462     2 1s   -0.68796
                                    2 1s    1.21219     2 2px  -0.39790     2 2py  -0.34535     2 2px   0.51097     2 2py   0.34248
                                    4 1s    0.64407     4 1s   -1.11116     5 1s    0.64975     5 1s   -1.18025
   22.1    -0.00000     1.10590     1 1s   -0.56129     1 2py   0.44385     1 2py  -0.62717     2 2py   0.61027     2 2px  -0.25978
                                    2 2py  -0.62708     3 1s    0.30961     4 1s    0.72968     4 1s   -0.90502     5 1s   -0.62705
                                    5 1s    1.19156     6 1s    0.45898     6 1s   -0.65202
   23.1    -0.00000     1.13532     1 1s   -0.97060     1 2px   0.57799     1 2py  -0.26190     1 2px  -1.23696     1 2py   0.64640
                                    1 2pz   0.41499     2 1s    0.58293     2 2px   0.34472     2 2py  -0.37932     2 2px  -1.16361
                                    2 2py   0.84643     3 1s    0.78026     3 1s   -1.18839     4 1s    0.43552     6 1s   -0.36318
                                    6 1s    1.18596
   24.1    -0.00000     1.19361     1 1s   -0.54403     1 2px   0.25798     1 2py  -0.40028     1 2px  -0.32978     1 2py   0.47708
                                    2 1s   -1.10758     2 1s    2.13237     2 2pz  -0.33336     2 2pz   0.49748     3 1s    0.54494
                                    3 1s   -0.61760     4 1s   -0.31524     4 1s    0.58383     5 1s    0.25897     5 1s   -0.52822
                                    6 1s    0.76023     6 1s   -1.23789
   25.1    -0.00000     1.21067     1 1s   -2.03997     1 1s    4.46426     1 2pz  -1.13251     2 1s   -1.06598     2 2py   0.25715
                                    2 2px   0.85853     2 2py  -0.77919     3 1s   -1.38556     4 1s   -0.80566     5 1s   -0.29264
                                    6 1s   -0.40632
   26.1    -0.00000     1.36443     1 1s    0.37613     1 1s   -2.72845     1 2px  -1.46613     1 2py   0.90665     1 2pz   0.39998
                                    2 1s   -1.86754     2 1s    5.42026     2 2px  -0.88616     2 2py   0.31499     2 2pz   1.75251
                                    5 1s   -0.59873     5 1s   -0.68388     6 1s   -0.58611     6 1s   -0.70303
   27.1    -0.00000     1.69138     1 1s   -0.62056     1 3d0  -0.34192     1 3d2-  0.30761     1 3d2+  0.34096     2 1s    0.82660
                                    2 2pz   0.25655     2 3d0   0.35298     2 3d2- -0.28312     2 3d2+ -0.30643
   28.1    -0.00000     1.90663     1 1s    0.52258     1 2px   0.43922     1 3d1+  0.45872     1 3d2+  0.34681     1 3d1-  0.50360
                                    2 1s    0.54501     2 1s   -1.66657     2 2pz  -0.62199     2 3d0   0.38705     5 1s    0.27212
                                    6 1s    0.37731     6 1s    0.26221
   29.1    -0.00000     1.93095     1 1s    0.30952     1 1s   -1.18820     1 2pz   0.35587     1 3d0   0.26115     2 1s    0.60684
                                    2 2px  -0.28484     2 2py   0.26058     2 3d2- -0.36777     2 3d1+  0.52993     2 3d2+  0.35491
                                    2 3d1-  0.43691     3 1s    0.41604
   30.1    -0.00000     2.15462     1 1s    1.11359     1 2pz  -0.28624     1 3d0  -0.40238     1 3d2+ -0.46532     1 3d1- -0.25910
                                    2 1s    0.46835     2 1s   -1.37507     2 2px   0.36316     2 2py  -0.31494     2 2pz  -0.37585
                                    2 3d0   0.63013     3 1s   -0.35193     5 1s    0.26796
   31.1    -0.00000     2.25578     1 1s    0.57607     1 1s   -0.95865     1 2px  -0.48712     1 2py   0.31760     1 2pz   0.29853
                                    1 3d0   0.28422     1 3d2-  0.27882     1 3d1+  0.47255     1 3d2+ -0.27704     2 1s    0.33281
                                    2 1s    0.35542     2 2px  -0.27298     2 3d2-  0.27408     2 3d1+  0.37366     2 3d2+ -0.44246
                                    4 1s    0.25160     5 1s   -0.29169
   32.1    -0.00000     2.33890     1 1s   -0.68889     1 2px  -0.47996     1 2py   0.54564     1 3d0   0.59248     1 3d2- -0.45102
                                    1 3d1- -0.43309     2 1s    0.64585     2 2pz   0.32282     2 3d0   0.37349     2 3d2- -0.31828
                                    2 3d1- -0.28053     3 1s   -0.26685     4 1s    0.53497     6 1s   -0.30147
   33.1    -0.00000     2.56459     1 1s   -0.31956     1 2py   0.28766     1 3d2+  0.31206     1 3d1- -0.55425     2 2py   0.25270
                                    2 3d2-  0.62821     2 3d1-  0.56224     4 1s    0.43925     5 1s   -0.32847     6 1s    0.58984
   34.1    -0.00000     2.64473     1 2py  -0.30402     1 3d2- -0.49864     1 3d2+ -0.46594     1 3d1-  0.37923     2 2py   0.39609
                                    2 3d2+ -0.48378     2 3d1-  0.72263     4 1s   -0.26451     5 1s   -0.45912
   35.1    -0.00000     2.71046     1 3d0   0.46964     1 3d2-  0.56942     1 3d1+ -0.58288     2 3d0   0.42146     2 3d2-  0.41459
                                    2 3d1+ -0.37167     3 1s    0.57299
   36.1    -0.00000     2.96205     1 1s    1.71209     1 2px   0.42061     1 2px   0.86698     1 2pz  -0.44290     1 3d2- -0.40785
                                    1 3d1+ -0.64184     1 3d2+  0.63804     2 1s   -1.75221     2 2px   0.42145     2 2px   0.87773
                                    2 2py  -0.25357     2 2pz  -0.44514     2 3d2-  0.30430     2 3d1+  0.73905     2 3d2+ -0.63967


 Natural orbital dump (state averaged) at molpro section  2140.2    (Orbital set 2)



 **********************************************************************************************************************************
 DATASETS  * FILE   NREC   LENGTH (MB)   RECORD NAMES
              1      20       31.86       500      610      700      900      950      970     1000      129      960     1100   
                                          VAR    BASINP    GEOM    SYMINP    ZMAT    AOBASIS   BASIS     P2S    ABASIS      S 
                                         1400     1410     1200     1210     1080     1600     1650     1300     1700     1380   
                                           T        V       H0       H01     AOSYM     SMH    MOLCAS    ERIS     OPER     JKOP   

              2       5        5.42       700     1000      520     2100     2140   
                                         GEOM     BASIS   MCVARS     RHF     MCSCF   

 PROGRAMS   *        TOTAL     MULTI    HF-SCF       INT
 CPU TIMES  *         1.04      0.52      0.15      0.27
 REAL TIME  *         1.66 SEC
 DISK USED  *        39.04 MB
 **********************************************************************************************************************************
 Molecular orbitals read from record     2140.2  Type=MCSCF/NATURAL (state averaged)
 Occupation numbers read from record     2140.2  Type=MCSCF/NATURAL (state averaged)
 Orbital energies read from record       2140.2  Type=MCSCF/NATURAL (state averaged)
 Redundancy group numbers read from rec  2140.2  Type=MCSCF/NATURAL (state averaged)

 MULTI/6-31G* energy=    -77.547581137511

           MULTI          HF-SCF
    -77.54758114    -77.84555189
 **********************************************************************************************************************************
 Molpro calculation terminated
