
 Primary working directories    : /scratch.local/johan406.molpro_temp/molpro.r37J6v6hg4
 Secondary working directories  : /scratch.local/johan406.molpro_temp/molpro.r37J6v6hg4
 Wavefunction directory         : /home/goodpast/johan406/wfu/
 Main file repository           : /scratch.local/johan406.molpro_temp/molpro.r37J6v6hg4/

 id        : roweumn

 Nodes     nprocs
 cn0391       1

 Using customized tuning parameters: mindgm=1; mindgv=20; mindgc=4; mindgr=1; noblas=0; minvec=7
 default implementation of scratch files=df  


 Variables initialized (934), CPU time= 0.00 sec
                                                                                 !leave this line blank
 
 gprint, orbitals=30
 memory, 125., m
 symmetry, nosym
 nelect=16
 basis=6-31g*
 
 geometry={
 C -0.6327 0.1387 0.3023
 C 0.6416 -0.1885 -0.3626
 H -1.2611 0.9036 -0.1574
 H -0.9504 -0.8669 -0.1355
 H 0.9593 0.817 0.0751
 H 1.27 -0.9535 0.0969
 }
 
 hf
 {multi,
 closed 7
 occ 9
 wf,spin=0;STATE,3
 }
 
 Commands  initialized (763), CPU time= 0.01 sec, 617 directives.
 Default parameters read. Elapsed time= 0.07 sec

 Checking input...
 Passed
1


                                         ***  PROGRAM SYSTEM MOLPRO  ***
                                       Copyright, TTI GmbH Stuttgart, 2015
                                    Version 2019.2 linked Oct 25 2019 22:50:27


 **********************************************************************************************************************************
 LABEL *                                                                                 
  64 bit serial version                                                                  DATE: 07-Feb-23          TIME: 15:22:21  
 **********************************************************************************************************************************

 SHA1:             8dbd9ae1082e4ce945b0f27595c9eb2d4aa09004
 **********************************************************************************************************************************


 Variable memory set to  125000000 words,  buffer space 

 SETTING NELECT         =        16.00000000                                  
 SETTING BASIS          =    6-31G*
 ZSYMEL=NOSYM


Geometry recognized as XYZ



 Recomputing integrals since basis changed


 Using spherical harmonics

 Library entry C      S 6-31G                selected for orbital group  1
 Library entry C      P 6-31G                selected for orbital group  1
 Library entry C      D 6-31G*               selected for orbital group  1
 Library entry H      S 6-31G                selected for orbital group  2


 PROGRAM * SEWARD (Integral evaluation for generally contracted gaussian basis sets)     Author: Roland Lindh, 1990

 Geometry written to block  1 of record 700


 Point group  C1  



 ATOMIC COORDINATES

 NR  ATOM    CHARGE       X              Y              Z

   1  C       6.00   -1.195629719    0.262105013    0.571264207
   2  C       6.00    1.212448282   -0.356213374   -0.685214693
   3  H       1.00   -2.383133616    1.707556526   -0.297442892
   4  H       1.00   -1.795995709   -1.638203577   -0.256057890
   5  H       1.00    1.812814271    1.543906244    0.141918432
   6  H       1.00    2.399952178   -1.801853860    0.183114461

 Bond lengths in Bohr (Angstrom)

 1-2  2.785659080  1-3  2.062558509  1-4  2.157793761  2-5  2.157554887  2-6  2.062531803
     ( 1.474107303)     ( 1.091458959)     ( 1.141855284)     ( 1.141728878)     ( 1.091444827)

 Bond angles

  1-2-5   82.65443393   1-2-6  117.60628637   2-1-3  117.59923979   2-1-4   82.65184658

  3-1-4  107.18780795   5-2-6  107.19758344

 NUCLEAR CHARGE:                   16
 NUMBER OF PRIMITIVE AOS:          72
 NUMBER OF SYMMETRY AOS:           70
 NUMBER OF CONTRACTIONS:           36   (   36A   )
 NUMBER OF CORE ORBITALS:           2   (    2A   )
 NUMBER OF VALENCE ORBITALS:       12   (   12A   )


 NUCLEAR REPULSION ENERGY   32.26073770

 Eigenvalues of metric

         1 0.958E-02 0.277E-01 0.605E-01 0.633E-01 0.802E-01 0.218E+00 0.240E+00 0.279E+00


 Contracted 2-electron integrals neglected if value below      1.0D-11
 AO integral compression algorithm  1   Integral accuracy      1.0D-11

     1.573 MB (compressed) written to integral file ( 59.1%)


 NUMBER OF SORTED TWO-ELECTRON INTEGRALS:     222111.     BUFFER LENGTH:  32768
 NUMBER OF SEGMENTS:   1  SEGMENT LENGTH:     222111      RECORD LENGTH: 524288

 Memory used in sort:       0.78 MW

 SORT1 READ      284735. AND WROTE      212531. INTEGRALS IN      1 RECORDS. CPU TIME:     0.00 SEC, REAL TIME:     0.01 SEC
 SORT2 READ      212531. AND WROTE      222111. INTEGRALS IN      6 RECORDS. CPU TIME:     0.02 SEC, REAL TIME:     0.03 SEC

 FILE SIZES:   FILE 1:    31.7 MBYTE,  FILE 4:     4.2 MBYTE,   TOTAL:     35.9 MBYTE

 OPERATOR DM      FOR CENTER  0  COORDINATES:    0.000000    0.000000    0.000000


 **********************************************************************************************************************************
 DATASETS  * FILE   NREC   LENGTH (MB)   RECORD NAMES
              1      19       31.13       500      610      700      900      950      970     1000      129      960     1100   
                                          VAR    BASINP    GEOM    SYMINP    ZMAT    AOBASIS   BASIS     P2S    ABASIS      S 
                                         1400     1410     1200     1210     1080     1600     1650     1300     1700   
                                           T        V       H0       H01     AOSYM     SMH    MOLCAS    ERIS     OPER   

 PROGRAMS   *        TOTAL       INT
 CPU TIMES  *         0.37      0.27
 REAL TIME  *         0.75 SEC
 DISK USED  *        36.24 MB
 **********************************************************************************************************************************


 PROGRAM * RHF-SCF (CLOSED SHELL)       Authors: W. Meyer, H.-J. Werner


 NUMBER OF ELECTRONS:       8+    8-    SPACE SYMMETRY=1    SPIN SYMMETRY: Singlet 
 CONVERGENCE THRESHOLDS:    1.00E-05 (Density)    1.00E-07 (Energy)
 MAX. NUMBER OF ITERATIONS:       60
 INTERPOLATION TYPE:            DIIS
 INTERPOLATION STEPS:              2 (START)      1 (STEP)
 LEVEL SHIFTS:                  0.00 (CLOSED)  0.00 (OPEN) 



 Orbital guess generated from atomic densities. Full valence occupancy:    8

 Molecular orbital dump at record        2100.2

 Initial occupancy:   8

 ITERATION    DDIFF          GRAD             ENERGY        2-EL.EN.            DIPOLE MOMENTS         DIIS   ORB.
    1      0.000D+00      0.000D+00       -77.82336932    115.692975    0.00006   -0.00004   -0.00014    0    start
    2      0.000D+00      0.697D-02       -77.84119150    114.728362    0.00013    0.00001   -0.00014    1    diag
    3      0.754D-02      0.223D-02       -77.84326339    115.127703    0.00015    0.00001   -0.00015    2    diag
    4      0.296D-02      0.816D-03       -77.84370630    115.000771    0.00017    0.00001   -0.00015    3    diag
    5      0.159D-02      0.303D-03       -77.84386053    115.009005    0.00018    0.00002   -0.00015    4    diag
    6      0.103D-02      0.141D-03       -77.84391649    115.011082    0.00019    0.00001   -0.00017    5    diag
    7      0.683D-03      0.494D-04       -77.84392330    115.012579    0.00017    0.00002   -0.00014    6    diag
    8      0.254D-03      0.152D-04       -77.84392384    115.013120    0.00020    0.00000   -0.00018    7    diag
    9      0.759D-04      0.425D-05       -77.84392387    115.013096    0.00015    0.00003   -0.00012    8    diag
   10      0.135D-04      0.124D-05       -77.84392387    115.013094    0.00021    0.00000   -0.00019    9    orth
   11      0.260D-05      0.711D-06       -77.84392387    115.013095    0.00016    0.00003   -0.00013    0    orth

 Final occupancy:   8

 !RHF STATE  1.1 Energy               -77.843923872045
 Nuclear energy                        32.26073770
 One-electron energy                 -167.61120924
 Two-electron energy                   57.50654767
 Virial quotient                       -1.00135473
 !RHF STATE  1.1 Dipole moment          0.00016087     0.00002897    -0.00012684
 Dipole moment /Debye                   0.00040886     0.00007362    -0.00032238

 ELECTRON ORBITALS
 =================

  Orbital  Occupation    Energy     Coefficients
    1.1     2.00000   -11.26062     1 1s    0.70936     2 1s    0.69951
    2.1     2.00000   -11.25982     1 1s    0.69961     2 1s   -0.70945
    3.1     2.00000    -1.03488     1 1s    0.28174     2 1s    0.28176
    4.1     2.00000    -0.78403     1 1s   -0.29369     2 1s    0.29366
    5.1     2.00000    -0.62357     1 2py   0.30784     2 2py   0.30800
    6.1     2.00000    -0.55984     1 2px   0.29152     2 2px  -0.29154
    7.1     2.00000    -0.39021     1 2pz   0.30731     1 2pz   0.28567     2 2pz   0.30732     2 2pz   0.28567
    8.1     2.00000    -0.38609     1 2px   0.28252     2 2px  -0.28254     4 1s   -0.28257     5 1s   -0.28252
    9.1     0.00000     0.06085     1 1s    0.39668     1 2pz   0.33042     1 2pz   0.46433     2 1s    0.39664     2 2pz  -0.33045
                                    2 2pz  -0.46440
   10.1     0.00000     0.23047     1 1s   -1.10176     1 2px   0.46638     1 2py   0.35948     1 2pz   0.43224     2 1s   -1.10185
                                    2 2px  -0.46638     2 2py  -0.35929     2 2pz  -0.43217     3 1s    0.57227     4 1s    1.09073
                                    5 1s    1.09056     6 1s    0.57243
   11.1     0.00000     0.28329     1 1s   -1.57559     1 2py  -0.36074     1 2pz   0.47363     2 1s    1.57536     2 2py  -0.36076
                                    2 2pz   0.47335     3 1s    1.44928     6 1s   -1.44898
   12.1     0.00000     0.31223     1 1s   -0.73827     1 2px   0.39112     1 2py  -1.01343     1 2pz   0.44751     2 1s   -0.73862
                                    2 2px  -0.39126     2 2py   1.01340     2 2pz  -0.44751     3 1s    1.55407     4 1s   -0.43788
                                    5 1s   -0.43752     6 1s    1.55439
   13.1     0.00000     0.33828     1 1s    1.02969     1 2px  -0.29989     1 2py  -0.76711     1 2pz  -0.31518     2 1s   -1.03000
                                    2 2px  -0.29992     2 2py  -0.76764     2 2pz  -0.31515     4 1s   -1.71155     5 1s    1.71228
   14.1     0.00000     0.41729     1 1s    1.92755     1 2px   1.72267     1 2py  -0.63050     1 2pz  -0.76126     2 1s   -1.92746
                                    2 2px   1.72272     2 2py  -0.63056     2 2pz  -0.76128     3 1s    0.62513     6 1s   -0.62530
   15.1     0.00000     0.70560     1 2px  -0.55263     1 2px   0.92038     2 2px   0.55261     2 2px  -0.92025     4 1s   -0.42513
                                    5 1s   -0.42500
   16.1     0.00000     0.75924     1 1s   -0.31037     1 2py  -0.37254     1 2px  -0.62891     1 2py   0.79916     2 1s    0.31029
                                    2 2py  -0.37247     2 2px  -0.62910     2 2py   0.79932     3 1s   -0.48640     6 1s    0.48644
   17.1     0.00000     0.78705     1 2py   0.58561     1 2pz   0.25540     1 2py  -1.23294     2 2py  -0.58564     2 2pz  -0.25645
                                    2 2py   1.23338     4 1s   -0.28105     5 1s   -0.28132
   18.1     0.00000     0.79888     1 2pz  -0.73424     1 2pz   0.72661     2 2pz  -0.73392     2 2pz   0.72632
   19.1     0.00000     0.86339     1 1s   -0.34678     1 2pz  -0.68976     1 2px   0.45180     1 2py  -0.52112     1 2pz   0.96295
                                    2 1s   -0.34680     2 2pz   0.68976     2 2px  -0.45205     2 2py   0.52132     2 2pz  -0.96284
   20.1     0.00000     0.96768     1 2px   0.71939     1 2py   0.35899     1 2px  -1.15030     1 2py  -0.76637     2 2px   0.71927
                                    2 2py   0.35894     2 2px  -1.15029     2 2py  -0.76642     4 1s   -1.02022     5 1s    1.02044
   21.1     0.00000     1.12053     1 1s   -0.68691     1 1s    1.24943     1 2px   0.25080     1 2py   0.39894     1 2px  -0.34593
                                    1 2py  -0.39179     2 1s   -0.68658     2 1s    1.24863     2 2px  -0.25174     2 2py  -0.39692
                                    2 2px   0.34718     2 2py   0.38882     4 1s    0.65557     4 1s   -1.19523     5 1s    0.65366
                                    5 1s   -1.19193
   22.1     0.00000     1.13783     1 2px  -0.36959     1 2py   0.61524     1 2px   0.68986     1 2py  -0.98938     2 2px  -0.36873
                                    2 2py   0.61641     2 2px   0.68871     2 2py  -0.99062     3 1s   -0.51509     3 1s    1.22024
                                    4 1s    0.31157     4 1s   -0.70866     5 1s   -0.31353     5 1s    0.71233     6 1s    0.51524
                                    6 1s   -1.21981
   23.1     0.00000     1.18147     1 1s    0.27255     1 2pz  -0.26190     1 2px   0.82117     2 1s   -0.27434     2 2pz  -0.26243
                                    2 2px   0.82218     3 1s   -0.38303     3 1s    0.61511     4 1s   -0.74534     4 1s    0.89534
                                    5 1s    0.74664     5 1s   -0.89658     6 1s    0.38582     6 1s   -0.61801
   24.1     0.00000     1.18889     1 1s   -0.55761     1 1s    0.87418     1 2px   0.28797     1 2py  -0.32031     1 2px  -0.27225
                                    1 2py   0.30516     2 1s   -0.55596     2 1s    0.87257     2 2px  -0.28755     2 2py   0.32104
                                    2 2px   0.27030     2 2py  -0.30551     3 1s    0.78157     3 1s   -1.05698     6 1s    0.78043
                                    6 1s   -1.05500
   25.1     0.00000     1.25467     1 1s   -1.20332     1 1s    2.13668     1 2px  -0.49746     1 2py   0.54637     1 2pz  -0.97150
                                    2 1s   -1.21138     2 1s    2.16061     2 2px   0.49230     2 2py  -0.54303     2 2pz   0.97703
                                    3 1s   -0.37843     3 1s   -0.93545     4 1s   -0.42298     4 1s   -0.35330     5 1s   -0.42325
                                    5 1s   -0.35734     6 1s   -0.37826     6 1s   -0.93834
   26.1     0.00000     1.27784     1 1s   -1.61694     1 1s    5.02474     1 2px   1.18468     1 2py  -0.74370     1 2pz  -1.21330
                                    2 1s    1.61137     2 1s   -5.01489     2 2px   1.18694     2 2py  -0.74627     2 2pz  -1.20853
                                    3 1s   -0.50303     4 1s   -0.70677     5 1s    0.70532     6 1s    0.49888
   27.1     0.00000     1.69909     1 1s    0.58332     1 3d0   0.36359     1 3d2- -0.29119     1 3d2+ -0.32219     2 1s   -0.58331
                                    2 3d0  -0.36359     2 3d2-  0.29119     2 3d2+  0.32219
   28.1     0.00000     1.92895     1 1s    0.33126     1 1s   -0.68721     1 2pz   0.35591     1 3d0   0.35868     1 3d1+  0.34457
                                    1 3d2+  0.33886     1 3d1-  0.31518     2 1s    0.32834     2 1s   -0.67439     2 2pz  -0.35246
                                    2 3d0   0.35779     2 3d1+  0.34806     2 3d2+  0.34034     2 3d1-  0.31863     3 1s    0.28140
                                    6 1s    0.28123
   29.1     0.00000     1.93263     1 1s   -0.30543     1 1s    1.34605     1 2px   0.31862     1 2pz  -0.35410     1 3d2- -0.31606
                                    1 3d1+  0.39225     1 3d1-  0.38819     2 1s    0.30822     2 1s   -1.35195     2 2px   0.31701
                                    2 2pz  -0.35714     2 3d2-  0.31565     2 3d1+ -0.38909     2 3d1- -0.38530     3 1s   -0.31922
                                    6 1s    0.32126
   30.1     0.00000     2.18243     1 1s    0.34665     1 1s   -1.63708     1 2px  -0.38595     1 2py   0.27626     1 2pz   0.44523
                                    1 3d0   0.56171     1 3d2+  0.36201     2 1s   -0.34685     2 1s    1.63745     2 2px  -0.38592
                                    2 2py   0.27611     2 2pz   0.44541     2 3d0  -0.56175     2 3d2+ -0.36196     3 1s    0.35105
                                    4 1s    0.34090     5 1s   -0.34084     6 1s   -0.35123
   31.1     0.00000     2.23255     1 1s    0.47741     1 1s   -0.30587     1 2px   0.25843     1 2px  -0.28736     1 3d2-  0.31713
                                    1 3d1+  0.38394     1 3d2+ -0.38974     2 1s    0.47730     2 1s   -0.30537     2 2px  -0.25842
                                    2 2px   0.28729     2 3d2-  0.31696     2 3d1+  0.38392     2 3d2+ -0.38987
   32.1     0.00000     2.35182     1 2py   0.35728     1 3d0   0.52586     1 3d2- -0.35663     1 3d1- -0.35611     2 2py  -0.35750
                                    2 3d0   0.52598     2 3d2- -0.35650     2 3d1- -0.35604     3 1s   -0.27691     4 1s    0.37797
                                    5 1s    0.37814     6 1s   -0.27667
   33.1     0.00000     2.58230     1 2py  -0.29845     1 3d2-  0.48172     1 3d1-  0.60049     2 2py  -0.29847     2 3d2- -0.48179
                                    2 3d1- -0.60033     3 1s    0.49519     4 1s   -0.41059     5 1s    0.41070     6 1s   -0.49503
   34.1     0.00000     2.63622     1 2py   0.30996     1 3d2-  0.47097     1 3d2+  0.50349     1 3d1- -0.48434     2 2py  -0.31013
                                    2 3d2-  0.47095     2 3d2+  0.50351     2 3d1- -0.48443     4 1s    0.35969     5 1s    0.35985
   35.1     0.00000     2.70451     1 3d0  -0.38997     1 3d2- -0.44874     1 3d1+  0.48715     1 3d1- -0.32729     2 3d0  -0.38997
                                    2 3d2- -0.44891     2 3d1+  0.48727     2 3d1- -0.32751     3 1s   -0.47222     6 1s   -0.47244
   36.1     0.00000     2.95081     1 1s   -1.70159     1 2px  -0.41350     1 2px  -0.86594     1 2pz   0.43935     1 3d2-  0.33695
                                    1 3d1+  0.69238     1 3d2+ -0.64033     2 1s    1.70156     2 2px  -0.41351     2 2px  -0.86593
                                    2 2pz   0.43933     2 3d2- -0.33700     2 3d1+ -0.69233     2 3d2+  0.64040


 HOMO      8.1    -0.386088 =     -10.5060eV
 LUMO      9.1     0.060846 =       1.6557eV
 LUMO-HOMO         0.446934 =      12.1617eV


 **********************************************************************************************************************************
 DATASETS  * FILE   NREC   LENGTH (MB)   RECORD NAMES
              1      19       31.13       500      610      700      900      950      970     1000      129      960     1100   
                                          VAR    BASINP    GEOM    SYMINP    ZMAT    AOBASIS   BASIS     P2S    ABASIS      S 
                                         1400     1410     1200     1210     1080     1600     1650     1300     1700   
                                           T        V       H0       H01     AOSYM     SMH    MOLCAS    ERIS     OPER   

              2       4        2.86       700     1000      520     2100   
                                         GEOM     BASIS   MCVARS     RHF  

 PROGRAMS   *        TOTAL    HF-SCF       INT
 CPU TIMES  *         0.51      0.14      0.27
 REAL TIME  *         1.02 SEC
 DISK USED  *        36.24 MB
 **********************************************************************************************************************************


 PROGRAM * MULTI (Direct Multiconfiguration SCF)       Authors: P.J. Knowles, H.-J. Werner (1984)


 Number of closed-shell orbitals:   7 (   7 )
 Number of active  orbitals:        2 (   2 )
 Number of external orbitals:      27 (  27 )

 State symmetry 1

 Number of electrons:     2    Spin symmetry=Singlet   Space symmetry=1
 Number of states:        3
 Number of CSFs:          3   (4 determinants, 4 intermediate states)

 Molecular orbitals read from record     2100.2  Type=RHF/CANONICAL (state 1.1)

 Wavefunction dump at record             2140.2

 Convergence thresholds  0.10E-01 (gradient)  0.10E-05 (energy)  0.10E-02 (step length)

 Weight factors for state symmetry  1:    0.33333   0.33333   0.33333

 Number of orbital rotations:      257   (    14 Core/Active    189 Core/Virtual   0 Active/Active     54 Active/Virtual)
 Total number of variables:        269

 Micro-Iterations solved by the two-step solver

 ITER. MIC  NCI  NEG     ENERGY(VAR)     ENERGY(PROJ)   ENERGY CHANGE     GRAD(0)  GRAD(ORB)   GRAD(CI)     STEP       TIME

   1    6    5    0     -77.69264261     -77.71245210   -0.01980950    0.16900432 0.00176387 0.00000000  0.14D+00      0.11
   2    5    5    0     -77.71212756     -77.71214761   -0.00002005    0.00658380 0.00000342 0.00000000  0.46D-02      0.21
   3    4    4    0     -77.71214764     -77.71214764   -0.00000000    0.00001298 0.00000000 0.00000000  0.17D-04      0.28

 ** WVFN ****  CONVERGENCE REACHED, FINAL GRADIENT:  0.15D-09



 Results for state 1.1
 =====================

 !MCSCF STATE  1.1 Energy             -77.837488828037
 Nuclear energy                        32.26073770
 Kinetic energy                        77.80390527
 One electron energy                 -167.70288962
 Two electron energy                   57.60466309
 Virial ratio                           2.00043164

 !MCSCF STATE  1.1 Dipole moment        0.00022986     0.00004238    -0.00017948
 Dipole moment /Debye                   0.00058422     0.00010772    -0.00045615

 Results for state 2.1
 =====================

 !MCSCF STATE  2.1 Energy             -77.739280934653
 Nuclear energy                        32.26073770
 Kinetic energy                        77.87874164
 One electron energy                 -167.37846086
 Two electron energy                   57.37844223
 Virial ratio                           1.99820926

 !MCSCF STATE  2.1 Dipole moment        0.00003495    -0.00006077    -0.00010575
 Dipole moment /Debye                   0.00008884    -0.00015445    -0.00026877

 Results for state 3.1
 =====================

 !MCSCF STATE  3.1 Energy             -77.559673170837
 Nuclear energy                        32.26073770
 Kinetic energy                        77.93837639
 One electron energy                 -167.09844672
 Two electron energy                   57.27803585
 Virial ratio                           1.99514099

 !MCSCF STATE  3.1 Dipole moment       -0.00015297    -0.00017825    -0.00006090
 Dipole moment /Debye                  -0.00038878    -0.00045303    -0.00015478

 State-averaged charge density matrix saved on record  2140.2 (density set 1)

 !MCSCF expec         <1.1|DMX|1.1>     0.000229864543 au =     0.000584219125 Debye
 !MCSCF trans         <2.1|DMX|1.1>    -0.000007625989 au =    -0.000019382061 Debye
 !MCSCF expec         <2.1|DMX|2.1>     0.000034953008 au =     0.000088835866 Debye
 !MCSCF trans         <3.1|DMX|1.1>     0.000020285560 au =     0.000051557374 Debye
 !MCSCF trans         <3.1|DMX|2.1>    -0.000023304037 au =    -0.000059229075 Debye
 !MCSCF expec         <3.1|DMX|3.1>    -0.000152969777 au =    -0.000388784926 Debye

 !MCSCF expec         <1.1|DMY|1.1>     0.000042381301 au =     0.000107715466 Debye
 !MCSCF trans         <2.1|DMY|1.1>     0.000035057776 au =     0.000089102142 Debye
 !MCSCF expec         <2.1|DMY|2.1>    -0.000060770238 au =    -0.000154452422 Debye
 !MCSCF trans         <3.1|DMY|1.1>     0.000008616658 au =     0.000021899925 Debye
 !MCSCF trans         <3.1|DMY|2.1>     0.000030182090 au =     0.000076710197 Debye
 !MCSCF expec         <3.1|DMY|3.1>    -0.000178246444 au =    -0.000453027597 Debye

 !MCSCF expec         <1.1|DMZ|1.1>    -0.000179475895 au =    -0.000456152346 Debye
 !MCSCF trans         <2.1|DMZ|1.1>     0.000059792341 au =     0.000151967018 Debye
 !MCSCF expec         <2.1|DMZ|2.1>    -0.000105747324 au =    -0.000268765283 Debye
 !MCSCF trans         <3.1|DMZ|1.1>    -0.000010757809 au =    -0.000027341833 Debye
 !MCSCF trans         <3.1|DMZ|2.1>     0.000070703408 au =     0.000179698367 Debye
 !MCSCF expec         <3.1|DMZ|3.1>    -0.000060898423 au =    -0.000154778215 Debye


 NATURAL ORBITALS (state averaged)
 =================================

  Orbital  Occupation    Energy     Coefficients
    1.1     2.00000   -11.25638     1 1s    0.71019     2 1s    0.69865
    2.1     2.00000   -11.25570     1 1s    0.69870     2 1s   -0.71024
    3.1     2.00000    -1.04823     1 1s    0.27715     2 1s    0.27717
    4.1     2.00000    -0.78522     1 1s   -0.31846     2 1s    0.31843
    5.1     2.00000    -0.62744     1 2py   0.30184     2 2py   0.30197
    6.1     2.00000    -0.55927     1 2px   0.25159     2 2px  -0.25159
    7.1     2.00000    -0.41878     1 2pz   0.32392     1 2pz   0.28019     2 2pz   0.32390     2 2pz   0.28018
    8.1     1.00000    -0.09000     1 1s    0.26563     1 2pz   0.40489     1 2pz   0.42486     2 1s    0.26561     2 2pz  -0.40493
                                    2 2pz  -0.42491
    9.1     1.00000    -0.22796     1 2px   0.31705     2 2px  -0.31706     4 1s   -0.29048     5 1s   -0.29044
   10.1    -0.00000     0.21846     1 1s   -1.10982     1 2px   0.46232     1 2py   0.37410     1 2pz   0.37408     2 1s   -1.10972
                                    2 2px  -0.46232     2 2py  -0.37387     2 2pz  -0.37394     3 1s    0.54032     4 1s    1.10038
                                    5 1s    1.10009     6 1s    0.54039
   11.1    -0.00000     0.28192     1 1s   -1.66204     1 2py  -0.29568     1 2pz   0.48973     2 1s    1.66190     2 2py  -0.29561
                                    2 2pz   0.48948     3 1s    1.43790     6 1s   -1.43759
   12.1    -0.00000     0.31436     1 1s   -0.79183     1 2px   0.39199     1 2py  -1.00598     1 2pz   0.42364     2 1s   -0.79296
                                    2 2px  -0.39219     2 2py   1.00536     2 2pz  -0.42389     3 1s    1.57228     4 1s   -0.39662
                                    5 1s   -0.39510     6 1s    1.57249
   13.1    -0.00000     0.32325     1 1s    1.04599     1 2py  -0.85567     1 2pz  -0.33181     2 1s   -1.04583     2 2py  -0.85690
                                    2 2pz  -0.33155     4 1s   -1.72552     5 1s    1.72657
   14.1    -0.00000     0.42303     1 1s    1.77290     1 2px   1.73855     1 2py  -0.51176     1 2pz  -0.69827     2 1s   -1.77278
                                    2 2px   1.73861     2 2py  -0.51180     2 2pz  -0.69829     3 1s    0.62541     6 1s   -0.62556
   15.1    -0.00000     0.70199     1 2px  -0.53734     1 2px   0.89635     2 2px   0.53731     2 2px  -0.89620     4 1s    0.25727
                                    4 1s   -0.48135     5 1s    0.25735     5 1s   -0.48121
   16.1    -0.00000     0.75623     1 1s   -0.40930     1 2py  -0.36309     1 2px  -0.67262     1 2py   0.81614     2 1s    0.40929
                                    2 2py  -0.36293     2 2px  -0.67275     2 2py   0.81608     3 1s   -0.48353     4 1s    0.25117
                                    5 1s   -0.25100     6 1s    0.48353
   17.1    -0.00000     0.78587     1 2py   0.56037     1 2pz   0.25528     1 2py  -1.21386     1 2pz  -0.29074     2 2py  -0.56045
                                    2 2pz  -0.25630     2 2py   1.21446     2 2pz   0.29203     4 1s   -0.28167     5 1s   -0.28196
   18.1    -0.00000     0.79822     1 1s   -0.41821     1 2pz  -0.73004     1 2pz   0.79248     2 1s    0.41866     2 2pz  -0.72973
                                    2 2pz   0.79211
   19.1    -0.00000     0.86074     1 1s   -0.30349     1 2px  -0.25266     1 2pz  -0.66395     1 2px   0.48778     1 2py  -0.53078
                                    1 2pz   1.01795     2 1s   -0.30352     2 2px   0.25275     2 2pz   0.66393     2 2px  -0.48803
                                    2 2py   0.53101     2 2pz  -1.01784     3 1s    0.27523     6 1s    0.27532
   20.1    -0.00000     0.97398     1 2px   0.71818     1 2py   0.36046     1 2px  -1.06999     1 2py  -0.77860     2 2px   0.71805
                                    2 2py   0.36040     2 2px  -1.06998     2 2py  -0.77863     4 1s   -0.97427     5 1s    0.97448
   21.1    -0.00000     1.09506     1 1s   -0.65725     1 1s    1.18548     1 2px   0.27671     1 2py   0.41650     1 2px  -0.34995
                                    1 2py  -0.43094     2 1s   -0.65647     2 1s    1.18446     2 2px  -0.27724     2 2py  -0.41468
                                    2 2px   0.35008     2 2py   0.42852     4 1s    0.66406     4 1s   -1.16673     5 1s    0.66169
                                    5 1s   -1.16293
   22.1    -0.00000     1.12473     1 2py   0.62422     1 2py  -0.87049     2 2py   0.62551     2 2py  -0.87195     3 1s    0.72916
                                    4 1s    0.63669     4 1s   -1.10031     5 1s   -0.63887     5 1s    1.10397     6 1s   -0.72881
   23.1    -0.00000     1.15924     1 1s    0.25711     1 1s    0.26703     1 2px  -0.36568     1 2px   1.09829     1 2py  -0.50936
                                    2 1s   -0.25709     2 1s   -0.26710     2 2px  -0.36607     2 2px   1.09839     2 2py  -0.50894
                                    3 1s   -0.59027     3 1s    1.14460     4 1s   -0.48572     4 1s    0.45734     5 1s    0.48648
                                    5 1s   -0.45794     6 1s    0.59074     6 1s   -1.14454
   24.1    -0.00000     1.19293     1 1s   -0.48802     1 1s    0.73908     1 2px   0.27727     1 2py  -0.32577     1 2py   0.28618
                                    2 1s   -0.48683     2 1s    0.73608     2 2px  -0.27729     2 2py   0.32597     2 2py  -0.28663
                                    3 1s    0.80176     3 1s   -1.00301     6 1s    0.80162     6 1s   -1.00248
   25.1    -0.00000     1.24576     1 1s   -1.25965     1 1s    2.23401     1 2px  -0.51855     1 2py   0.56594     1 2pz  -0.97153
                                    2 1s   -1.26629     2 1s    2.25369     2 2px   0.51426     2 2py  -0.56349     2 2pz   0.97596
                                    3 1s   -0.34696     3 1s   -0.98883     4 1s   -0.38998     4 1s   -0.40286     5 1s   -0.39035
                                    5 1s   -0.40584     6 1s   -0.34676     6 1s   -0.99137
   26.1    -0.00000     1.27136     1 1s   -1.61971     1 1s    5.02569     1 2px   1.19655     1 2py  -0.70111     1 2pz  -1.19537
                                    2 1s    1.61500     2 1s   -5.01735     2 2px   1.19846     2 2py  -0.70328     2 2pz  -1.19139
                                    3 1s   -0.52369     4 1s   -0.65774     5 1s    0.65637     6 1s    0.52026
   27.1    -0.00000     1.69329     1 1s    0.61252     1 3d0   0.35704     1 3d2- -0.29574     1 3d2+ -0.32427     2 1s   -0.61251
                                    2 3d0  -0.35704     2 3d2-  0.29574     2 3d2+  0.32427
   28.1    -0.00000     1.92590     1 1s    0.32107     1 1s   -0.67661     1 2pz   0.35039     1 3d0   0.35610     1 3d1+  0.33971
                                    1 3d2+  0.34617     1 3d1-  0.31445     2 1s    0.31768     2 1s   -0.66176     2 2pz  -0.34641
                                    2 3d0   0.35505     2 3d1+  0.34392     2 3d2+  0.34797     2 3d1-  0.31855     3 1s    0.27822
                                    6 1s    0.27809
   29.1    -0.00000     1.92875     1 1s   -0.29836     1 1s    1.31583     1 2px   0.30909     1 2pz  -0.34558     1 3d2- -0.31348
                                    1 3d1+  0.39565     1 3d1-  0.38687     2 1s    0.30162     2 1s   -1.32280     2 2px   0.30712
                                    2 2pz  -0.34918     2 3d2-  0.31290     2 3d1+ -0.39194     2 3d1- -0.38343     3 1s   -0.32123
                                    6 1s    0.32368
   30.1    -0.00000     2.18195     1 1s    0.34967     1 1s   -1.62441     1 2px  -0.38054     1 2py   0.27853     1 2pz   0.43924
                                    1 3d0   0.56505     1 3d2+  0.36460     2 1s   -0.34989     2 1s    1.62480     2 2px  -0.38051
                                    2 2py   0.27836     2 2pz   0.43943     2 3d0  -0.56509     2 3d2+ -0.36454     3 1s    0.35006
                                    4 1s    0.33564     5 1s   -0.33557     6 1s   -0.35026
   31.1    -0.00000     2.22643     1 1s    0.47376     1 1s   -0.31185     1 2px   0.26505     1 2px  -0.28072     1 3d2-  0.32699
                                    1 3d1+  0.39096     1 3d2+ -0.38776     2 1s    0.47363     2 1s   -0.31126     2 2px  -0.26504
                                    2 2px   0.28062     2 3d2-  0.32681     2 3d1+  0.39093     2 3d2+ -0.38790
   32.1    -0.00000     2.34599     1 2py   0.36987     1 3d0   0.52427     1 3d2- -0.35482     1 3d1- -0.36583     2 2py  -0.37010
                                    2 3d0   0.52440     2 3d2- -0.35470     2 3d1- -0.36576     3 1s   -0.28919     4 1s    0.36756
                                    5 1s    0.36774     6 1s   -0.28894
   33.1    -0.00000     2.57671     1 2py  -0.29877     1 3d2-  0.48422     1 3d1-  0.60143     2 2py  -0.29879     2 3d2- -0.48432
                                    2 3d1- -0.60128     3 1s    0.49853     4 1s   -0.40163     5 1s    0.40175     6 1s   -0.49838
   34.1    -0.00000     2.62734     1 2py   0.31891     1 3d2-  0.46910     1 3d2+  0.50087     1 3d1- -0.49102     2 2py  -0.31909
                                    2 3d2-  0.46907     2 3d2+  0.50089     2 3d1- -0.49114     4 1s    0.35525     5 1s    0.35543
   35.1    -0.00000     2.70818     1 3d0  -0.39813     1 3d2- -0.44386     1 3d1+  0.49262     1 3d1- -0.32090     2 3d0  -0.39814
                                    2 3d2- -0.44402     2 3d1+  0.49274     2 3d1- -0.32110     3 1s   -0.47129     6 1s   -0.47150
   36.1    -0.00000     2.94528     1 1s   -1.73138     1 2px  -0.40713     1 2px  -0.87795     1 2pz   0.44721     1 3d2-  0.33487
                                    1 3d1+  0.69522     1 3d2+ -0.63752     2 1s    1.73136     2 2px  -0.40714     2 2px  -0.87795
                                    2 2pz   0.44719     2 3d2- -0.33492     2 3d1+ -0.69516     2 3d2+  0.63758


 Natural orbital dump (state averaged) at molpro section  2140.2    (Orbital set 2)



 **********************************************************************************************************************************
 DATASETS  * FILE   NREC   LENGTH (MB)   RECORD NAMES
              1      20       31.86       500      610      700      900      950      970     1000      129      960     1100   
                                          VAR    BASINP    GEOM    SYMINP    ZMAT    AOBASIS   BASIS     P2S    ABASIS      S 
                                         1400     1410     1200     1210     1080     1600     1650     1300     1700     1380   
                                           T        V       H0       H01     AOSYM     SMH    MOLCAS    ERIS     OPER     JKOP   

              2       5        5.42       700     1000      520     2100     2140   
                                         GEOM     BASIS   MCVARS     RHF     MCSCF   

 PROGRAMS   *        TOTAL     MULTI    HF-SCF       INT
 CPU TIMES  *         0.86      0.34      0.14      0.27
 REAL TIME  *         1.67 SEC
 DISK USED  *        39.04 MB
 **********************************************************************************************************************************
 Molecular orbitals read from record     2140.2  Type=MCSCF/NATURAL (state averaged)
 Occupation numbers read from record     2140.2  Type=MCSCF/NATURAL (state averaged)
 Orbital energies read from record       2140.2  Type=MCSCF/NATURAL (state averaged)
 Redundancy group numbers read from rec  2140.2  Type=MCSCF/NATURAL (state averaged)

 MULTI/6-31G* energy=    -77.559673170837

           MULTI          HF-SCF
    -77.55967317    -77.84392387
 **********************************************************************************************************************************
 Molpro calculation terminated
