
 Primary working directories    : /scratch.local/johan406.molpro_temp/molpro.7UtRK0lW2s
 Secondary working directories  : /scratch.local/johan406.molpro_temp/molpro.7UtRK0lW2s
 Wavefunction directory         : /home/goodpast/johan406/wfu/
 Main file repository           : /scratch.local/johan406.molpro_temp/molpro.7UtRK0lW2s/

 id        : roweumn

 Nodes     nprocs
 acn09        1

 Using customized tuning parameters: mindgm=1; mindgv=20; mindgc=4; mindgr=1; noblas=0; minvec=7
 default implementation of scratch files=df  


 Variables initialized (934), CPU time= 0.00 sec
                                                                                 !leave this line blank
 
 gprint, orbitals=30
 memory, 125., m
 symmetry, nosym
 nelect=16
 basis=6-31g*
 
 geometry={
 C -0.6291 0.1412 0.3004
 C 0.6327 -0.1841 -0.3573
 H -1.2847 0.8744 -0.1743
 H -0.9129 -0.8811 -0.141
 H 1.0204 0.8013 0.0735
 H 1.2584 -0.9683 0.0751
 }
 
 hf
 {multi,
 closed 7
 occ 9
 wf,spin=0;STATE,3
 }
 
 Commands  initialized (763), CPU time= 0.01 sec, 617 directives.
 Default parameters read. Elapsed time= 0.08 sec

 Checking input...
 Passed
1


                                         ***  PROGRAM SYSTEM MOLPRO  ***
                                       Copyright, TTI GmbH Stuttgart, 2015
                                    Version 2019.2 linked Oct 25 2019 22:50:27


 **********************************************************************************************************************************
 LABEL *                                                                                 
  64 bit serial version                                                                  DATE: 07-Feb-23          TIME: 14:49:12  
 **********************************************************************************************************************************

 SHA1:             8dbd9ae1082e4ce945b0f27595c9eb2d4aa09004
 **********************************************************************************************************************************


 Variable memory set to  125000000 words,  buffer space 

 SETTING NELECT         =        16.00000000                                  
 SETTING BASIS          =    6-31G*
 ZSYMEL=NOSYM


Geometry recognized as XYZ



 Recomputing integrals since basis changed


 Using spherical harmonics

 Library entry C      S 6-31G                selected for orbital group  1
 Library entry C      P 6-31G                selected for orbital group  1
 Library entry C      D 6-31G*               selected for orbital group  1
 Library entry H      S 6-31G                selected for orbital group  2


 PROGRAM * SEWARD (Integral evaluation for generally contracted gaussian basis sets)     Author: Roland Lindh, 1990

 Geometry written to block  1 of record 700


 Point group  C1  



 ATOMIC COORDINATES

 NR  ATOM    CHARGE       X              Y              Z

   1  C       6.00   -1.188826705    0.266829329    0.567673728
   2  C       6.00    1.195629719   -0.347898580   -0.675199144
   3  H       1.00   -2.427731152    1.652376523   -0.329379264
   4  H       1.00   -1.725130979   -1.665037688   -0.266451384
   5  H       1.00    1.928276538    1.514237544    0.138894870
   6  H       1.00    2.378031355   -1.829821806    0.141918432

 Bond lengths in Bohr (Angstrom)

 1-2  2.758306693  1-3  2.063814267  1-4  2.171519548  2-5  2.160340567  2-6  2.064425153
     ( 1.459633043)     ( 1.092123477)     ( 1.149118658)     ( 1.143202996)     ( 1.092446745)

 Bond angles

  1-2-5   86.05891511   1-2-6  118.47364554   2-1-3  118.20990692   2-1-4   80.91774900

  3-1-4  106.38219080   5-2-6  105.98322855

 NUCLEAR CHARGE:                   16
 NUMBER OF PRIMITIVE AOS:          72
 NUMBER OF SYMMETRY AOS:           70
 NUMBER OF CONTRACTIONS:           36   (   36A   )
 NUMBER OF CORE ORBITALS:           2   (    2A   )
 NUMBER OF VALENCE ORBITALS:       12   (   12A   )


 NUCLEAR REPULSION ENERGY   32.35838161

 Eigenvalues of metric

         1 0.928E-02 0.274E-01 0.596E-01 0.644E-01 0.803E-01 0.218E+00 0.237E+00 0.272E+00


 Contracted 2-electron integrals neglected if value below      1.0D-11
 AO integral compression algorithm  1   Integral accuracy      1.0D-11

     1.573 MB (compressed) written to integral file ( 59.2%)


 NUMBER OF SORTED TWO-ELECTRON INTEGRALS:     222111.     BUFFER LENGTH:  32768
 NUMBER OF SEGMENTS:   1  SEGMENT LENGTH:     222111      RECORD LENGTH: 524288

 Memory used in sort:       0.78 MW

 SORT1 READ      284735. AND WROTE      212531. INTEGRALS IN      1 RECORDS. CPU TIME:     0.00 SEC, REAL TIME:     0.00 SEC
 SORT2 READ      212531. AND WROTE      222111. INTEGRALS IN      6 RECORDS. CPU TIME:     0.03 SEC, REAL TIME:     0.03 SEC

 FILE SIZES:   FILE 1:    31.7 MBYTE,  FILE 4:     4.2 MBYTE,   TOTAL:     35.9 MBYTE

 OPERATOR DM      FOR CENTER  0  COORDINATES:    0.000000    0.000000    0.000000


 **********************************************************************************************************************************
 DATASETS  * FILE   NREC   LENGTH (MB)   RECORD NAMES
              1      19       31.13       500      610      700      900      950      970     1000      129      960     1100   
                                          VAR    BASINP    GEOM    SYMINP    ZMAT    AOBASIS   BASIS     P2S    ABASIS      S 
                                         1400     1410     1200     1210     1080     1600     1650     1300     1700   
                                           T        V       H0       H01     AOSYM     SMH    MOLCAS    ERIS     OPER   

 PROGRAMS   *        TOTAL       INT
 CPU TIMES  *         0.29      0.18
 REAL TIME  *         0.43 SEC
 DISK USED  *        36.24 MB
 **********************************************************************************************************************************


 PROGRAM * RHF-SCF (CLOSED SHELL)       Authors: W. Meyer, H.-J. Werner


 NUMBER OF ELECTRONS:       8+    8-    SPACE SYMMETRY=1    SPIN SYMMETRY: Singlet 
 CONVERGENCE THRESHOLDS:    1.00E-05 (Density)    1.00E-07 (Energy)
 MAX. NUMBER OF ITERATIONS:       60
 INTERPOLATION TYPE:            DIIS
 INTERPOLATION STEPS:              2 (START)      1 (STEP)
 LEVEL SHIFTS:                  0.00 (CLOSED)  0.00 (OPEN) 



 Orbital guess generated from atomic densities. Full valence occupancy:    8

 Molecular orbital dump at record        2100.2

 Initial occupancy:   8

 ITERATION    DDIFF          GRAD             ENERGY        2-EL.EN.            DIPOLE MOMENTS         DIIS   ORB.
    1      0.000D+00      0.000D+00       -77.82724020    115.920866    0.02590   -0.03246   -0.04356    0    start
    2      0.000D+00      0.704D-02       -77.84524073    114.901822    0.00719    0.00285   -0.00785    1    diag
    3      0.756D-02      0.229D-02       -77.84732077    115.316797    0.02890   -0.01134   -0.03904    2    diag
    4      0.296D-02      0.867D-03       -77.84777119    115.193840    0.01369    0.00031   -0.01523    3    diag
    5      0.161D-02      0.345D-03       -77.84787390    115.191109    0.02574   -0.00726   -0.03274    4    diag
    6      0.655D-03      0.233D-03       -77.84794046    115.198212    0.02087   -0.00407   -0.02506    5    diag
    7      0.589D-03      0.101D-03       -77.84796942    115.199366    0.02151   -0.00501   -0.02598    6    diag
    8      0.515D-03      0.296D-04       -77.84797162    115.200401    0.02138   -0.00507   -0.02588    7    diag
    9      0.146D-03      0.877D-05       -77.84797177    115.200597    0.02130   -0.00517   -0.02588    8    diag
   10      0.376D-04      0.256D-05       -77.84797178    115.200578    0.02127   -0.00517   -0.02587    9    orth
   11      0.770D-05      0.573D-06       -77.84797178    115.200580    0.02127   -0.00518   -0.02587    0    orth

 Final occupancy:   8

 !RHF STATE  1.1 Energy               -77.847971784542
 Nuclear energy                        32.35838161
 One-electron energy                 -167.80664341
 Two-electron energy                   57.60029001
 Virial quotient                       -1.00126885
 !RHF STATE  1.1 Dipole moment          0.02126702    -0.00517743    -0.02587200
 Dipole moment /Debye                   0.05405184    -0.01315886    -0.06575575

 ELECTRON ORBITALS
 =================

  Orbital  Occupation    Energy     Coefficients
    1.1     2.00000   -11.26180     2 1s    0.99065
    2.1     2.00000   -11.25777     1 1s    0.99066
    3.1     2.00000    -1.03728     1 1s    0.28156     2 1s    0.28438     2 1s    0.25096
    4.1     2.00000    -0.78406     1 1s   -0.29325     2 1s    0.29287
    5.1     2.00000    -0.62186     1 2py   0.30452     2 2py   0.31098
    6.1     2.00000    -0.56155     1 2px   0.30495     2 2px  -0.29343
    7.1     2.00000    -0.39204     1 2pz   0.31354     1 2pz   0.28682     2 2pz   0.30224     2 2pz   0.28261
    8.1     2.00000    -0.38668     1 2px   0.28068     2 2px  -0.26256     4 1s   -0.29370     5 1s   -0.27792
    9.1     0.00000     0.06319     1 1s   -0.40065     1 2pz  -0.32827     1 2pz  -0.46443     2 1s   -0.39582     2 2pz   0.33282
                                    2 2pz   0.47222
   10.1     0.00000     0.23121     1 1s   -1.03809     1 2px   0.47368     1 2py   0.41445     1 2pz   0.42763     2 1s   -1.14974
                                    2 2px  -0.48776     2 2py  -0.31524     2 2pz  -0.43401     3 1s    0.52216     4 1s    1.10669
                                    5 1s    1.06321     6 1s    0.62067
   11.1     0.00000     0.28212     1 1s   -1.60350     1 2py  -0.31665     1 2pz   0.49969     2 1s    1.52693     2 2py  -0.39644
                                    2 2pz   0.42228     3 1s    1.46534     6 1s   -1.42485
   12.1     0.00000     0.31290     1 1s   -0.84398     1 2px   0.42141     1 2py  -0.94701     1 2pz   0.48860     2 1s   -0.65358
                                    2 2px  -0.36422     2 2py   1.07871     2 2pz  -0.41289     3 1s    1.55486     4 1s   -0.29864
                                    5 1s   -0.55178     6 1s    1.55472
   13.1     0.00000     0.33512     1 1s   -0.97627     1 2py   0.80238     1 2pz   0.26061     2 1s    1.11765     2 2px   0.36581
                                    2 2py   0.70938     2 2pz   0.37246     4 1s    1.70025     5 1s   -1.68250
   14.1     0.00000     0.42365     1 1s    2.03639     1 2px   1.79043     1 2py  -0.61856     1 2pz  -0.77934     2 1s   -2.02739
                                    2 2px   1.77435     2 2py  -0.64422     2 2pz  -0.80058     3 1s    0.62824     6 1s   -0.62144
   15.1     0.00000     0.70293     1 2px  -0.55205     1 2px   0.92396     2 2px   0.54829     2 2px  -0.93771     4 1s   -0.46644
                                    5 1s   -0.38649
   16.1     0.00000     0.75903     1 1s   -0.28449     1 2py  -0.40546     1 2px  -0.65356     1 2py   0.82723     2 1s    0.33255
                                    2 2py  -0.34941     2 2px  -0.57924     2 2py   0.75244     3 1s   -0.49487     4 1s    0.25386
                                    6 1s    0.47502
   17.1     0.00000     0.78903     1 2py   0.58064     1 2pz   0.35956     1 2py  -1.21390     1 2pz  -0.34772     2 1s   -0.29730
                                    2 2py  -0.57921     2 2py   1.22484     4 1s   -0.30922     5 1s   -0.25469
   18.1     0.00000     0.80010     1 2pz  -0.66585     1 2pz   0.63486     2 2pz  -0.78542     2 2py   0.29514     2 2pz   0.76237
   19.1     0.00000     0.86455     1 1s   -0.36601     1 2pz  -0.70908     1 2px   0.47656     1 2py  -0.52778     1 2pz   0.97896
                                    2 1s   -0.34358     2 2pz   0.66556     2 2px  -0.43235     2 2py   0.53963     2 2pz  -0.94118
   20.1     0.00000     0.97377     1 2px  -0.71181     1 2py  -0.36469     1 2px   1.10337     1 2py   0.73455     2 2px  -0.72054
                                    2 2py  -0.37689     2 2px   1.20518     2 2py   0.80746     4 1s    1.05566     5 1s   -1.03676
   21.1     0.00000     1.11655     1 1s   -0.59745     1 1s    0.95605     1 2py   0.44470     1 2px  -0.42983     1 2py  -0.40322
                                    2 1s   -0.72062     2 1s    1.45664     2 2px  -0.26308     2 2py  -0.36598     2 2px   0.26647
                                    2 2py   0.39960     2 2pz   0.25395     4 1s    0.73195     4 1s   -1.25035     5 1s    0.56250
                                    5 1s   -1.11604
   22.1     0.00000     1.13602     1 1s   -0.27107     1 2px   0.41460     1 2py  -0.55783     1 2px  -0.73988     1 2py   0.88966
                                    2 2px   0.37011     2 2py  -0.64528     2 2px  -0.70781     2 2py   1.03869     3 1s    0.50063
                                    3 1s   -1.15705     4 1s   -0.27107     4 1s    0.64782     5 1s    0.35201     5 1s   -0.70359
                                    6 1s   -0.51673     6 1s    1.28312
   23.1     0.00000     1.18108     1 1s    0.34225     1 2pz  -0.26117     1 2px   0.72368     2 1s   -0.38614     2 2pz  -0.26152
                                    2 2px   0.77126     3 1s   -0.37384     3 1s    0.63824     4 1s   -0.65820     4 1s    0.83299
                                    5 1s    0.80670     5 1s   -0.98463     6 1s    0.39159     6 1s   -0.63646
   24.1     0.00000     1.18971     1 1s   -0.65316     1 1s    1.05309     1 2px   0.30484     1 2py  -0.32009     1 2px  -0.30110
                                    1 2py   0.32371     2 1s   -0.58602     2 1s    0.91067     2 2px  -0.28331     2 2py   0.30287
                                    2 2px   0.29733     2 2py  -0.28888     3 1s    0.78230     3 1s   -1.13253     6 1s    0.74706
                                    6 1s   -1.03579
   25.1     0.00000     1.25734     1 1s   -1.40571     1 1s    2.88036     1 2px  -0.35981     1 2py   0.41118     1 2pz  -1.17885
                                    2 1s   -0.94601     2 1s    1.35067     2 2px   0.68525     2 2py  -0.67025     2 2pz   0.77402
                                    3 1s   -0.40493     3 1s   -1.01093     4 1s   -0.49113     4 1s   -0.43668     5 1s   -0.32671
                                    5 1s   -0.28281     6 1s   -0.41348     6 1s   -0.80076
   26.1     0.00000     1.28806     1 1s    1.41692     1 1s   -4.74959     1 2px  -1.33924     1 2py   0.82402     1 2pz   1.05554
                                    2 1s   -1.74432     2 1s    5.34033     2 2px  -1.13505     2 2py   0.67656     2 2pz   1.35569
                                    3 1s    0.29196     4 1s    0.65452     5 1s   -0.35272     5 1s   -0.65972     6 1s   -0.60657
   27.1     0.00000     1.69667     1 1s    0.58213     1 3d0   0.37814     1 3d2- -0.31000     1 3d2+ -0.29850     2 1s   -0.54996
                                    2 3d0  -0.31822     2 3d2-  0.27902     2 3d2+  0.35431
   28.1     0.00000     1.92032     1 1s    0.34630     1 1s   -0.81542     1 2pz   0.39794     1 3d0   0.35094     1 3d1+  0.32719
                                    1 3d2+  0.34988     1 3d1-  0.31270     2 1s    0.28906     2 1s   -0.51696     2 2pz  -0.30294
                                    2 3d0   0.35397     2 3d1+  0.35412     2 3d2+  0.33718     2 3d1-  0.32574     3 1s    0.27138
                                    6 1s    0.29014
   29.1     0.00000     1.94064     1 1s   -0.31309     1 1s    1.38049     1 2px   0.32761     1 2pz  -0.36237     1 3d2- -0.29201
                                    1 3d1+  0.41262     1 3d1-  0.40901     2 1s    0.30675     2 1s   -1.37536     2 2px   0.31157
                                    2 2pz  -0.35383     2 3d2-  0.31900     2 3d1+ -0.37415     2 3d1- -0.36153     3 1s   -0.32634
                                    6 1s    0.33083
   30.1     0.00000     2.17932     1 1s   -0.26744     1 1s    1.54473     1 2px   0.36040     1 2pz  -0.40589     1 3d0  -0.51881
                                    1 3d2+ -0.39040     2 1s    0.41602     2 1s   -1.69865     2 2px   0.38784     2 2py  -0.30875
                                    2 2pz  -0.46376     2 3d0   0.60797     2 3d2+  0.31451     3 1s   -0.34808     4 1s   -0.31894
                                    5 1s    0.33495     6 1s    0.34395
   31.1     0.00000     2.25151     1 1s   -0.54541     1 1s    0.57561     1 2px  -0.25978     1 2px   0.35585     1 3d2- -0.34092
                                    1 3d1+ -0.39190     1 3d2+  0.35344     2 1s   -0.43340     2 2px   0.25842     2 3d2- -0.26522
                                    2 3d1+ -0.37272     2 3d2+  0.42327
   32.1     0.00000     2.35007     1 2py   0.37062     1 3d0   0.53136     1 3d2- -0.35344     1 3d1- -0.37274     2 2py  -0.35363
                                    2 3d0   0.49719     2 3d2- -0.37605     2 3d1- -0.35290     3 1s   -0.28256     4 1s    0.40809
                                    5 1s    0.39139     6 1s   -0.26931
   33.1     0.00000     2.58078     1 1s   -0.28343     1 3d2- -0.50000     1 3d1- -0.53838     2 1s    0.28240     2 2py   0.34751
                                    2 3d2-  0.46267     2 3d1-  0.64793     3 1s   -0.49100     4 1s    0.34613     5 1s   -0.46686
                                    6 1s    0.48071
   34.1     0.00000     2.64307     1 2py  -0.34159     1 3d2- -0.41291     1 3d2+ -0.53503     1 3d1-  0.56263     2 2py   0.29097
                                    2 3d2- -0.47315     2 3d2+ -0.49809     2 3d1-  0.44190     4 1s   -0.40606     5 1s   -0.30250
   35.1     0.00000     2.72061     1 3d0  -0.39907     1 3d2- -0.48134     1 3d1+  0.50889     1 3d1- -0.26728     2 3d0  -0.41501
                                    2 3d2- -0.49259     2 3d1+  0.48538     2 3d1- -0.27202     3 1s   -0.47800     6 1s   -0.47094
   36.1     0.00000     2.95972     1 1s   -1.71912     1 2px  -0.43567     1 2px  -0.87460     1 2pz   0.43979     1 3d2-  0.34041
                                    1 3d1+  0.69787     1 3d2+ -0.64283     2 1s    1.72344     2 2px  -0.43669     2 2px  -0.87555
                                    2 2pz   0.44081     2 3d2- -0.35321     2 3d1+ -0.69592     2 3d2+  0.64505


 HOMO      8.1    -0.386677 =     -10.5220eV
 LUMO      9.1     0.063189 =       1.7195eV
 LUMO-HOMO         0.449866 =      12.2415eV


 **********************************************************************************************************************************
 DATASETS  * FILE   NREC   LENGTH (MB)   RECORD NAMES
              1      19       31.13       500      610      700      900      950      970     1000      129      960     1100   
                                          VAR    BASINP    GEOM    SYMINP    ZMAT    AOBASIS   BASIS     P2S    ABASIS      S 
                                         1400     1410     1200     1210     1080     1600     1650     1300     1700   
                                           T        V       H0       H01     AOSYM     SMH    MOLCAS    ERIS     OPER   

              2       4        2.86       700     1000      520     2100   
                                         GEOM     BASIS   MCVARS     RHF  

 PROGRAMS   *        TOTAL    HF-SCF       INT
 CPU TIMES  *         0.39      0.10      0.18
 REAL TIME  *         0.59 SEC
 DISK USED  *        36.24 MB
 **********************************************************************************************************************************


 PROGRAM * MULTI (Direct Multiconfiguration SCF)       Authors: P.J. Knowles, H.-J. Werner (1984)


 Number of closed-shell orbitals:   7 (   7 )
 Number of active  orbitals:        2 (   2 )
 Number of external orbitals:      27 (  27 )

 State symmetry 1

 Number of electrons:     2    Spin symmetry=Singlet   Space symmetry=1
 Number of states:        3
 Number of CSFs:          3   (4 determinants, 4 intermediate states)

 Molecular orbitals read from record     2100.2  Type=RHF/CANONICAL (state 1.1)

 Wavefunction dump at record             2140.2

 Convergence thresholds  0.10E-01 (gradient)  0.10E-05 (energy)  0.10E-02 (step length)

 Weight factors for state symmetry  1:    0.33333   0.33333   0.33333

 Number of orbital rotations:      257   (    14 Core/Active    189 Core/Virtual   0 Active/Active     54 Active/Virtual)
 Total number of variables:        269

 Micro-Iterations solved by the two-step solver

 ITER. MIC  NCI  NEG     ENERGY(VAR)     ENERGY(PROJ)   ENERGY CHANGE     GRAD(0)  GRAD(ORB)   GRAD(CI)     STEP       TIME

   1   12    6    0     -77.69141025     -77.71128656   -0.01987630    0.16675003 0.00174535 0.00000000  0.14D+00      0.15
   2    7    5    0     -77.71097094     -77.71099686   -0.00002592    0.00747468 0.00000926 0.00000000  0.53D-02      0.25
   3    8    5    0     -77.71099691     -77.71099691   -0.00000000    0.00001769 0.00000000 0.00000000  0.23D-04      0.36

 ** WVFN ****  CONVERGENCE REACHED, FINAL GRADIENT:  0.20D-09



 Results for state 1.1
 =====================

 !MCSCF STATE  1.1 Energy             -77.841590966790
 Nuclear energy                        32.35838161
 Kinetic energy                        77.80382810
 One electron energy                 -167.88109367
 Two electron energy                   57.68112109
 Virial ratio                           2.00048536

 !MCSCF STATE  1.1 Dipole moment        0.02363368     0.00587999    -0.03250986
 Dipole moment /Debye                   0.06006689     0.01494445    -0.08262641

 Results for state 2.1
 =====================

 !MCSCF STATE  2.1 Energy             -77.738717180847
 Nuclear energy                        32.35838161
 Kinetic energy                        77.88051604
 One electron energy                 -167.58014142
 Two electron energy                   57.48304263
 Virial ratio                           1.99817928

 !MCSCF STATE  2.1 Dipole moment        0.00309895    -0.03092023    -0.01217934
 Dipole moment /Debye                   0.00787624    -0.07858624    -0.03095477

 Results for state 3.1
 =====================

 !MCSCF STATE  3.1 Energy             -77.552682568647
 Nuclear energy                        32.35838161
 Kinetic energy                        77.94317724
 One electron energy                 -167.32646532
 Two electron energy                   57.41540114
 Virial ratio                           1.99499001

 !MCSCF STATE  3.1 Dipole moment       -0.01201798    -0.05714384     0.00811274
 Dipole moment /Debye                  -0.03054466    -0.14523565     0.02061917

 State-averaged charge density matrix saved on record  2140.2 (density set 1)

 !MCSCF expec         <1.1|DMX|1.1>     0.023633679074 au =     0.060066886060 Debye
 !MCSCF trans         <2.1|DMX|1.1>     0.010985025629 au =     0.027919321439 Debye
 !MCSCF expec         <2.1|DMX|2.1>     0.003098954936 au =     0.007876241885 Debye
 !MCSCF trans         <3.1|DMX|1.1>     0.002598105579 au =     0.006603293176 Debye
 !MCSCF trans         <3.1|DMX|2.1>     0.013464123149 au =     0.034220146114 Debye
 !MCSCF expec         <3.1|DMX|3.1>    -0.012017982397 au =    -0.030544663702 Debye

 !MCSCF expec         <1.1|DMY|1.1>     0.005879985089 au =     0.014944452503 Debye
 !MCSCF trans         <2.1|DMY|1.1>     0.021571755371 au =     0.054826342016 Debye
 !MCSCF expec         <2.1|DMY|2.1>    -0.030920231552 au =    -0.078586242107 Debye
 !MCSCF trans         <3.1|DMY|1.1>     0.004760129535 au =     0.012098250024 Debye
 !MCSCF trans         <3.1|DMY|2.1>     0.026169335420 au =     0.066511459516 Debye
 !MCSCF expec         <3.1|DMY|3.1>    -0.057143843926 au =    -0.145235650846 Debye

 !MCSCF expec         <1.1|DMZ|1.1>    -0.032509858924 au =    -0.082626407244 Debye
 !MCSCF trans         <2.1|DMZ|1.1>     0.000700467603 au =     0.001780294451 Debye
 !MCSCF expec         <2.1|DMZ|2.1>    -0.012179340653 au =    -0.030954768618 Debye
 !MCSCF trans         <3.1|DMZ|1.1>    -0.001933311990 au =    -0.004913667088 Debye
 !MCSCF trans         <3.1|DMZ|2.1>    -0.000803594709 au =    -0.002042400240 Debye
 !MCSCF expec         <3.1|DMZ|3.1>     0.008112735939 au =     0.020619167408 Debye


 NATURAL ORBITALS (state averaged)
 =================================

  Orbital  Occupation    Energy     Coefficients
    1.1     2.00000   -11.25554     1 1s    0.98280
    2.1     2.00000   -11.25325     2 1s    0.98280
    3.1     2.00000    -1.04994     1 1s    0.27861     2 1s    0.27718
    4.1     2.00000    -0.78484     1 1s   -0.31745     2 1s    0.31914
    5.1     2.00000    -0.62473     1 2py   0.30212     2 2py   0.30006
    6.1     2.00000    -0.55980     1 2px   0.26509     2 2px  -0.25359
    7.1     2.00000    -0.41940     1 2pz   0.32600     1 2pz   0.27932     2 2pz   0.32387     2 2pz   0.28187
    8.1     1.00000    -0.23040     1 2px   0.31167     2 2px  -0.30660     4 1s   -0.30185     5 1s   -0.28785
    9.1     1.00000    -0.08687     1 1s   -0.26762     1 2pz  -0.40404     1 2pz  -0.42594     2 1s   -0.26769     2 2pz   0.40454
                                    2 2pz   0.43308
   10.1    -0.00000     0.21922     1 1s   -1.07367     1 2px   0.46823     1 2py   0.43271     1 2pz   0.37819     2 1s   -1.13113
                                    2 2px  -0.48507     2 2py  -0.32719     2 2pz  -0.36760     3 1s    0.50504     4 1s    1.12842
                                    5 1s    1.06114     6 1s    0.57462
   11.1    -0.00000     0.28111     1 1s   -1.69615     1 2py  -0.27384     1 2pz   0.51498     2 1s    1.61929     2 2py  -0.30479
                                    2 2pz   0.44300     3 1s    1.47454     6 1s   -1.39441
   12.1    -0.00000     0.31497     1 1s   -1.07859     1 2px   0.41848     1 2py  -0.66870     1 2pz   0.50764     2 1s   -0.42282
                                    2 2py   0.27150     2 2px  -0.29145     2 2py   1.25543     2 2pz  -0.28335     3 1s    1.40376
                                    5 1s   -0.93927     6 1s    1.56152
   13.1    -0.00000     0.31995     1 1s   -0.69852     1 2py   0.28208     1 2py   1.08867     2 1s    1.28498     2 2px   0.33258
                                    2 2py   0.48885     2 2pz   0.47590     3 1s   -0.68072     4 1s    1.70679     5 1s   -1.51313
                                    6 1s   -0.39747
   14.1    -0.00000     0.42990     1 1s    1.90121     1 2px   1.79595     1 2py  -0.51133     1 2pz  -0.72523     2 1s   -1.89012
                                    2 2px   1.79243     2 2py  -0.54086     2 2pz  -0.74053     3 1s    0.62424     6 1s   -0.62639
   15.1    -0.00000     0.69961     1 2px  -0.53982     1 2px   0.89621     2 2px   0.53057     2 2px  -0.91787     4 1s    0.25312
                                    4 1s   -0.52085     5 1s   -0.44783
   16.1    -0.00000     0.75605     1 1s   -0.38960     1 2py  -0.40580     1 2px  -0.71108     1 2py   0.87044     2 1s    0.44730
                                    2 2py  -0.32818     2 2px  -0.61901     2 2py   0.74271     3 1s   -0.49488     4 1s    0.27679
                                    6 1s    0.46658
   17.1    -0.00000     0.78800     1 2py   0.54165     1 2pz   0.37584     1 2py  -1.18121     1 2pz  -0.44026     2 1s   -0.29399
                                    2 2py  -0.56054     2 2py   1.20342     4 1s   -0.30990     5 1s   -0.25747
   18.1    -0.00000     0.80041     1 1s   -0.36672     1 2pz  -0.66742     1 2pz   0.70011     2 1s    0.33010     2 2pz  -0.77113
                                    2 2py   0.34987     2 2pz   0.81879
   19.1    -0.00000     0.86266     1 1s   -0.31908     1 2px  -0.25771     1 2pz  -0.66972     1 2px   0.51225     1 2py  -0.53141
                                    1 2pz   1.01897     2 1s   -0.30414     2 2pz   0.65617     2 2px  -0.47051     2 2py   0.54517
                                    2 2pz  -1.01223     3 1s    0.27735     6 1s    0.27323
   20.1    -0.00000     0.98052     1 2px  -0.70921     1 2py  -0.37288     1 2px   1.02295     1 2py   0.75231     2 2px  -0.71718
                                    2 2py  -0.38232     2 2px   1.12705     2 2py   0.82676     4 1s    1.02386     5 1s   -0.99648
   21.1    -0.00000     1.09040     1 1s   -0.60447     1 1s    0.96283     1 2py   0.49258     1 2px  -0.42337     1 2py  -0.48372
                                    2 1s   -0.65851     2 1s    1.32432     2 2px  -0.29592     2 2py  -0.34649     2 2px   0.27337
                                    2 2py   0.39461     4 1s    0.78037     4 1s   -1.29059     5 1s    0.51980     5 1s   -1.00421
   22.1    -0.00000     1.12305     1 1s   -0.25959     1 2px   0.30916     1 2py  -0.53307     1 2px  -0.32154     1 2py   0.75283
                                    2 1s    0.35038     2 2py  -0.67215     2 2py   0.93194     3 1s   -0.68051     4 1s   -0.52458
                                    4 1s    0.93145     5 1s    0.73600     5 1s   -1.18512     6 1s    0.75553
   23.1    -0.00000     1.15897     1 1s    0.27425     1 2px  -0.35193     1 2px   1.03702     1 2py  -0.47046     2 1s   -0.37437
                                    2 2px  -0.39598     2 2px   1.07857     2 2py  -0.50299     3 1s   -0.59978     3 1s    1.15032
                                    4 1s   -0.41461     4 1s    0.38856     5 1s    0.52789     5 1s   -0.55050     6 1s    0.57540
                                    6 1s   -1.17560
   24.1    -0.00000     1.19421     1 1s   -0.60027     1 1s    0.98253     1 2px   0.28122     1 2py  -0.32200     1 2py   0.28935
                                    2 1s   -0.51452     2 1s    0.73188     2 2px  -0.28219     2 2py   0.32198     2 2px   0.29396
                                    2 2py  -0.30252     3 1s    0.78540     3 1s   -1.05704     6 1s    0.78548     6 1s   -1.02197
   25.1    -0.00000     1.24838     1 1s   -1.46399     1 1s    2.97855     1 2px  -0.38528     1 2py   0.43080     1 2pz  -1.18018
                                    2 1s   -0.99200     2 1s    1.43366     2 2px   0.70166     2 2py  -0.68641     2 2pz   0.77488
                                    3 1s   -0.37708     3 1s   -1.06470     4 1s   -0.44962     4 1s   -0.49569     5 1s   -0.30285
                                    5 1s   -0.32453     6 1s   -0.39472     6 1s   -0.83643
   26.1    -0.00000     1.28208     1 1s    1.40201     1 1s   -4.71766     1 2px  -1.35606     1 2py   0.79003     1 2pz   1.03519
                                    2 1s   -1.77246     2 1s    5.38099     2 2px  -1.13707     2 2py   0.63821     2 2pz   1.34399
                                    3 1s    0.29286     4 1s    0.60117     5 1s   -0.34911     5 1s   -0.64315     6 1s   -0.64304
   27.1    -0.00000     1.69147     1 1s    0.61115     1 3d0   0.37223     1 3d2- -0.31533     1 3d2+ -0.30180     2 1s   -0.57573
                                    2 3d0  -0.31169     2 3d2-  0.28214     2 3d2+  0.35486
   28.1    -0.00000     1.91758     1 1s    0.32369     1 1s   -0.75093     1 2pz   0.37792     1 3d0   0.34963     1 3d1+  0.34103
                                    1 3d2+  0.36771     1 3d1-  0.32963     2 1s    0.29022     2 1s   -0.55598     2 2pz  -0.30966
                                    2 3d0   0.35155     2 3d1+  0.33234     2 3d2+  0.33462     2 3d1-  0.30866     3 1s    0.26607
                                    6 1s    0.28781
   29.1    -0.00000     1.93749     1 1s   -0.31978     1 1s    1.37947     1 2px   0.31059     1 2pz  -0.36881     1 3d2- -0.28981
                                    1 3d1+  0.40158     1 3d1-  0.39564     2 1s    0.28688     2 1s   -1.31941     2 2px   0.30892
                                    2 2pz  -0.33224     2 3d2-  0.31936     2 3d1+ -0.39186     2 3d1- -0.37220     3 1s   -0.33739
                                    6 1s    0.32386
   30.1    -0.00000     2.17966     1 1s   -0.26783     1 1s    1.52554     1 2px   0.35544     1 2pz  -0.39629     1 3d0  -0.52128
                                    1 3d2+ -0.39311     2 1s    0.42197     2 1s   -1.68908     2 2px   0.38061     2 2py  -0.30716
                                    2 2pz  -0.46026     2 3d0   0.61149     2 3d2+  0.31710     3 1s   -0.34358     4 1s   -0.31545
                                    5 1s    0.32749     6 1s    0.34584
   31.1    -0.00000     2.24690     1 1s   -0.54143     1 1s    0.58949     1 2px  -0.26551     1 2px   0.35022     1 3d2- -0.35401
                                    1 3d1+ -0.39955     1 3d2+  0.35361     2 1s   -0.42575     2 2px   0.26485     2 3d2- -0.27978
                                    2 3d1+ -0.38079     2 3d2+  0.42018
   32.1    -0.00000     2.34412     1 2py   0.38796     1 3d0   0.53130     1 3d2- -0.34951     1 3d1- -0.38725     2 2py  -0.36820
                                    2 3d0   0.49752     2 3d2- -0.36819     2 3d1- -0.36505     3 1s   -0.29802     4 1s    0.39792
                                    5 1s    0.37806     6 1s   -0.28073
   33.1    -0.00000     2.57547     1 1s   -0.26859     1 3d2- -0.50523     1 3d1- -0.53582     2 1s    0.26914     2 2py   0.35063
                                    2 3d2-  0.46198     2 3d1-  0.65214     3 1s   -0.49522     4 1s    0.33558     5 1s   -0.45859
                                    6 1s    0.48255
   34.1    -0.00000     2.63485     1 2py  -0.34755     1 3d2- -0.41443     1 3d2+ -0.53048     1 3d1-  0.56583     2 2py   0.29562
                                    2 3d2- -0.48277     2 3d2+ -0.49285     2 3d1-  0.44187     4 1s   -0.39694     5 1s   -0.29338
   35.1    -0.00000     2.72557     1 3d0  -0.40704     1 3d2- -0.46844     1 3d1+  0.51191     1 3d1- -0.26443     2 3d0  -0.42312
                                    2 3d2- -0.48404     2 3d1+  0.49174     2 3d1- -0.27415     3 1s   -0.47332     6 1s   -0.47135
   36.1    -0.00000     2.95548     1 1s   -1.74883     1 2px  -0.42954     1 2px  -0.88681     1 2py   0.25156     1 2pz   0.44755
                                    1 3d2-  0.33830     1 3d1+  0.70018     1 3d2+ -0.63874     2 1s    1.75356     2 2px  -0.43032
                                    2 2px  -0.88736     2 2pz   0.44880     2 3d2- -0.35102     2 3d1+ -0.69932     2 3d2+  0.64366


 Natural orbital dump (state averaged) at molpro section  2140.2    (Orbital set 2)



 **********************************************************************************************************************************
 DATASETS  * FILE   NREC   LENGTH (MB)   RECORD NAMES
              1      20       31.86       500      610      700      900      950      970     1000      129      960     1100   
                                          VAR    BASINP    GEOM    SYMINP    ZMAT    AOBASIS   BASIS     P2S    ABASIS      S 
                                         1400     1410     1200     1210     1080     1600     1650     1300     1700     1380   
                                           T        V       H0       H01     AOSYM     SMH    MOLCAS    ERIS     OPER     JKOP   

              2       5        5.42       700     1000      520     2100     2140   
                                         GEOM     BASIS   MCVARS     RHF     MCSCF   

 PROGRAMS   *        TOTAL     MULTI    HF-SCF       INT
 CPU TIMES  *         0.79      0.40      0.10      0.18
 REAL TIME  *         1.06 SEC
 DISK USED  *        39.04 MB
 **********************************************************************************************************************************
 Molecular orbitals read from record     2140.2  Type=MCSCF/NATURAL (state averaged)
 Occupation numbers read from record     2140.2  Type=MCSCF/NATURAL (state averaged)
 Orbital energies read from record       2140.2  Type=MCSCF/NATURAL (state averaged)
 Redundancy group numbers read from rec  2140.2  Type=MCSCF/NATURAL (state averaged)

 MULTI/6-31G* energy=    -77.552682568647

           MULTI          HF-SCF
    -77.55268257    -77.84797178
 **********************************************************************************************************************************
 Molpro calculation terminated
