
 Primary working directories    : /scratch.local/johan406.molpro_temp/molpro.IXEEPGys1U
 Secondary working directories  : /scratch.local/johan406.molpro_temp/molpro.IXEEPGys1U
 Wavefunction directory         : /home/goodpast/johan406/wfu/
 Main file repository           : /scratch.local/johan406.molpro_temp/molpro.IXEEPGys1U/

 id        : roweumn

 Nodes     nprocs
 cn0391       1

 Using customized tuning parameters: mindgm=1; mindgv=20; mindgc=4; mindgr=1; noblas=0; minvec=7
 default implementation of scratch files=df  


 Variables initialized (934), CPU time= 0.01 sec
                                                                                 !leave this line blank
 
 gprint, orbitals=30
 memory, 125., m
 symmetry, nosym
 nelect=16
 basis=6-31g*
 
 geometry={
 C -0.6826 0.1463 0.3311
 C 0.6915 -0.1962 -0.3914
 H -1.2131 0.9612 -0.1766
 H -0.8563 -0.8727 -0.1202
 H 0.8653 0.8228 0.0598
 H 1.222 -1.0111 0.1161
 }
 
 hf
 {multi,
 closed 7
 occ 9
 wf,spin=0;STATE,3
 }
 
 Commands  initialized (763), CPU time= 0.01 sec, 617 directives.
 Default parameters read. Elapsed time= 0.07 sec

 Checking input...
 Passed
1


                                         ***  PROGRAM SYSTEM MOLPRO  ***
                                       Copyright, TTI GmbH Stuttgart, 2015
                                    Version 2019.2 linked Oct 25 2019 22:50:27


 **********************************************************************************************************************************
 LABEL *                                                                                 
  64 bit serial version                                                                  DATE: 07-Feb-23          TIME: 15:30:35  
 **********************************************************************************************************************************

 SHA1:             8dbd9ae1082e4ce945b0f27595c9eb2d4aa09004
 **********************************************************************************************************************************


 Variable memory set to  125000000 words,  buffer space 

 SETTING NELECT         =        16.00000000                                  
 SETTING BASIS          =    6-31G*
 ZSYMEL=NOSYM


Geometry recognized as XYZ



 Recomputing integrals since basis changed


 Using spherical harmonics

 Library entry C      S 6-31G                selected for orbital group  1
 Library entry C      P 6-31G                selected for orbital group  1
 Library entry C      D 6-31G*               selected for orbital group  1
 Library entry H      S 6-31G                selected for orbital group  2


 PROGRAM * SEWARD (Integral evaluation for generally contracted gaussian basis sets)     Author: Roland Lindh, 1990

 Geometry written to block  1 of record 700


 Point group  C1  



 ATOMIC COORDINATES

 NR  ATOM    CHARGE       X              Y              Z

   1  C       6.00   -1.289927053    0.276466932    0.625688320
   2  C       6.00    1.306745615   -0.370764266   -0.739638805
   3  H       1.00   -2.292426762    1.816404751   -0.333725634
   4  H       1.00   -1.618172480   -1.649163989   -0.227145080
   5  H       1.00    1.635180016    1.554866655    0.113005622
   6  H       1.00    2.309245324   -1.910702085    0.219397203

 Bond lengths in Bohr (Angstrom)

 1-2  3.004286159  1-3  2.072893940  1-4  2.131460605  2-5  2.131414112  2-6  2.072719040
     ( 1.589799770)     ( 1.096928234)     ( 1.127920378)     ( 1.127895775)     ( 1.096835680)

 Bond angles

  1-2-5   75.92148236   1-2-6  111.58154294   2-1-3  111.57452539   2-1-4   75.91488913

  3-1-4  114.29822381   5-2-6  114.30544084

 NUCLEAR CHARGE:                   16
 NUMBER OF PRIMITIVE AOS:          72
 NUMBER OF SYMMETRY AOS:           70
 NUMBER OF CONTRACTIONS:           36   (   36A   )
 NUMBER OF CORE ORBITALS:           2   (    2A   )
 NUMBER OF VALENCE ORBITALS:       12   (   12A   )


 NUCLEAR REPULSION ENERGY   31.40750831

 Eigenvalues of metric

         1 0.126E-01 0.314E-01 0.554E-01 0.689E-01 0.803E-01 0.223E+00 0.262E+00 0.295E+00


 Contracted 2-electron integrals neglected if value below      1.0D-11
 AO integral compression algorithm  1   Integral accuracy      1.0D-11

     1.573 MB (compressed) written to integral file ( 58.3%)


 NUMBER OF SORTED TWO-ELECTRON INTEGRALS:     222111.     BUFFER LENGTH:  32768
 NUMBER OF SEGMENTS:   1  SEGMENT LENGTH:     222111      RECORD LENGTH: 524288

 Memory used in sort:       0.78 MW

 SORT1 READ      284735. AND WROTE      212529. INTEGRALS IN      1 RECORDS. CPU TIME:     0.00 SEC, REAL TIME:     0.01 SEC
 SORT2 READ      212529. AND WROTE      222111. INTEGRALS IN      6 RECORDS. CPU TIME:     0.02 SEC, REAL TIME:     0.03 SEC

 FILE SIZES:   FILE 1:    31.7 MBYTE,  FILE 4:     4.2 MBYTE,   TOTAL:     35.9 MBYTE

 OPERATOR DM      FOR CENTER  0  COORDINATES:    0.000000    0.000000    0.000000


 **********************************************************************************************************************************
 DATASETS  * FILE   NREC   LENGTH (MB)   RECORD NAMES
              1      19       31.12       500      610      700      900      950      970     1000      129      960     1100   
                                          VAR    BASINP    GEOM    SYMINP    ZMAT    AOBASIS   BASIS     P2S    ABASIS      S 
                                         1400     1410     1200     1210     1080     1600     1650     1300     1700   
                                           T        V       H0       H01     AOSYM     SMH    MOLCAS    ERIS     OPER   

 PROGRAMS   *        TOTAL       INT
 CPU TIMES  *         0.39      0.29
 REAL TIME  *         0.96 SEC
 DISK USED  *        36.24 MB
 **********************************************************************************************************************************


 PROGRAM * RHF-SCF (CLOSED SHELL)       Authors: W. Meyer, H.-J. Werner


 NUMBER OF ELECTRONS:       8+    8-    SPACE SYMMETRY=1    SPIN SYMMETRY: Singlet 
 CONVERGENCE THRESHOLDS:    1.00E-05 (Density)    1.00E-07 (Energy)
 MAX. NUMBER OF ITERATIONS:       60
 INTERPOLATION TYPE:            DIIS
 INTERPOLATION STEPS:              2 (START)      1 (STEP)
 LEVEL SHIFTS:                  0.00 (CLOSED)  0.00 (OPEN) 



 Orbital guess generated from atomic densities. Full valence occupancy:    8

 Molecular orbital dump at record        2100.2

 Initial occupancy:   8

 ITERATION    DDIFF          GRAD             ENERGY        2-EL.EN.            DIPOLE MOMENTS         DIIS   ORB.
    1      0.000D+00      0.000D+00       -77.77686624    113.680698    0.00014    0.00000   -0.00018    0    start
    2      0.000D+00      0.654D-02       -77.79351733    113.124108    0.00013    0.00001   -0.00010    1    diag
    3      0.779D-02      0.193D-02       -77.79538312    113.383222    0.00020   -0.00003   -0.00018    2    diag
    4      0.309D-02      0.641D-03       -77.79569716    113.283673    0.00015    0.00000   -0.00010    3    diag
    5      0.139D-02      0.303D-03       -77.79586611    113.300476    0.00023   -0.00004   -0.00020    4    diag
    6      0.963D-03      0.194D-03       -77.79598840    113.304109    0.00007    0.00005    0.00000    5    diag
    7      0.910D-03      0.117D-03       -77.79605692    113.311463    0.00057   -0.00021   -0.00061    6    diag
    8      0.101D-02      0.382D-04       -77.79606236    113.313900   -0.00056    0.00037    0.00078    7    diag
    9      0.295D-03      0.193D-04       -77.79606268    113.314253    0.00037   -0.00011   -0.00037    8    diag
   10      0.518D-04      0.694D-05       -77.79606275    113.314343    0.00018   -0.00001   -0.00014    9    orth
   11      0.257D-04      0.128D-05       -77.79606275    113.314340    0.00019   -0.00002   -0.00014    9    diag
   12      0.485D-05      0.293D-06       -77.79606275    113.314336    0.00019   -0.00002   -0.00014    0    orth

 Final occupancy:   8

 !RHF STATE  1.1 Energy               -77.796062749554
 Nuclear energy                        31.40750831
 One-electron energy                 -165.86073920
 Two-electron energy                   56.65716815
 Virial quotient                       -1.00244620
 !RHF STATE  1.1 Dipole moment          0.00018724    -0.00001559    -0.00014438
 Dipole moment /Debye                   0.00047588    -0.00003962    -0.00036695

 ELECTRON ORBITALS
 =================

  Orbital  Occupation    Energy     Coefficients
    1.1     2.00000   -11.26889     1 1s    0.69924     2 1s    0.70973
    2.1     2.00000   -11.26836     1 1s    0.70976     2 1s   -0.69927
    3.1     2.00000    -1.02066     1 1s    0.27155     1 1s    0.25765     2 1s    0.27158     2 1s    0.25768
    4.1     2.00000    -0.78007     1 1s    0.30632     2 1s   -0.30629
    5.1     2.00000    -0.63565     1 2py   0.30441     2 2py   0.30454
    6.1     2.00000    -0.55210     1 2py  -0.25307     2 2py   0.25297
    7.1     2.00000    -0.37976     1 1s    0.26400     1 2pz   0.29512     1 2pz   0.28044     2 1s   -0.26392     2 2pz   0.29514
                                    2 2pz   0.28047
    8.1     2.00000    -0.36772     1 2px   0.33271     2 2px  -0.33273     4 1s   -0.25085     5 1s   -0.25082
    9.1     0.00000     0.04176     1 1s    0.39698     1 2pz   0.32599     1 2pz   0.42610     2 1s    0.39697     2 2pz  -0.32602
                                    2 2pz  -0.42616
   10.1     0.00000     0.22063     1 1s   -1.12844     1 2px   0.33450     1 2py   0.29521     1 2pz   0.43298     2 1s   -1.12847
                                    2 2px  -0.33456     2 2py  -0.29520     2 2pz  -0.43286     3 1s    0.56662     4 1s    1.10491
                                    5 1s    1.10495     6 1s    0.56661
   11.1     0.00000     0.28791     1 1s   -1.58478     1 2py  -0.37924     1 2pz   0.55955     2 1s    1.58460     2 2py  -0.37866
                                    2 2pz   0.55921     3 1s    1.43273     6 1s   -1.43191
   12.1     0.00000     0.30408     1 1s   -0.60403     1 2px   0.34042     1 2py  -0.99285     1 2pz   0.39627     2 1s   -0.60526
                                    2 2px  -0.34017     2 2py   0.99323     2 2pz  -0.39663     3 1s    1.48201     4 1s   -0.54465
                                    5 1s   -0.54485     6 1s    1.48316
   13.1     0.00000     0.34837     1 2px   0.29184     1 2px   0.94324     1 2py   0.40041     2 2px   0.29187     2 2px   0.94339
                                    2 2py   0.40027     3 1s    0.36639     4 1s    1.35981     5 1s   -1.35972     6 1s   -0.36671
   14.1     0.00000     0.36942     1 1s   -1.48881     1 2px  -0.96265     1 2py   0.94668     1 2pz   0.62568     2 1s    1.48861
                                    2 2px  -0.96267     2 2py   0.94691     2 2pz   0.62565     3 1s   -0.55218     4 1s    1.22045
                                    5 1s   -1.22053     6 1s    0.55250
   15.1     0.00000     0.72716     1 2px  -0.54942     1 2px   0.81346     2 2px   0.54951     2 2px  -0.81363     4 1s    0.27679
                                    4 1s   -0.39963     5 1s    0.27681     5 1s   -0.39949
   16.1     0.00000     0.76876     1 1s    0.26676     1 2px  -0.33624     1 2py   0.32376     1 2px   0.68512     1 2py  -0.80563
                                    2 1s   -0.26607     2 2px  -0.33643     2 2py   0.32448     2 2px   0.68559     2 2py  -0.80742
                                    3 1s    0.48263     6 1s   -0.48291
   17.1     0.00000     0.77415     1 1s    0.29623     1 2py  -0.55419     1 2px  -0.34531     1 2py   1.16775     2 1s    0.29681
                                    2 2py   0.55369     2 2px   0.34447     2 2py  -1.16671
   18.1     0.00000     0.78940     1 1s    0.48938     1 2pz   0.71799     1 2px   0.36595     1 2py  -0.35371     1 2pz  -0.81024
                                    2 1s   -0.48933     2 2pz   0.71817     2 2px   0.36592     2 2py  -0.35401     2 2pz  -0.81042
   19.1     0.00000     0.85430     1 1s   -0.28925     1 2pz  -0.70642     1 2px   0.41463     1 2py  -0.39867     1 2pz   0.96590
                                    2 1s   -0.28922     2 2pz   0.70626     2 2px  -0.41474     2 2py   0.39858     2 2pz  -0.96572
   20.1     0.00000     0.91977     1 2px  -0.66650     1 2py  -0.34465     1 2px   0.97570     1 2py   0.87273     2 2px  -0.66636
                                    2 2py  -0.34473     2 2px   0.97561     2 2py   0.87304     4 1s    0.89545     5 1s   -0.89560
   21.1     0.00000     1.11899     1 1s   -0.73078     1 1s    1.27735     1 2px   0.26854     1 2py   0.32238     1 2px  -0.27347
                                    1 2py  -0.36562     2 1s   -0.73119     2 1s    1.27909     2 2px  -0.26825     2 2py  -0.32249
                                    2 2px   0.27209     2 2py   0.36620     4 1s    0.67117     4 1s   -1.14087     5 1s    0.67056
                                    5 1s   -1.14043
   22.1     0.00000     1.14290     1 1s   -0.43182     1 1s    1.75912     1 2px   1.26634     1 2py  -0.34158     1 2pz  -0.38236
                                    2 1s    0.43171     2 1s   -1.75889     2 2px   1.26676     2 2py  -0.34145     2 2pz  -0.38279
                                    3 1s   -0.44426     3 1s    0.54625     4 1s   -0.65313     4 1s    0.57024     5 1s    0.65399
                                    5 1s   -0.57069     6 1s    0.44533     6 1s   -0.54694
   23.1     0.00000     1.14517     1 2py   0.67228     1 2px   0.31783     1 2py  -1.02311     2 2py   0.67123     2 2px   0.31744
                                    2 2py  -1.02223     3 1s   -0.48846     3 1s    1.10829     4 1s    0.41675     4 1s   -0.91873
                                    5 1s   -0.41625     5 1s    0.91732     6 1s    0.48643     6 1s   -1.10613
   24.1     0.00000     1.17199     1 2py  -0.39385     1 2py   0.34643     2 2py   0.39573     2 2py  -0.34903     3 1s    0.81479
                                    3 1s   -0.86925     4 1s    0.44905     5 1s    0.45274     6 1s    0.81543     6 1s   -0.87075
   25.1     0.00000     1.22935     1 1s   -1.30092     1 1s    2.14704     1 2py   0.50153     1 2pz  -0.84578     2 1s   -1.31002
                                    2 1s    2.16985     2 2py  -0.49868     2 2pz   0.85149     3 1s   -0.97429     4 1s   -0.37304
                                    4 1s   -0.38567     5 1s   -0.37169     5 1s   -0.39180     6 1s   -0.97944
   26.1     0.00000     1.23386     1 1s    1.55650     1 1s   -3.98296     1 2px  -0.60852     1 2py   0.55520     1 2pz   1.02956
                                    2 1s   -1.54874     2 1s    3.97018     2 2px  -0.60965     2 2py   0.55791     2 2pz   1.02431
                                    3 1s    0.77334     4 1s    1.01235     5 1s   -1.00964     6 1s   -0.76835
   27.1     0.00000     1.74331     1 1s    0.30834     1 3d0   0.46964     1 3d1+ -0.28519     1 3d2+ -0.28536     2 1s   -0.30823
                                    2 3d0  -0.46956     2 3d1+  0.28525     2 3d2+  0.28547
   28.1     0.00000     1.89287     1 1s    0.27734     1 1s   -1.08599     1 2px  -0.27979     1 2pz   0.31736     1 3d2-  0.40337
                                    1 3d1+ -0.34807     1 3d1- -0.38804     2 1s   -0.27712     2 1s    1.08565     2 2px  -0.27980
                                    2 2pz   0.31717     2 3d2- -0.40336     2 3d1+  0.34812     2 3d1-  0.38819
   29.1     0.00000     1.99221     1 1s    0.46544     1 1s   -0.75541     1 2pz   0.35414     1 3d0   0.38803     1 3d1+  0.44367
                                    1 3d1-  0.27483     2 1s    0.46540     2 1s   -0.75531     2 2pz  -0.35405     2 3d0   0.38799
                                    2 3d1+  0.44352     2 3d1-  0.27472     3 1s    0.26660     6 1s    0.26665
   30.1     0.00000     2.09753     1 3d2- -0.38591     1 3d1+ -0.25498     1 3d2+  0.44839     2 3d2- -0.38596     2 3d1+ -0.25514
                                    2 3d2+  0.44817
   31.1     0.00000     2.19463     1 1s    0.33982     1 1s   -1.46856     1 2px  -0.39944     1 2py   0.25732     1 2pz   0.43934
                                    1 3d0   0.49909     1 3d2+  0.41606     2 1s   -0.33975     2 1s    1.46869     2 2px  -0.39931
                                    2 2py   0.25724     2 2pz   0.43940     2 3d0  -0.49916     2 3d2+ -0.41627     3 1s    0.32887
                                    4 1s    0.41093     5 1s   -0.41109     6 1s   -0.32896
   32.1     0.00000     2.33934     1 2py   0.28490     1 3d0   0.55321     1 3d2- -0.28018     1 3d2+ -0.26610     1 3d1- -0.27591
                                    2 2py  -0.28500     2 3d0   0.55319     2 3d2- -0.28026     2 3d2+ -0.26614     2 3d1- -0.27593
                                    3 1s   -0.26575     6 1s   -0.26577
   33.1     0.00000     2.52337     1 3d0   0.28837     1 3d2-  0.60794     1 3d1+ -0.35163     1 3d2+  0.27023     2 3d0   0.28869
                                    2 3d2-  0.60702     2 3d1+ -0.35135     2 3d2+  0.27057     3 1s    0.38661     6 1s    0.38571
   34.1     0.00000     2.55925     1 2py  -0.32366     1 3d2-  0.46371     1 3d1-  0.62159     2 2py  -0.32351     2 3d2- -0.46509
                                    2 3d1- -0.62120     3 1s    0.51773     4 1s   -0.39829     5 1s    0.39786     6 1s   -0.51851
   35.1     0.00000     2.62023     1 2py  -0.37909     1 3d1+ -0.25932     1 3d2+ -0.41049     1 3d1-  0.64246     2 2py   0.37930
                                    2 3d1+ -0.25937     2 3d2+ -0.41046     2 3d1-  0.64267     3 1s    0.30970     4 1s   -0.51354
                                    5 1s   -0.51367     6 1s    0.30996
   36.1     0.00000     2.88442     1 1s   -1.53990     1 2px  -0.26180     1 2px  -0.79317     1 2pz   0.42722     1 3d2-  0.25894
                                    1 3d1+  0.65928     1 3d2+ -0.60439     2 1s    1.53986     2 2px  -0.26181     2 2px  -0.79317
                                    2 2pz   0.42721     2 3d2- -0.25890     2 3d1+ -0.65929     2 3d2+  0.60442


 HOMO      8.1    -0.367717 =     -10.0061eV
 LUMO      9.1     0.041762 =       1.1364eV
 LUMO-HOMO         0.409479 =      11.1425eV


 **********************************************************************************************************************************
 DATASETS  * FILE   NREC   LENGTH (MB)   RECORD NAMES
              1      19       31.12       500      610      700      900      950      970     1000      129      960     1100   
                                          VAR    BASINP    GEOM    SYMINP    ZMAT    AOBASIS   BASIS     P2S    ABASIS      S 
                                         1400     1410     1200     1210     1080     1600     1650     1300     1700   
                                           T        V       H0       H01     AOSYM     SMH    MOLCAS    ERIS     OPER   

              2       4        2.86       700     1000      520     2100   
                                         GEOM     BASIS   MCVARS     RHF  

 PROGRAMS   *        TOTAL    HF-SCF       INT
 CPU TIMES  *         0.54      0.15      0.29
 REAL TIME  *         1.23 SEC
 DISK USED  *        36.24 MB
 **********************************************************************************************************************************


 PROGRAM * MULTI (Direct Multiconfiguration SCF)       Authors: P.J. Knowles, H.-J. Werner (1984)


 Number of closed-shell orbitals:   7 (   7 )
 Number of active  orbitals:        2 (   2 )
 Number of external orbitals:      27 (  27 )

 State symmetry 1

 Number of electrons:     2    Spin symmetry=Singlet   Space symmetry=1
 Number of states:        3
 Number of CSFs:          3   (4 determinants, 4 intermediate states)

 Molecular orbitals read from record     2100.2  Type=RHF/CANONICAL (state 1.1)

 Wavefunction dump at record             2140.2

 Convergence thresholds  0.10E-01 (gradient)  0.10E-05 (energy)  0.10E-02 (step length)

 Weight factors for state symmetry  1:    0.33333   0.33333   0.33333

 Number of orbital rotations:      257   (    14 Core/Active    189 Core/Virtual   0 Active/Active     54 Active/Virtual)
 Total number of variables:        269

 Micro-Iterations solved by the two-step solver

 ITER. MIC  NCI  NEG     ENERGY(VAR)     ENERGY(PROJ)   ENERGY CHANGE     GRAD(0)  GRAD(ORB)   GRAD(CI)     STEP       TIME

   1    6    5    0     -77.69252027     -77.71252317   -0.02000290    0.17420211 0.00087187 0.00000000  0.15D+00      0.11
   2    6    5    0     -77.71205562     -77.71208392   -0.00002830    0.00774183 0.00000169 0.00000000  0.54D-02      0.21
   3    4    4    0     -77.71208397     -77.71208397   -0.00000000    0.00001807 0.00000000 0.00000000  0.21D-04      0.29
   4    3    3    0     -77.71208397     -77.71208397   -0.00000000    0.00000000 0.00000000 0.00000000  0.20D-09      0.35

 ** WVFN ****  CONVERGENCE REACHED, FINAL GRADIENT:  0.12D-10



 Results for state 1.1
 =====================

 !MCSCF STATE  1.1 Energy             -77.790134560575
 Nuclear energy                        31.40750831
 Kinetic energy                        77.72457170
 One electron energy                 -166.02388489
 Two electron energy                   56.82624202
 Virial ratio                           2.00084353

 !MCSCF STATE  1.1 Dipole moment        0.00021094    -0.00001058    -0.00018424
 Dipole moment /Debye                   0.00053611    -0.00002688    -0.00046826

 Results for state 2.1
 =====================

 !MCSCF STATE  2.1 Energy             -77.734205898606
 Nuclear energy                        31.40750831
 Kinetic energy                        77.81890746
 One electron energy                 -165.64631532
 Two electron energy                   56.50460111
 Virial ratio                           1.99891156

 !MCSCF STATE  2.1 Dipole moment        0.00007551    -0.00003885    -0.00008388
 Dipole moment /Debye                   0.00019191    -0.00009873    -0.00021319

 Results for state 3.1
 =====================

 !MCSCF STATE  3.1 Energy             -77.611911460847
 Nuclear energy                        31.40750831
 Kinetic energy                        77.88499248
 One electron energy                 -165.28611416
 Two electron energy                   56.26669440
 Virial ratio                           1.99649379

 !MCSCF STATE  3.1 Dipole moment       -0.00004387    -0.00006778    -0.00001218
 Dipole moment /Debye                  -0.00011150    -0.00017227    -0.00003095

 State-averaged charge density matrix saved on record  2140.2 (density set 1)

 !MCSCF expec         <1.1|DMX|1.1>     0.000210937105 au =     0.000536113527 Debye
 !MCSCF trans         <2.1|DMX|1.1>    -0.000015084128 au =    -0.000038337517 Debye
 !MCSCF expec         <2.1|DMX|2.1>     0.000075509446 au =     0.000191913297 Debye
 !MCSCF trans         <3.1|DMX|1.1>     0.000025126333 au =     0.000063860586 Debye
 !MCSCF trans         <3.1|DMX|2.1>    -0.000033243240 au =    -0.000084490353 Debye
 !MCSCF expec         <3.1|DMX|3.1>    -0.000043869259 au =    -0.000111497232 Debye

 !MCSCF expec         <1.1|DMY|1.1>    -0.000010576578 au =    -0.000026881219 Debye
 !MCSCF trans         <2.1|DMY|1.1>     0.000002617685 au =     0.000006653056 Debye
 !MCSCF expec         <2.1|DMY|2.1>    -0.000038846839 au =    -0.000098732349 Debye
 !MCSCF trans         <3.1|DMY|1.1>     0.000004918763 au =     0.000012501430 Debye
 !MCSCF trans         <3.1|DMY|2.1>    -0.000000296082 au =    -0.000000752516 Debye
 !MCSCF expec         <3.1|DMY|3.1>    -0.000067781822 au =    -0.000172272923 Debye

 !MCSCF expec         <1.1|DMZ|1.1>    -0.000184238128 au =    -0.000468255942 Debye
 !MCSCF trans         <2.1|DMZ|1.1>     0.000035255281 au =     0.000089604116 Debye
 !MCSCF expec         <2.1|DMZ|2.1>    -0.000083879239 au =    -0.000213185795 Debye
 !MCSCF trans         <3.1|DMZ|1.1>    -0.000019982378 au =    -0.000050786812 Debye
 !MCSCF trans         <3.1|DMZ|2.1>     0.000052373558 au =     0.000133111587 Debye
 !MCSCF expec         <3.1|DMZ|3.1>    -0.000012177205 au =    -0.000030949342 Debye


 NATURAL ORBITALS (state averaged)
 =================================

  Orbital  Occupation    Energy     Coefficients
    1.1     2.00000   -11.26846     1 1s    0.71267     2 1s    0.69623
    2.1     2.00000   -11.26806     1 1s    0.69623     2 1s   -0.71268
    3.1     2.00000    -1.03468     1 1s    0.27071     1 1s    0.25358     2 1s    0.27073     2 1s    0.25359
    4.1     2.00000    -0.78337     1 1s    0.32556     2 1s   -0.32554
    5.1     2.00000    -0.64235     1 2py   0.30065     2 2py   0.30075
    6.1     2.00000    -0.55757     1 2py  -0.27005     2 2py   0.26997
    7.1     2.00000    -0.41340     1 2pz   0.31550     1 2pz   0.27547     2 2pz   0.31549     2 2pz   0.27547
    8.1     1.00000    -0.11231     1 1s    0.26374     1 2pz   0.40127     1 2pz   0.38863     2 1s    0.26375     2 2pz  -0.40130
                                    2 2pz  -0.38866
    9.1     1.00000    -0.19984     1 2px   0.35071     1 2px   0.25363     2 2px  -0.35071     2 2px  -0.25365     4 1s   -0.25820
                                    5 1s   -0.25817
   10.1    -0.00000     0.21017     1 1s   -1.14695     1 2px   0.33247     1 2py   0.29544     1 2pz   0.38006     2 1s   -1.14690
                                    2 2px  -0.33251     2 2py  -0.29542     2 2pz  -0.37991     3 1s    0.55324     4 1s    1.11159
                                    5 1s    1.11156     6 1s    0.55317
   11.1    -0.00000     0.28462     1 1s   -1.64299     1 2py  -0.32135     1 2pz   0.56607     2 1s    1.64275     2 2py  -0.32063
                                    2 2pz   0.56573     3 1s    1.42530     6 1s   -1.42431
   12.1    -0.00000     0.30461     1 1s   -0.64150     1 2px   0.33524     1 2py  -0.98694     1 2pz   0.37173     2 1s   -0.64310
                                    2 2px  -0.33498     2 2py   0.98725     2 2pz  -0.37220     3 1s    1.49258     4 1s   -0.51773
                                    5 1s   -0.51765     6 1s    1.49391
   13.1    -0.00000     0.34648     1 1s   -0.93426     1 2py   0.91910     1 2pz   0.32463     2 1s    0.93425     2 2py   0.91925
                                    2 2pz   0.32462     4 1s    1.81869     5 1s   -1.81876
   14.1    -0.00000     0.36720     1 1s   -1.00426     1 2px  -0.28350     1 2px  -1.34390     1 2py   0.46565     1 2pz   0.46720
                                    2 1s    1.00399     2 2px  -0.28350     2 2px  -1.34401     2 2py   0.46593     2 2pz   0.46716
                                    3 1s   -0.65077     6 1s    0.65125
   15.1    -0.00000     0.72333     1 2px  -0.52861     1 2px   0.78174     1 2py   0.29162     2 2px   0.52865     2 2px  -0.78185
                                    2 2py  -0.29159     4 1s    0.31657     4 1s   -0.43822     5 1s    0.31658     5 1s   -0.43813
   16.1    -0.00000     0.76562     1 1s    0.26225     1 2px  -0.32458     1 2py   0.31517     1 2px   0.66662     1 2py  -0.80215
                                    2 1s   -0.26197     2 2px  -0.32451     2 2py   0.31510     2 2px   0.66660     2 2py  -0.80226
                                    3 1s    0.48084     6 1s   -0.48082
   17.1    -0.00000     0.77295     1 1s    0.26049     1 2py  -0.52399     1 2px  -0.38652     1 2py   1.14097     2 1s    0.26105
                                    2 2py   0.52391     2 2px   0.38647     2 2py  -1.14087
   18.1    -0.00000     0.78652     1 1s    0.68266     1 2pz   0.70378     1 2px   0.43138     1 2py  -0.42068     1 2pz  -0.86764
                                    2 1s   -0.68254     2 2pz   0.70399     2 2px   0.43157     2 2py  -0.42147     2 2pz  -0.86781
   19.1    -0.00000     0.84806     1 2pz  -0.67956     1 2px   0.44068     1 2py  -0.41678     1 2pz   1.02107     2 2pz   0.67948
                                    2 2px  -0.44075     2 2py   0.41669     2 2pz  -1.02098
   20.1    -0.00000     0.92310     1 2px  -0.66990     1 2py  -0.32707     1 2px   0.89359     1 2py   0.85655     2 2px  -0.66977
                                    2 2py  -0.32718     2 2px   0.89353     2 2py   0.85690     4 1s    0.27277     4 1s    0.82180
                                    5 1s   -0.27283     5 1s   -0.82195
   21.1    -0.00000     1.09933     1 1s   -0.71965     1 1s    1.25560     1 2px   0.26812     1 2py   0.35403     1 2px  -0.27453
                                    1 2py  -0.40405     2 1s   -0.71997     2 1s    1.25708     2 2px  -0.26785     2 2py  -0.35372
                                    2 2px   0.27318     2 2py   0.40398     4 1s    0.67351     4 1s   -1.15109     5 1s    0.67259
                                    5 1s   -1.14987
   22.1    -0.00000     1.12343     1 1s   -0.27525     1 1s    1.17309     1 2py  -0.40283     1 2px   0.92689     1 2py   0.30307
                                    2 1s    0.27474     2 1s   -1.17224     2 2py  -0.40289     2 2px   0.92742     2 2py   0.30328
                                    4 1s   -0.77356     4 1s    1.09202     5 1s    0.77444     5 1s   -1.09276
   23.1    -0.00000     1.14270     1 1s    0.91573     1 2px  -0.31048     1 2py   0.56327     1 2px   0.93383     1 2py  -1.07897
                                    2 1s   -0.91621     2 2px  -0.31023     2 2py   0.56252     2 2px   0.93360     2 2py  -1.07833
                                    3 1s   -0.63560     3 1s    1.20260     4 1s   -0.56053     5 1s    0.55965     6 1s    0.63431
                                    6 1s   -1.20098
   24.1    -0.00000     1.17202     1 2px   0.25858     1 2py  -0.36788     1 2py   0.29559     2 2px  -0.25888     2 2py   0.36932
                                    2 2py  -0.29816     3 1s    0.83056     3 1s   -0.81404     4 1s    0.42093     5 1s    0.42410
                                    6 1s    0.83122     6 1s   -0.81479
   25.1    -0.00000     1.22253     1 1s    1.54395     1 1s   -4.01209     1 2px  -0.66956     1 2py   0.49296     1 2pz   1.00537
                                    2 1s   -1.62558     2 1s    4.14696     2 2px  -0.65459     2 2py   0.45988     2 2pz   1.05605
                                    3 1s    0.79492     4 1s    0.87152     5 1s   -0.89448     6 1s   -0.85964
   26.1    -0.00000     1.22282     1 1s   -1.37143     1 1s    2.31094     1 2py   0.51569     1 2pz  -0.85838     2 1s   -1.27357
                                    2 1s    2.05859     2 2px   0.25821     2 2py  -0.54567     2 2pz   0.79443     3 1s   -1.05539
                                    4 1s   -0.36193     4 1s   -0.40789     5 1s   -0.36658     5 1s   -0.35332     6 1s   -1.00504
   27.1    -0.00000     1.73761     1 1s    0.33709     1 3d0   0.46390     1 3d1+ -0.28378     1 3d2+ -0.28834     2 1s   -0.33698
                                    2 3d0  -0.46381     2 3d1+  0.28383     2 3d2+  0.28844
   28.1    -0.00000     1.88529     1 1s    0.27495     1 1s   -1.07955     1 2px  -0.27797     1 2pz   0.31652     1 3d2-  0.40304
                                    1 3d1+ -0.35075     1 3d1- -0.38573     2 1s   -0.27477     2 1s    1.07928     2 2px  -0.27798
                                    2 2pz   0.31636     2 3d2- -0.40301     2 3d1+  0.35077     2 3d1-  0.38585
   29.1    -0.00000     1.99074     1 1s    0.45843     1 1s   -0.74906     1 2pz   0.35065     1 3d0   0.38508     1 3d1+  0.44303
                                    1 3d1-  0.27826     2 1s    0.45835     2 1s   -0.74879     2 2pz  -0.35051     2 3d0   0.38502
                                    2 3d1+  0.44289     2 3d1-  0.27817     3 1s    0.26490     6 1s    0.26494
   30.1    -0.00000     2.08482     1 3d2- -0.38845     1 3d1+ -0.25691     1 3d2+  0.44902     2 3d2- -0.38850     2 3d1+ -0.25704
                                    2 3d2+  0.44881
   31.1    -0.00000     2.19208     1 1s    0.33936     1 1s   -1.45355     1 2px  -0.39494     1 2py   0.25948     1 2pz   0.43322
                                    1 3d0   0.50335     1 3d2+  0.41892     2 1s   -0.33931     2 1s    1.45371     2 2px  -0.39481
                                    2 2py   0.25939     2 2pz   0.43329     2 3d0  -0.50342     2 3d2+ -0.41911     3 1s    0.32869
                                    4 1s    0.40607     5 1s   -0.40622     6 1s   -0.32878
   32.1    -0.00000     2.33321     1 2py   0.28413     1 3d0   0.54741     1 3d2- -0.29564     1 3d2+ -0.27288     1 3d1- -0.27108
                                    2 2py  -0.28421     2 3d0   0.54739     2 3d2- -0.29570     2 3d2+ -0.27293     2 3d1- -0.27107
                                    3 1s   -0.27420     6 1s   -0.27421
   33.1    -0.00000     2.51670     1 3d0   0.30121     1 3d2-  0.59710     1 3d1+ -0.34456     1 3d2+  0.28244     2 3d0   0.30153
                                    2 3d2-  0.59620     2 3d1+ -0.34429     2 3d2+  0.28278     3 1s    0.37170     6 1s    0.37083
   34.1    -0.00000     2.55504     1 2py  -0.32584     1 3d2-  0.46470     1 3d1-  0.62230     2 2py  -0.32559     2 3d2- -0.46602
                                    2 3d1- -0.62175     3 1s    0.51944     4 1s   -0.39232     5 1s    0.39178     6 1s   -0.52011
   35.1    -0.00000     2.61631     1 2py  -0.38339     1 3d1+ -0.27444     1 3d2+ -0.39525     1 3d1-  0.64326     2 2py   0.38366
                                    2 3d1+ -0.27451     2 3d2+ -0.39524     2 3d1-  0.64358     3 1s    0.32591     4 1s   -0.50204
                                    5 1s   -0.50224     6 1s    0.32626
   36.1    -0.00000     2.87352     1 1s   -1.56346     1 2px  -0.25569     1 2px  -0.80260     1 2py   0.25048     1 2pz   0.43328
                                    1 3d2-  0.25783     1 3d1+  0.66152     1 3d2+ -0.60101     2 1s    1.56343     2 2px  -0.25570
                                    2 2px  -0.80261     2 2py   0.25049     2 2pz   0.43327     2 3d2- -0.25779     2 3d1+ -0.66153
                                    2 3d2+  0.60103


 Natural orbital dump (state averaged) at molpro section  2140.2    (Orbital set 2)



 **********************************************************************************************************************************
 DATASETS  * FILE   NREC   LENGTH (MB)   RECORD NAMES
              1      20       31.85       500      610      700      900      950      970     1000      129      960     1100   
                                          VAR    BASINP    GEOM    SYMINP    ZMAT    AOBASIS   BASIS     P2S    ABASIS      S 
                                         1400     1410     1200     1210     1080     1600     1650     1300     1700     1380   
                                           T        V       H0       H01     AOSYM     SMH    MOLCAS    ERIS     OPER     JKOP   

              2       5        5.42       700     1000      520     2100     2140   
                                         GEOM     BASIS   MCVARS     RHF     MCSCF   

 PROGRAMS   *        TOTAL     MULTI    HF-SCF       INT
 CPU TIMES  *         0.94      0.40      0.15      0.29
 REAL TIME  *         1.78 SEC
 DISK USED  *        39.04 MB
 **********************************************************************************************************************************
 Molecular orbitals read from record     2140.2  Type=MCSCF/NATURAL (state averaged)
 Occupation numbers read from record     2140.2  Type=MCSCF/NATURAL (state averaged)
 Orbital energies read from record       2140.2  Type=MCSCF/NATURAL (state averaged)
 Redundancy group numbers read from rec  2140.2  Type=MCSCF/NATURAL (state averaged)

 MULTI/6-31G* energy=    -77.611911460847

           MULTI          HF-SCF
    -77.61191146    -77.79606275
 **********************************************************************************************************************************
 Molpro calculation terminated
