
 Primary working directories    : /scratch.local/johan406.molpro_temp/molpro.XD1siTBONR
 Secondary working directories  : /scratch.local/johan406.molpro_temp/molpro.XD1siTBONR
 Wavefunction directory         : /home/goodpast/johan406/wfu/
 Main file repository           : /scratch.local/johan406.molpro_temp/molpro.XD1siTBONR/

 id        : roweumn

 Nodes     nprocs
 cn0391       1

 Using customized tuning parameters: mindgm=1; mindgv=20; mindgc=4; mindgr=1; noblas=0; minvec=7
 default implementation of scratch files=df  


 Variables initialized (934), CPU time= 0.01 sec
                                                                                 !leave this line blank
 
 gprint, orbitals=30
 memory, 125., m
 symmetry, nosym
 nelect=16
 basis=6-31g*
 
 geometry={
 C -0.6878 0.1471 0.3341
 C 0.6967 -0.197 -0.3944
 H -1.2081 0.9672 -0.1786
 H -0.8465 -0.8733 -0.1186
 H 0.8555 0.8234 0.0582
 H 1.217 -1.0171 0.1181
 }
 
 hf
 {multi,
 closed 7
 occ 9
 wf,spin=0;STATE,3
 }
 
 Commands  initialized (763), CPU time= 0.01 sec, 617 directives.
 Default parameters read. Elapsed time= 0.08 sec

 Checking input...
 Passed
1


                                         ***  PROGRAM SYSTEM MOLPRO  ***
                                       Copyright, TTI GmbH Stuttgart, 2015
                                    Version 2019.2 linked Oct 25 2019 22:50:27


 **********************************************************************************************************************************
 LABEL *                                                                                 
  64 bit serial version                                                                  DATE: 07-Feb-23          TIME: 15:31:18  
 **********************************************************************************************************************************

 SHA1:             8dbd9ae1082e4ce945b0f27595c9eb2d4aa09004
 **********************************************************************************************************************************


 Variable memory set to  125000000 words,  buffer space 

 SETTING NELECT         =        16.00000000                                  
 SETTING BASIS          =    6-31G*
 ZSYMEL=NOSYM


Geometry recognized as XYZ



 Recomputing integrals since basis changed


 Using spherical harmonics

 Library entry C      S 6-31G                selected for orbital group  1
 Library entry C      P 6-31G                selected for orbital group  1
 Library entry C      D 6-31G*               selected for orbital group  1
 Library entry H      S 6-31G                selected for orbital group  2


 PROGRAM * SEWARD (Integral evaluation for generally contracted gaussian basis sets)     Author: Roland Lindh, 1990

 Geometry written to block  1 of record 700


 Point group  C1  



 ATOMIC COORDINATES

 NR  ATOM    CHARGE       X              Y              Z

   1  C       6.00   -1.299753628    0.277978713    0.631357498
   2  C       6.00    1.316572191   -0.372276047   -0.745307984
   3  H       1.00   -2.282978131    1.827743108   -0.337505086
   4  H       1.00   -1.599653164   -1.650297825   -0.224121518
   5  H       1.00    1.616660700    1.556000491    0.109982060
   6  H       1.00    2.299796694   -1.922040441    0.223176655

 Bond lengths in Bohr (Angstrom)

 1-2  3.027077781  1-3  2.075378233  1-4  2.130735667  2-5  2.130686410  2-6  2.075201821
     ( 1.601860578)     ( 1.098242865)     ( 1.127536758)     ( 1.127510692)     ( 1.098149512)

 Bond angles

  1-2-5   75.21260779   1-2-6  110.95802619   2-1-3  110.95107950   2-1-4   75.20602476

  3-1-4  114.94013288   5-2-6  114.94759493

 NUCLEAR CHARGE:                   16
 NUMBER OF PRIMITIVE AOS:          72
 NUMBER OF SYMMETRY AOS:           70
 NUMBER OF CONTRACTIONS:           36   (   36A   )
 NUMBER OF CORE ORBITALS:           2   (    2A   )
 NUMBER OF VALENCE ORBITALS:       12   (   12A   )


 NUCLEAR REPULSION ENERGY   31.31748715

 Eigenvalues of metric

         1 0.129E-01 0.318E-01 0.548E-01 0.699E-01 0.803E-01 0.224E+00 0.264E+00 0.295E+00


 Contracted 2-electron integrals neglected if value below      1.0D-11
 AO integral compression algorithm  1   Integral accuracy      1.0D-11

     1.573 MB (compressed) written to integral file ( 58.3%)


 NUMBER OF SORTED TWO-ELECTRON INTEGRALS:     222111.     BUFFER LENGTH:  32768
 NUMBER OF SEGMENTS:   1  SEGMENT LENGTH:     222111      RECORD LENGTH: 524288

 Memory used in sort:       0.78 MW

 SORT1 READ      284735. AND WROTE      212529. INTEGRALS IN      1 RECORDS. CPU TIME:     0.00 SEC, REAL TIME:     0.00 SEC
 SORT2 READ      212529. AND WROTE      222111. INTEGRALS IN      6 RECORDS. CPU TIME:     0.02 SEC, REAL TIME:     0.03 SEC

 FILE SIZES:   FILE 1:    31.7 MBYTE,  FILE 4:     4.2 MBYTE,   TOTAL:     35.9 MBYTE

 OPERATOR DM      FOR CENTER  0  COORDINATES:    0.000000    0.000000    0.000000


 **********************************************************************************************************************************
 DATASETS  * FILE   NREC   LENGTH (MB)   RECORD NAMES
              1      19       31.12       500      610      700      900      950      970     1000      129      960     1100   
                                          VAR    BASINP    GEOM    SYMINP    ZMAT    AOBASIS   BASIS     P2S    ABASIS      S 
                                         1400     1410     1200     1210     1080     1600     1650     1300     1700   
                                           T        V       H0       H01     AOSYM     SMH    MOLCAS    ERIS     OPER   

 PROGRAMS   *        TOTAL       INT
 CPU TIMES  *         0.36      0.26
 REAL TIME  *         0.61 SEC
 DISK USED  *        36.24 MB
 **********************************************************************************************************************************


 PROGRAM * RHF-SCF (CLOSED SHELL)       Authors: W. Meyer, H.-J. Werner


 NUMBER OF ELECTRONS:       8+    8-    SPACE SYMMETRY=1    SPIN SYMMETRY: Singlet 
 CONVERGENCE THRESHOLDS:    1.00E-05 (Density)    1.00E-07 (Energy)
 MAX. NUMBER OF ITERATIONS:       60
 INTERPOLATION TYPE:            DIIS
 INTERPOLATION STEPS:              2 (START)      1 (STEP)
 LEVEL SHIFTS:                  0.00 (CLOSED)  0.00 (OPEN) 



 Orbital guess generated from atomic densities. Full valence occupancy:    8

 Molecular orbital dump at record        2100.2

 Initial occupancy:   8

 ITERATION    DDIFF          GRAD             ENERGY        2-EL.EN.            DIPOLE MOMENTS         DIIS   ORB.
    1      0.000D+00      0.000D+00       -77.77133181    113.465678    0.00014    0.00000   -0.00019    0    start
    2      0.000D+00      0.652D-02       -77.78788548    112.947698    0.00013    0.00001   -0.00010    1    diag
    3      0.783D-02      0.190D-02       -77.78970180    113.191737    0.00021   -0.00003   -0.00018    2    diag
    4      0.309D-02      0.611D-03       -77.78998811    113.096494    0.00015    0.00000   -0.00010    3    diag
    5      0.135D-02      0.290D-03       -77.79013793    113.114152    0.00024   -0.00004   -0.00021    4    diag
    6      0.900D-03      0.189D-03       -77.79025030    113.117431    0.00007    0.00005   -0.00000    5    diag
    7      0.843D-03      0.121D-03       -77.79032812    113.125682    0.00062   -0.00023   -0.00067    6    diag
    8      0.109D-02      0.418D-04       -77.79033530    113.128620   -0.00069    0.00043    0.00092    7    diag
    9      0.347D-03      0.220D-04       -77.79033576    113.129113    0.00038   -0.00011   -0.00037    8    diag
   10      0.671D-04      0.747D-05       -77.79033585    113.129248    0.00018   -0.00001   -0.00014    9    orth
   11      0.309D-04      0.142D-05       -77.79033585    113.129249    0.00019   -0.00001   -0.00015    9    diag
   12      0.564D-05      0.330D-06       -77.79033585    113.129245    0.00019   -0.00001   -0.00014    0    orth

 Final occupancy:   8

 !RHF STATE  1.1 Energy               -77.790335848060
 Nuclear energy                        31.31748715
 One-electron energy                 -165.67244562
 Two-electron energy                   56.56462263
 Virial quotient                       -1.00258502
 !RHF STATE  1.1 Dipole moment          0.00019048    -0.00001473    -0.00014497
 Dipole moment /Debye                   0.00048411    -0.00003743    -0.00036845

 ELECTRON ORBITALS
 =================

  Orbital  Occupation    Energy     Coefficients
    1.1     2.00000   -11.27006     1 1s    0.69905     2 1s    0.70992
    2.1     2.00000   -11.26954     1 1s    0.70995     2 1s   -0.69908
    3.1     2.00000    -1.01967     1 1s    0.27044     1 1s    0.25837     2 1s    0.27047     2 1s    0.25840
    4.1     2.00000    -0.77954     1 1s    0.30816     2 1s   -0.30813
    5.1     2.00000    -0.63677     1 2py   0.30393     2 2py   0.30406
    6.1     2.00000    -0.55179     1 2py  -0.25605     2 2py   0.25595
    7.1     2.00000    -0.37898     1 1s    0.26760     1 2pz   0.29415     1 2pz   0.27985     2 1s   -0.26752     2 2pz   0.29416
                                    2 2pz   0.27987
    8.1     2.00000    -0.36524     1 2px   0.33571     1 2px   0.25136     2 2px  -0.33572     2 2px  -0.25139
    9.1     0.00000     0.03987     1 1s    0.39814     1 2pz   0.32499     1 2pz   0.42152     2 1s    0.39813     2 2pz  -0.32502
                                    2 2pz  -0.42158
   10.1     0.00000     0.21938     1 1s   -1.13016     1 2px   0.32102     1 2py   0.28852     1 2pz   0.43358     2 1s   -1.13020
                                    2 2px  -0.32108     2 2py  -0.28851     2 2pz  -0.43346     3 1s    0.56611     4 1s    1.10533
                                    5 1s    1.10536     6 1s    0.56610
   11.1     0.00000     0.28789     1 1s   -1.58362     1 2py  -0.37915     1 2pz   0.56855     2 1s    1.58342     2 2py  -0.37853
                                    2 2pz   0.56820     3 1s    1.42376     6 1s   -1.42289
   12.1     0.00000     0.30314     1 1s   -0.58794     1 2px   0.33620     1 2py  -0.99003     1 2pz   0.39080     2 1s   -0.58923
                                    2 2px  -0.33590     2 2py   0.99042     2 2pz  -0.39119     3 1s    1.47316     4 1s   -0.55726
                                    5 1s   -0.55747     6 1s    1.47434
   13.1     0.00000     0.34563     1 2px  -0.31300     1 2px  -1.06294     2 2px  -0.31303     2 2px  -1.06310     3 1s   -0.46707
                                    4 1s   -1.13522     5 1s    1.13510     6 1s    0.46746
   14.1     0.00000     0.36719     1 1s   -1.44671     1 2px  -0.76405     1 2py   1.00349     1 2pz   0.60181     2 1s    1.44654
                                    2 2px  -0.76403     2 2py   1.00370     2 2pz   0.60178     3 1s   -0.49233     4 1s    1.43874
                                    5 1s   -1.43882     6 1s    0.49261
   15.1     0.00000     0.72913     1 2px  -0.54509     1 2px   0.79689     1 2py   0.26494     2 2px   0.54519     2 2px  -0.79706
                                    2 2py  -0.26491     4 1s    0.28446     4 1s   -0.39649     5 1s    0.28448     5 1s   -0.39635
   16.1     0.00000     0.76979     1 1s    0.25558     1 2px  -0.34617     1 2py   0.31478     1 2px   0.68420     1 2py  -0.79369
                                    2 1s   -0.25459     2 2px  -0.34657     2 2py   0.31603     2 2px   0.68505     2 2py  -0.79659
                                    3 1s    0.48064     6 1s   -0.48113
   17.1     0.00000     0.77329     1 1s    0.30505     1 2py  -0.54792     1 2px  -0.36859     1 2py   1.15503     2 1s    0.30587
                                    2 2py   0.54712     2 2px   0.36708     2 2py  -1.15323
   18.1     0.00000     0.78823     1 1s    0.51001     1 2pz   0.71287     1 2px   0.41188     1 2py  -0.38085     1 2pz  -0.81296
                                    2 1s   -0.50994     2 2pz   0.71305     2 2px   0.41185     2 2py  -0.38115     2 2pz  -0.81314
   19.1     0.00000     0.85350     1 1s   -0.28396     1 2pz  -0.70786     1 2px   0.41039     1 2py  -0.38698     1 2pz   0.96503
                                    2 1s   -0.28393     2 2pz   0.70770     2 2px  -0.41050     2 2py   0.38688     2 2pz  -0.96485
   20.1     0.00000     0.91550     1 2px  -0.65531     1 2py  -0.34904     1 2px   0.94439     1 2py   0.89602     2 2px  -0.65516
                                    2 2py  -0.34913     2 2px   0.94429     2 2py   0.89634     4 1s    0.88786     5 1s   -0.88801
   21.1     0.00000     1.11762     1 1s   -0.72441     1 1s    1.26383     1 2px   0.27117     1 2py   0.31152     1 2px  -0.26751
                                    1 2py  -0.36055     2 1s   -0.72491     2 1s    1.26585     2 2px  -0.27083     2 2py  -0.31160
                                    2 2px   0.26592     2 2py   0.36116     4 1s    0.67032     4 1s   -1.12443     5 1s    0.66960
                                    5 1s   -1.12386
   22.1     0.00000     1.13666     1 1s   -0.48892     1 1s    1.82186     1 2px   1.22232     1 2pz  -0.39705     2 1s    0.48868
                                    2 1s   -1.82141     2 2px   1.22283     2 2pz  -0.39744     3 1s   -0.37013     3 1s    0.36613
                                    4 1s   -0.69294     4 1s    0.68732     5 1s    0.69380     5 1s   -0.68777     6 1s    0.37140
                                    6 1s   -0.36709
   23.1     0.00000     1.14527     1 2py   0.66016     1 2px   0.47584     1 2py  -1.05844     2 2py   0.65901     2 2px   0.47549
                                    2 2py  -1.05744     3 1s   -0.54888     3 1s    1.17126     4 1s    0.32213     4 1s   -0.82927
                                    5 1s   -0.32142     5 1s    0.82761     6 1s    0.54689     6 1s   -1.16907
   24.1     0.00000     1.17003     1 2py  -0.40321     1 2py   0.35766     2 2py   0.40521     2 2py  -0.36047     3 1s    0.80916
                                    3 1s   -0.85554     4 1s    0.49698     5 1s    0.50073     6 1s    0.80996     6 1s   -0.85735
   25.1     0.00000     1.22731     1 1s   -1.30485     1 1s    2.13977     1 2py   0.49444     1 2pz  -0.83280     2 1s   -1.31476
                                    2 1s    2.16435     2 2py  -0.49137     2 2pz   0.83902     3 1s   -0.97060     4 1s   -0.36784
                                    4 1s   -0.38864     5 1s   -0.36628     5 1s   -0.39543     6 1s   -0.97628
   26.1     0.00000     1.23099     1 1s    1.54034     1 1s   -3.88411     1 2px  -0.56801     1 2py   0.53949     1 2pz   1.01149
                                    2 1s   -1.53176     2 1s    3.87007     2 2px  -0.56910     2 2py   0.54245     2 2pz   1.00583
                                    3 1s    0.78477     4 1s    1.02919     5 1s   -1.02622     6 1s   -0.77921
   27.1     0.00000     1.74842     1 1s    0.26301     1 3d0   0.47843     1 3d1+ -0.29283     1 3d2+ -0.28139     2 1s   -0.26292
                                    2 3d0  -0.47835     2 3d1+  0.29289     2 3d2+  0.28150
   28.1     0.00000     1.89121     1 1s    0.27320     1 1s   -1.05714     1 2px  -0.27443     1 2pz   0.31172     1 3d2-  0.41286
                                    1 3d1+ -0.34182     1 3d1- -0.38556     2 1s   -0.27300     2 1s    1.05683     2 2px  -0.27444
                                    2 2pz   0.31154     2 3d2- -0.41285     2 3d1+  0.34186     2 3d1-  0.38569
   29.1     0.00000     1.99444     1 1s    0.48362     1 1s   -0.74578     1 2pz   0.34482     1 3d0   0.38474     1 3d1+  0.46513
                                    1 3d1-  0.25743     2 1s    0.48358     2 1s   -0.74568     2 2pz  -0.34473     2 3d0   0.38471
                                    2 3d1+  0.46501     2 3d1-  0.25733     3 1s    0.25848     6 1s    0.25852
   30.1     0.00000     2.08780     1 3d2- -0.38977     1 3d2+  0.46110     2 3d2- -0.38983     2 3d2+  0.46087
   31.1     0.00000     2.19680     1 1s    0.33849     1 1s   -1.44763     1 2px  -0.39919     1 2py   0.25509     1 2pz   0.43700
                                    1 3d0   0.49031     1 3d2+  0.42164     2 1s   -0.33843     2 1s    1.44777     2 2px  -0.39907
                                    2 2py   0.25501     2 2pz   0.43707     2 3d0  -0.49038     2 3d2+ -0.42183     3 1s    0.32644
                                    4 1s    0.41829     5 1s   -0.41845     6 1s   -0.32652
   32.1     0.00000     2.33572     1 2py   0.27896     1 3d0   0.55223     1 3d2- -0.26965     1 3d2+ -0.27766     1 3d1- -0.26979
                                    2 2py  -0.27906     2 3d0   0.55220     2 3d2- -0.26973     2 3d2+ -0.27770     2 3d1- -0.26980
                                    3 1s   -0.26390     6 1s   -0.26394
   33.1     0.00000     2.50851     1 3d0   0.28844     1 3d2-  0.60578     1 3d1+ -0.35430     1 3d2+  0.26195     2 3d0   0.28873
                                    2 3d2-  0.60510     2 3d1+ -0.35408     2 3d2+  0.26225     3 1s    0.39665     6 1s    0.39602
   34.1     0.00000     2.55499     1 1s   -0.27731     1 2py  -0.32669     1 3d2-  0.45989     1 3d1-  0.62385     2 1s    0.27772
                                    2 2py  -0.32661     2 3d2- -0.46096     2 3d1- -0.62355     3 1s    0.51820     4 1s   -0.39628
                                    5 1s    0.39594     6 1s   -0.51881
   35.1     0.00000     2.61406     1 2py  -0.38026     1 3d2+ -0.41240     1 3d1-  0.64810     2 2py   0.38048     2 3d2+ -0.41236
                                    2 3d1-  0.64830     3 1s    0.29887     4 1s   -0.52200     5 1s   -0.52213     6 1s    0.29910
   36.1     0.00000     2.87746     1 1s   -1.52113     1 2px  -0.78496     1 2pz   0.42503     1 3d2-  0.25190     1 3d1+  0.65566
                                    1 3d2+ -0.60045     2 1s    1.52109     2 2px  -0.78496     2 2pz   0.42501     2 3d2- -0.25185
                                    2 3d1+ -0.65566     2 3d2+  0.60048


 HOMO      8.1    -0.365239 =      -9.9386eV
 LUMO      9.1     0.039870 =       1.0849eV
 LUMO-HOMO         0.405108 =      11.0236eV


 **********************************************************************************************************************************
 DATASETS  * FILE   NREC   LENGTH (MB)   RECORD NAMES
              1      19       31.12       500      610      700      900      950      970     1000      129      960     1100   
                                          VAR    BASINP    GEOM    SYMINP    ZMAT    AOBASIS   BASIS     P2S    ABASIS      S 
                                         1400     1410     1200     1210     1080     1600     1650     1300     1700   
                                           T        V       H0       H01     AOSYM     SMH    MOLCAS    ERIS     OPER   

              2       4        2.86       700     1000      520     2100   
                                         GEOM     BASIS   MCVARS     RHF  

 PROGRAMS   *        TOTAL    HF-SCF       INT
 CPU TIMES  *         0.54      0.18      0.26
 REAL TIME  *         0.89 SEC
 DISK USED  *        36.24 MB
 **********************************************************************************************************************************


 PROGRAM * MULTI (Direct Multiconfiguration SCF)       Authors: P.J. Knowles, H.-J. Werner (1984)


 Number of closed-shell orbitals:   7 (   7 )
 Number of active  orbitals:        2 (   2 )
 Number of external orbitals:      27 (  27 )

 State symmetry 1

 Number of electrons:     2    Spin symmetry=Singlet   Space symmetry=1
 Number of states:        3
 Number of CSFs:          3   (4 determinants, 4 intermediate states)

 Molecular orbitals read from record     2100.2  Type=RHF/CANONICAL (state 1.1)

 Wavefunction dump at record             2140.2

 Convergence thresholds  0.10E-01 (gradient)  0.10E-05 (energy)  0.10E-02 (step length)

 Weight factors for state symmetry  1:    0.33333   0.33333   0.33333

 Number of orbital rotations:      257   (    14 Core/Active    189 Core/Virtual   0 Active/Active     54 Active/Virtual)
 Total number of variables:        269

 Micro-Iterations solved by the two-step solver

 ITER. MIC  NCI  NEG     ENERGY(VAR)     ENERGY(PROJ)   ENERGY CHANGE     GRAD(0)  GRAD(ORB)   GRAD(CI)     STEP       TIME

   1    6    5    0     -77.69184595     -77.71169101   -0.01984506    0.17362365 0.00072900 0.00000000  0.15D+00      0.11
   2    5    5    0     -77.71121645     -77.71124540   -0.00002895    0.00782403 0.00000157 0.00000000  0.55D-02      0.19
   3    4    4    0     -77.71124545     -77.71124545   -0.00000000    0.00001851 0.00000000 0.00000000  0.21D-04      0.26
   4    3    3    0     -77.71124545     -77.71124545   -0.00000000    0.00000000 0.00000000 0.00000000  0.21D-09      0.32

 ** WVFN ****  CONVERGENCE REACHED, FINAL GRADIENT:  0.11D-10



 Results for state 1.1
 =====================

 !MCSCF STATE  1.1 Energy             -77.784610623397
 Nuclear energy                        31.31748715
 Kinetic energy                        77.71217799
 One electron energy                 -165.83849239
 Two electron energy                   56.73639462
 Virial ratio                           2.00093206

 !MCSCF STATE  1.1 Dipole moment        0.00021353    -0.00001034    -0.00018611
 Dipole moment /Debye                   0.00054271    -0.00002629    -0.00047300

 Results for state 2.1
 =====================

 !MCSCF STATE  2.1 Energy             -77.732745041495
 Nuclear energy                        31.31748715
 Kinetic energy                        77.81086620
 One electron energy                 -165.46611303
 Two electron energy                   56.41588084
 Virial ratio                           1.99899601

 !MCSCF STATE  2.1 Dipole moment        0.00007771    -0.00003809    -0.00008331
 Dipole moment /Debye                   0.00019750    -0.00009680    -0.00021175

 Results for state 3.1
 =====================

 !MCSCF STATE  3.1 Energy             -77.616380683622
 Nuclear energy                        31.31748715
 Kinetic energy                        77.87929265
 One electron energy                 -165.10469940
 Two electron energy                   56.17083157
 Virial ratio                           1.99662411

 !MCSCF STATE  3.1 Dipole moment       -0.00004506    -0.00006658    -0.00000828
 Dipole moment /Debye                  -0.00011451    -0.00016923    -0.00002105

 State-averaged charge density matrix saved on record  2140.2 (density set 1)

 !MCSCF expec         <1.1|DMX|1.1>     0.000213532911 au =     0.000542710976 Debye
 !MCSCF trans         <2.1|DMX|1.1>    -0.000008453149 au =    -0.000021484353 Debye
 !MCSCF expec         <2.1|DMX|2.1>     0.000077707419 au =     0.000197499621 Debye
 !MCSCF trans         <3.1|DMX|1.1>     0.000026774196 au =     0.000068048761 Debye
 !MCSCF trans         <3.1|DMX|2.1>    -0.000027202310 au =    -0.000069136847 Debye
 !MCSCF expec         <3.1|DMX|3.1>    -0.000045055843 au =    -0.000114513029 Debye

 !MCSCF expec         <1.1|DMY|1.1>    -0.000010343917 au =    -0.000026289893 Debye
 !MCSCF trans         <2.1|DMY|1.1>     0.000002775623 au =     0.000007054469 Debye
 !MCSCF expec         <2.1|DMY|2.1>    -0.000038087878 au =    -0.000096803388 Debye
 !MCSCF trans         <3.1|DMY|1.1>     0.000005213530 au =     0.000013250603 Debye
 !MCSCF trans         <3.1|DMY|2.1>    -0.000000328569 au =    -0.000000835085 Debye
 !MCSCF expec         <3.1|DMY|3.1>    -0.000066584031 au =    -0.000169228642 Debye

 !MCSCF expec         <1.1|DMZ|1.1>    -0.000186105032 au =    -0.000473000827 Debye
 !MCSCF trans         <2.1|DMZ|1.1>     0.000029925480 au =     0.000076058001 Debye
 !MCSCF expec         <2.1|DMZ|2.1>    -0.000083314724 au =    -0.000211751035 Debye
 !MCSCF trans         <3.1|DMZ|1.1>    -0.000021597001 au =    -0.000054890506 Debye
 !MCSCF trans         <3.1|DMZ|2.1>     0.000047906108 au =     0.000121757206 Debye
 !MCSCF expec         <3.1|DMZ|3.1>    -0.000008283735 au =    -0.000021053776 Debye


 NATURAL ORBITALS (state averaged)
 =================================

  Orbital  Occupation    Energy     Coefficients
    1.1     2.00000   -11.26959     1 1s    0.71322     2 1s    0.69568
    2.1     2.00000   -11.26921     1 1s    0.69568     2 1s   -0.71322
    3.1     2.00000    -1.03328     1 1s    0.27003     1 1s    0.25440     2 1s    0.27005     2 1s    0.25441
    4.1     2.00000    -0.78297     1 1s    0.32665     2 1s   -0.32663
    5.1     2.00000    -0.64334     1 2py   0.30034     2 2py   0.30044
    6.1     2.00000    -0.55753     1 2py  -0.27194     2 2py   0.27186
    7.1     2.00000    -0.41279     1 2pz   0.31470     1 2pz   0.27491     2 2pz   0.31469     2 2pz   0.27492
    8.1     1.00000    -0.11431     1 1s    0.26463     1 2pz   0.39999     1 2pz   0.38480     2 1s    0.26463     2 2pz  -0.40001
                                    2 2pz  -0.38484
    9.1     1.00000    -0.19670     1 2px   0.35223     1 2px   0.25801     2 2px  -0.35223     2 2px  -0.25803     4 1s   -0.25425
                                    5 1s   -0.25421
   10.1    -0.00000     0.20927     1 1s   -1.15075     1 2px   0.31913     1 2py   0.28593     1 2pz   0.38169     2 1s   -1.15071
                                    2 2px  -0.31917     2 2py  -0.28591     2 2pz  -0.38154     3 1s    0.55659     4 1s    1.11135
                                    5 1s    1.11132     6 1s    0.55652
   11.1    -0.00000     0.28460     1 1s   -1.63850     1 2py  -0.32227     1 2pz   0.57374     2 1s    1.63825     2 2py  -0.32152
                                    2 2pz   0.57339     3 1s    1.41941     6 1s   -1.41837
   12.1    -0.00000     0.30367     1 1s   -0.62222     1 2px   0.32999     1 2py  -0.98493     1 2pz   0.36585     2 1s   -0.62388
                                    2 2px  -0.32969     2 2py   0.98524     2 2pz  -0.36636     3 1s    1.48234     4 1s   -0.53324
                                    5 1s   -0.53317     6 1s    1.48369
   13.1    -0.00000     0.34822     1 1s   -0.88742     1 2px   0.25589     1 2py   0.90531     1 2pz   0.30709     2 1s    0.88743
                                    2 2px   0.25599     2 2py   0.90544     2 2pz   0.30708     4 1s    1.81771     5 1s   -1.81777
   14.1    -0.00000     0.36137     1 1s   -0.96712     1 2px  -0.28159     1 2px  -1.29853     1 2py   0.49948     1 2pz   0.45570
                                    2 1s    0.96684     2 2px  -0.28160     2 2px  -1.29864     2 2py   0.49978     2 2pz   0.45566
                                    3 1s   -0.66624     6 1s    0.66675
   15.1    -0.00000     0.72539     1 2px  -0.52313     1 2px   0.76383     1 2py   0.32949     2 2px   0.52318     2 2px  -0.76394
                                    2 2py  -0.32946     4 1s    0.32332     4 1s   -0.43189     5 1s    0.32334     5 1s   -0.43180
   16.1    -0.00000     0.76665     1 2px  -0.33203     1 2py   0.30535     1 2px   0.65540     1 2py  -0.78424     2 2px  -0.33198
                                    2 2py   0.30536     2 2px   0.65543     2 2py  -0.78453     3 1s    0.47803     6 1s   -0.47805
   17.1    -0.00000     0.77233     1 1s    0.27133     1 2py  -0.51638     1 2px  -0.41187     1 2py   1.12593     2 1s    0.27197
                                    2 2py   0.51623     2 2px   0.41167     2 2py  -1.12566
   18.1    -0.00000     0.78553     1 1s    0.69951     1 2pz   0.69548     1 2px   0.47990     1 2py  -0.45674     1 2pz  -0.86617
                                    2 1s   -0.69936     2 2pz   0.69569     2 2px   0.48013     2 2py  -0.45757     2 2pz  -0.86634
   19.1    -0.00000     0.84708     1 2pz  -0.68150     1 2px   0.43432     1 2py  -0.40465     1 2pz   1.02002     2 2pz   0.68141
                                    2 2px  -0.43439     2 2py   0.40454     2 2pz  -1.01993
   20.1    -0.00000     0.91867     1 2px  -0.65932     1 2py  -0.33067     1 2px   0.86314     1 2py   0.87803     2 2px  -0.65919
                                    2 2py  -0.33078     2 2px   0.86305     2 2py   0.87840     4 1s    0.28477     4 1s    0.81461
                                    5 1s   -0.28483     5 1s   -0.81476
   21.1    -0.00000     1.09891     1 1s   -0.71930     1 1s    1.25234     1 2px   0.26788     1 2py   0.34491     1 2px  -0.26746
                                    1 2py  -0.39949     2 1s   -0.71972     2 1s    1.25411     2 2px  -0.26756     2 2py  -0.34456
                                    2 2px   0.26586     2 2py   0.39943     4 1s    0.67332     4 1s   -1.14205     5 1s    0.67227
                                    5 1s   -1.14066
   22.1    -0.00000     1.11945     1 1s   -0.33973     1 1s    1.33319     1 2py  -0.34857     1 2px   1.02900     1 2pz  -0.26979
                                    2 1s    0.33911     2 1s   -1.33211     2 2py  -0.34871     2 2px   1.02958     2 2pz  -0.27003
                                    4 1s   -0.75526     4 1s    1.02891     5 1s    0.75628     5 1s   -1.02987
   23.1    -0.00000     1.14240     1 1s    0.79574     1 2px  -0.28953     1 2py   0.59970     1 2px   0.82985     1 2py  -1.09863
                                    2 1s   -0.79615     2 2px  -0.28918     2 2py   0.59885     2 2px   0.82956     2 2py  -1.09791
                                    3 1s   -0.61954     3 1s    1.18561     4 1s   -0.66376     5 1s    0.66272     6 1s    0.61800
                                    6 1s   -1.18379
   24.1    -0.00000     1.16977     1 2px   0.25625     1 2py  -0.37580     1 2py   0.30592     2 2px  -0.25658     2 2py   0.37740
                                    2 2py  -0.30869     3 1s    0.82621     3 1s   -0.80434     4 1s    0.46120     5 1s    0.46458
                                    6 1s    0.82696     6 1s   -0.80532
   25.1    -0.00000     1.21938     1 1s    1.56694     1 1s   -3.97749     1 2px  -0.62181     1 2py   0.46149     1 2pz   1.01137
                                    2 1s   -1.57754     2 1s    3.99493     2 2px  -0.61980     2 2py   0.45694     2 2pz   1.01757
                                    3 1s    0.83813     4 1s    0.90023     5 1s   -0.90271     6 1s   -0.84748
   26.1    -0.00000     1.22127     1 1s   -1.32890     1 1s    2.18752     1 2py   0.52255     1 2pz  -0.81721     2 1s   -1.31622
                                    2 1s    2.15496     2 2py  -0.52682     2 2pz   0.80873     3 1s   -1.02804     4 1s   -0.36216
                                    4 1s   -0.38178     5 1s   -0.36277     5 1s   -0.37443     6 1s   -1.02197
   27.1    -0.00000     1.74311     1 1s    0.28994     1 3d0   0.47304     1 3d1+ -0.29184     1 3d2+ -0.28446     2 1s   -0.28984
                                    2 3d0  -0.47295     2 3d1+  0.29189     2 3d2+  0.28456
   28.1    -0.00000     1.88351     1 1s    0.27131     1 1s   -1.05296     1 2px  -0.27353     1 2pz   0.31173     1 3d2-  0.41324
                                    1 3d1+ -0.34410     1 3d1- -0.38336     2 1s   -0.27113     2 1s    1.05271     2 2px  -0.27353
                                    2 2pz   0.31159     2 3d2- -0.41322     2 3d1+  0.34411     2 3d1-  0.38347
   29.1    -0.00000     1.99333     1 1s    0.47964     1 1s   -0.73944     1 2pz   0.34074     1 3d0   0.38162     1 3d1+  0.46751
                                    1 3d1-  0.25908     2 1s    0.47957     2 1s   -0.73919     2 2pz  -0.34060     2 3d0   0.38157
                                    2 3d1+  0.46740     2 3d1-  0.25900     3 1s    0.25607     6 1s    0.25611
   30.1    -0.00000     2.07497     1 3d2- -0.39250     1 3d2+  0.46406     2 3d2- -0.39256     2 3d2+  0.46383
   31.1    -0.00000     2.19436     1 1s    0.33771     1 1s   -1.43244     1 2px  -0.39478     1 2py   0.25706     1 2pz   0.43089
                                    1 3d0   0.49467     1 3d2+  0.42457     2 1s   -0.33767     2 1s    1.43260     2 2px  -0.39467
                                    2 2py   0.25698     2 2pz   0.43096     2 3d0  -0.49475     2 3d2+ -0.42474     3 1s    0.32641
                                    4 1s    0.41354     5 1s   -0.41369     6 1s   -0.32649
   32.1    -0.00000     2.32957     1 2py   0.27762     1 3d0   0.54624     1 3d2- -0.28616     1 3d2+ -0.28435     1 3d1- -0.26437
                                    2 2py  -0.27770     2 3d0   0.54621     2 3d2- -0.28623     2 3d2+ -0.28440     2 3d1- -0.26437
                                    3 1s   -0.27215     6 1s   -0.27217
   33.1    -0.00000     2.50190     1 3d0   0.30320     1 3d2-  0.59550     1 3d1+ -0.34907     1 3d2+  0.27252     2 3d0   0.30350
                                    2 3d2-  0.59484     2 3d1+ -0.34885     2 3d2+  0.27282     3 1s    0.38357     6 1s    0.38295
   34.1    -0.00000     2.55127     1 1s   -0.28680     1 2py  -0.32907     1 3d2-  0.46066     1 3d1-  0.62456     2 1s    0.28726
                                    2 2py  -0.32890     2 3d2- -0.46171     2 3d1- -0.62411     3 1s    0.51968     4 1s   -0.39063
                                    5 1s    0.39018     6 1s   -0.52022
   35.1    -0.00000     2.61035     1 2py  -0.38566     1 3d1+ -0.25757     1 3d2+ -0.39858     1 3d1-  0.65036     2 2py   0.38594
                                    2 3d1+ -0.25764     2 3d2+ -0.39857     2 3d1-  0.65067     3 1s    0.31393     4 1s   -0.51221
                                    5 1s   -0.51241     6 1s    0.31426
   36.1    -0.00000     2.86631     1 1s   -1.54404     1 2px  -0.79403     1 2py   0.25100     1 2pz   0.43086     1 3d2-  0.25090
                                    1 3d1+  0.65782     1 3d2+ -0.59702     2 1s    1.54401     2 2px  -0.79404     2 2py   0.25101
                                    2 2pz   0.43084     2 3d2- -0.25085     2 3d1+ -0.65783     2 3d2+  0.59705


 Natural orbital dump (state averaged) at molpro section  2140.2    (Orbital set 2)



 **********************************************************************************************************************************
 DATASETS  * FILE   NREC   LENGTH (MB)   RECORD NAMES
              1      20       31.85       500      610      700      900      950      970     1000      129      960     1100   
                                          VAR    BASINP    GEOM    SYMINP    ZMAT    AOBASIS   BASIS     P2S    ABASIS      S 
                                         1400     1410     1200     1210     1080     1600     1650     1300     1700     1380   
                                           T        V       H0       H01     AOSYM     SMH    MOLCAS    ERIS     OPER     JKOP   

              2       5        5.42       700     1000      520     2100     2140   
                                         GEOM     BASIS   MCVARS     RHF     MCSCF   

 PROGRAMS   *        TOTAL     MULTI    HF-SCF       INT
 CPU TIMES  *         0.91      0.37      0.18      0.26
 REAL TIME  *         1.38 SEC
 DISK USED  *        39.03 MB
 **********************************************************************************************************************************
 Molecular orbitals read from record     2140.2  Type=MCSCF/NATURAL (state averaged)
 Occupation numbers read from record     2140.2  Type=MCSCF/NATURAL (state averaged)
 Orbital energies read from record       2140.2  Type=MCSCF/NATURAL (state averaged)
 Redundancy group numbers read from rec  2140.2  Type=MCSCF/NATURAL (state averaged)

 MULTI/6-31G* energy=    -77.616380683622

           MULTI          HF-SCF
    -77.61638068    -77.79033585
 **********************************************************************************************************************************
 Molpro calculation terminated
