
 Primary working directories    : /scratch.local/johan406.molpro_temp/molpro.fB3XdlVch6
 Secondary working directories  : /scratch.local/johan406.molpro_temp/molpro.fB3XdlVch6
 Wavefunction directory         : /home/goodpast/johan406/wfu/
 Main file repository           : /scratch.local/johan406.molpro_temp/molpro.fB3XdlVch6/

 id        : roweumn

 Nodes     nprocs
 cn0391       1

 Using customized tuning parameters: mindgm=1; mindgv=20; mindgc=4; mindgr=1; noblas=0; minvec=7
 default implementation of scratch files=df  


 Variables initialized (934), CPU time= 0.00 sec
                                                                                 !leave this line blank
 
 gprint, orbitals=30
 memory, 125., m
 symmetry, nosym
 nelect=16
 basis=6-31g*
 
 geometry={
 C -0.6951 0.1483 0.3383
 C 0.704 -0.1981 -0.3986
 H -1.2011 0.9756 -0.1814
 H -0.8328 -0.8741 -0.1163
 H 0.8417 0.8242 0.0559
 H 1.21 -1.0255 0.1209
 }
 
 hf
 {multi,
 closed 7
 occ 9
 wf,spin=0;STATE,3
 }
 
 Commands  initialized (763), CPU time= 0.02 sec, 617 directives.
 Default parameters read. Elapsed time= 0.07 sec

 Checking input...
 Passed
1


                                         ***  PROGRAM SYSTEM MOLPRO  ***
                                       Copyright, TTI GmbH Stuttgart, 2015
                                    Version 2019.2 linked Oct 25 2019 22:50:27


 **********************************************************************************************************************************
 LABEL *                                                                                 
  64 bit serial version                                                                  DATE: 07-Feb-23          TIME: 15:32:29  
 **********************************************************************************************************************************

 SHA1:             8dbd9ae1082e4ce945b0f27595c9eb2d4aa09004
 **********************************************************************************************************************************


 Variable memory set to  125000000 words,  buffer space 

 SETTING NELECT         =        16.00000000                                  
 SETTING BASIS          =    6-31G*
 ZSYMEL=NOSYM


Geometry recognized as XYZ



 Recomputing integrals since basis changed


 Using spherical harmonics

 Library entry C      S 6-31G                selected for orbital group  1
 Library entry C      P 6-31G                selected for orbital group  1
 Library entry C      D 6-31G*               selected for orbital group  1
 Library entry H      S 6-31G                selected for orbital group  2


 PROGRAM * SEWARD (Integral evaluation for generally contracted gaussian basis sets)     Author: Roland Lindh, 1990

 Geometry written to block  1 of record 700


 Point group  C1  



 ATOMIC COORDINATES

 NR  ATOM    CHARGE       X              Y              Z

   1  C       6.00   -1.313548629    0.280246384    0.639294348
   2  C       6.00    1.330367192   -0.374354745   -0.753244833
   3  H       1.00   -2.269750048    1.843616807   -0.342796319
   4  H       1.00   -1.573763917   -1.651809605   -0.219775148
   5  H       1.00    1.590582479    1.557512272    0.105635690
   6  H       1.00    2.286568611   -1.937914141    0.228467888

 Bond lengths in Bohr (Angstrom)

 1-2  3.059078109  1-3  2.079170582  1-4  2.130387932  2-5  2.130140353  2-6  2.079134196
     ( 1.618794422)     ( 1.100249690)     ( 1.127352744)     ( 1.127221731)     ( 1.100230435)

 Bond angles

  1-2-5   74.21471749   1-2-6  110.08843486   2-1-3  110.08183356   2-1-4   74.21306543

  3-1-4  115.80268419   5-2-6  115.81472126

 NUCLEAR CHARGE:                   16
 NUMBER OF PRIMITIVE AOS:          72
 NUMBER OF SYMMETRY AOS:           70
 NUMBER OF CONTRACTIONS:           36   (   36A   )
 NUMBER OF CORE ORBITALS:           2   (    2A   )
 NUMBER OF VALENCE ORBITALS:       12   (   12A   )


 NUCLEAR REPULSION ENERGY   31.19093988

 Eigenvalues of metric

         1 0.134E-01 0.325E-01 0.540E-01 0.713E-01 0.803E-01 0.225E+00 0.267E+00 0.296E+00


 Contracted 2-electron integrals neglected if value below      1.0D-11
 AO integral compression algorithm  1   Integral accuracy      1.0D-11

     1.573 MB (compressed) written to integral file ( 58.1%)


 NUMBER OF SORTED TWO-ELECTRON INTEGRALS:     222111.     BUFFER LENGTH:  32768
 NUMBER OF SEGMENTS:   1  SEGMENT LENGTH:     222111      RECORD LENGTH: 524288

 Memory used in sort:       0.78 MW

 SORT1 READ      284735. AND WROTE      212529. INTEGRALS IN      1 RECORDS. CPU TIME:     0.00 SEC, REAL TIME:     0.01 SEC
 SORT2 READ      212529. AND WROTE      222111. INTEGRALS IN      6 RECORDS. CPU TIME:     0.03 SEC, REAL TIME:     0.03 SEC

 FILE SIZES:   FILE 1:    31.7 MBYTE,  FILE 4:     4.2 MBYTE,   TOTAL:     35.9 MBYTE

 OPERATOR DM      FOR CENTER  0  COORDINATES:    0.000000    0.000000    0.000000


 **********************************************************************************************************************************
 DATASETS  * FILE   NREC   LENGTH (MB)   RECORD NAMES
              1      19       31.12       500      610      700      900      950      970     1000      129      960     1100   
                                          VAR    BASINP    GEOM    SYMINP    ZMAT    AOBASIS   BASIS     P2S    ABASIS      S 
                                         1400     1410     1200     1210     1080     1600     1650     1300     1700   
                                           T        V       H0       H01     AOSYM     SMH    MOLCAS    ERIS     OPER   

 PROGRAMS   *        TOTAL       INT
 CPU TIMES  *         0.37      0.26
 REAL TIME  *         0.65 SEC
 DISK USED  *        36.24 MB
 **********************************************************************************************************************************


 PROGRAM * RHF-SCF (CLOSED SHELL)       Authors: W. Meyer, H.-J. Werner


 NUMBER OF ELECTRONS:       8+    8-    SPACE SYMMETRY=1    SPIN SYMMETRY: Singlet 
 CONVERGENCE THRESHOLDS:    1.00E-05 (Density)    1.00E-07 (Energy)
 MAX. NUMBER OF ITERATIONS:       60
 INTERPOLATION TYPE:            DIIS
 INTERPOLATION STEPS:              2 (START)      1 (STEP)
 LEVEL SHIFTS:                  0.00 (CLOSED)  0.00 (OPEN) 



 Orbital guess generated from atomic densities. Full valence occupancy:    8

 Molecular orbital dump at record        2100.2

 Initial occupancy:   8

 ITERATION    DDIFF          GRAD             ENERGY        2-EL.EN.            DIPOLE MOMENTS         DIIS   ORB.
    1      0.000D+00      0.000D+00       -77.76349175    113.161936    0.00009   -0.00008   -0.00018    0    start
    2      0.000D+00      0.649D-02       -77.77992529    112.697274    0.00013   -0.00002   -0.00014    1    diag
    3      0.789D-02      0.186D-02       -77.78166457    112.919752    0.00018   -0.00003   -0.00018    2    diag
    4      0.308D-02      0.566D-03       -77.78190837    112.831042    0.00017   -0.00001   -0.00015    3    diag
    5      0.130D-02      0.264D-03       -77.78202560    112.849579    0.00022   -0.00003   -0.00020    4    diag
    6      0.795D-03      0.175D-03       -77.78211463    112.852056    0.00015    0.00000   -0.00013    5    diag
    7      0.709D-03      0.121D-03       -77.78219833    112.861126    0.00040   -0.00011   -0.00041    6    diag
    8      0.113D-02      0.459D-04       -77.78220922    112.865314   -0.00030    0.00023    0.00041    7    diag
    9      0.478D-03      0.155D-04       -77.78220956    112.865752    0.00058   -0.00020   -0.00063    8    diag
   10      0.611D-04      0.953D-05       -77.78220965    112.865926    0.00018   -0.00001   -0.00016    9    orth
   11      0.313D-04      0.168D-05       -77.78220965    112.865941    0.00020   -0.00002   -0.00018    9    diag
   12      0.726D-05      0.389D-06       -77.78220965    112.865936    0.00020   -0.00002   -0.00018    0    orth

 Final occupancy:   8

 !RHF STATE  1.1 Energy               -77.782209651177
 Nuclear energy                        31.19093988
 One-electron energy                 -165.40611766
 Two-electron energy                   56.43296812
 Virial quotient                       -1.00279227
 !RHF STATE  1.1 Dipole moment          0.00020120    -0.00001866    -0.00017952
 Dipole moment /Debye                   0.00051135    -0.00004742    -0.00045626

 ELECTRON ORBITALS
 =================

  Orbital  Occupation    Energy     Coefficients
    1.1     2.00000   -11.27183     1 1s    0.69934     2 1s    0.70965
    2.1     2.00000   -11.27134     1 1s    0.70967     2 1s   -0.69937
    3.1     2.00000    -1.01851     1 1s    0.26884     1 1s    0.25933     2 1s    0.26888     2 1s    0.25935
    4.1     2.00000    -0.77880     1 1s    0.31090     2 1s   -0.31086
    5.1     2.00000    -0.63835     1 2py   0.30316     2 2py   0.30336
    6.1     2.00000    -0.55149     1 2py  -0.25995     2 2py   0.25979
    7.1     2.00000    -0.37803     1 1s    0.27218     1 2pz   0.29296     1 2pz   0.27908     2 1s   -0.27211     2 2pz   0.29295
                                    2 2pz   0.27909
    8.1     2.00000    -0.36173     1 2px   0.33910     1 2px   0.25724     2 2px  -0.33911     2 2px  -0.25726
    9.1     0.00000     0.03727     1 1s    0.40006     1 2pz   0.32324     1 2pz   0.41470     2 1s    0.40005     2 2pz  -0.32328
                                    2 2pz  -0.41477
   10.1     0.00000     0.21750     1 1s   -1.13213     1 2px   0.30224     1 2py   0.27948     1 2pz   0.43437     2 1s   -1.13226
                                    2 2px  -0.30223     2 2py  -0.27935     2 2pz  -0.43431     3 1s    0.56500     4 1s    1.10578
                                    5 1s    1.10570     6 1s    0.56512
   11.1     0.00000     0.28762     1 1s    1.58209     1 2py   0.37651     1 2pz  -0.58155     2 1s   -1.58192     2 2py   0.37659
                                    2 2pz  -0.58135     3 1s   -1.40549     6 1s    1.40534
   12.1     0.00000     0.30177     1 1s   -0.56576     1 2px   0.33056     1 2py  -0.98593     1 2pz   0.38339     2 1s   -0.56586
                                    2 2px  -0.33071     2 2py   0.98600     2 2pz  -0.38333     3 1s    1.46112     4 1s   -0.57533
                                    5 1s   -0.57518     6 1s    1.46138
   13.1     0.00000     0.33988     1 2px  -0.32788     1 2px  -1.14072     2 2px  -0.32786     2 2px  -1.14071     3 1s   -0.58100
                                    4 1s   -0.84107     5 1s    0.84141     6 1s    0.58083
   14.1     0.00000     0.36570     1 1s    1.35632     1 2px   0.52174     1 2py  -1.03597     1 2pz  -0.55858     2 1s   -1.35663
                                    2 2px   0.52176     2 2py  -1.03630     2 2pz  -0.55862     3 1s    0.40829     4 1s   -1.63483
                                    5 1s    1.63543     6 1s   -0.40854
   15.1     0.00000     0.73178     1 2px  -0.53689     1 2px   0.77082     1 2py   0.31803     2 2px   0.53698     2 2px  -0.77079
                                    2 2py  -0.31836     4 1s    0.29571     4 1s   -0.39206     5 1s    0.29580     5 1s   -0.39179
   16.1     0.00000     0.77111     1 2px  -0.35876     1 2py   0.30138     1 2px   0.67716     1 2py  -0.77255     2 2px  -0.35813
                                    2 2py   0.30003     2 2px   0.67612     2 2py  -0.76991     3 1s    0.47737     6 1s   -0.47685
   17.1     0.00000     0.77225     1 1s   -0.31962     1 2py   0.53625     1 2px   0.40053     1 2py  -1.13105     2 1s   -0.31814
                                    2 2py  -0.53713     2 2px  -0.40295     2 2py   1.13374
   18.1     0.00000     0.78652     1 1s    0.53801     1 2pz   0.70283     1 2px   0.48141     1 2py  -0.42467     1 2pz  -0.81344
                                    2 1s   -0.53841     2 2pz   0.70275     2 2px   0.48105     2 2py  -0.42337     2 2pz  -0.81352
   19.1     0.00000     0.85240     1 1s   -0.27662     1 2pz  -0.70969     1 2px   0.40456     1 2py  -0.37089     1 2pz   0.96359
                                    2 1s   -0.27664     2 2pz   0.70955     2 2px  -0.40500     2 2py   0.37093     2 2pz  -0.96337
   20.1     0.00000     0.90976     1 2px  -0.63798     1 2py  -0.35629     1 2px   0.89701     1 2py   0.93089     2 2px  -0.63775
                                    2 2py  -0.35627     2 2px   0.89675     2 2py   0.93111     4 1s    0.26407     4 1s    0.87708
                                    5 1s   -0.26406     5 1s   -0.87752
   21.1     0.00000     1.11531     1 1s   -0.71216     1 1s    1.24017     1 2px   0.27438     1 2py   0.29714     1 2px  -0.25981
                                    1 2py  -0.35439     2 1s   -0.71289     2 1s    1.24285     2 2px  -0.27429     2 2py  -0.29546
                                    2 2px   0.25797     2 2py   0.35248     3 1s   -0.26672     4 1s    0.66884     4 1s   -1.10039
                                    5 1s    0.66638     5 1s   -1.09656     6 1s   -0.26777
   22.1     0.00000     1.12765     1 1s   -0.54324     1 1s    1.87260     1 2px   1.21690     1 2pz  -0.40757     2 1s    0.54242
                                    2 1s   -1.87114     2 2px   1.21781     2 2pz  -0.40808     3 1s   -0.34850     3 1s    0.29989
                                    4 1s   -0.68678     4 1s    0.71748     5 1s    0.68841     5 1s   -0.71880     6 1s    0.35073
                                    6 1s   -0.30159
   23.1     0.00000     1.14521     1 2py  -0.65407     1 2px  -0.49904     1 2py   1.05793     2 2py  -0.65410     2 2px  -0.49830
                                    2 2py   1.05816     3 1s    0.56598     3 1s   -1.17992     4 1s   -0.29732     4 1s    0.79812
                                    5 1s    0.29832     5 1s   -0.79965     6 1s   -0.56458     6 1s    1.17818
   24.1     0.00000     1.16726     1 2py  -0.41646     1 2py   0.37547     2 2py   0.41764     2 2py  -0.37651     3 1s    0.79948
                                    3 1s   -0.83974     4 1s    0.56148     5 1s    0.56394     6 1s    0.79947     6 1s   -0.84057
   25.1     0.00000     1.22447     1 1s   -1.29937     1 1s    2.10407     1 2py   0.48718     1 2pz  -0.80858     2 1s   -1.33049
                                    2 1s    2.18061     2 2py  -0.47671     2 2pz   0.82853     3 1s   -0.95802     4 1s   -0.36188
                                    4 1s   -0.38640     5 1s   -0.35691     5 1s   -0.40859     6 1s   -0.97488
   26.1     0.00000     1.22710     1 1s    1.52779     1 1s   -3.77337     1 2pz  -0.25363     1 2px  -0.51985     1 2py   0.51682
                                    1 2pz   0.99428     2 1s   -1.50076     2 1s    3.72950     2 2px  -0.52326     2 2py   0.52697
                                    2 2pz   0.97720     3 1s    0.80275     4 1s    1.05038     5 1s   -1.04275     6 1s   -0.78285
   27.1     0.00000     1.75535     1 3d0   0.48920     1 3d1+ -0.30402     1 3d2+ -0.27587     2 3d0  -0.48919     2 3d1+  0.30406
                                    2 3d2+  0.27589
   28.1     0.00000     1.88971     1 1s    0.26655     1 1s   -1.01470     1 2px  -0.26599     1 2pz   0.30276     1 3d2-  0.42561
                                    1 3d1+ -0.33235     1 3d1- -0.38073     2 1s   -0.26631     2 1s    1.01434     2 2px  -0.26601
                                    2 2pz   0.30257     2 3d2- -0.42567     2 3d1+  0.33240     2 3d1-  0.38080
   29.1     0.00000     1.99380     1 1s    0.50029     1 1s   -0.70888     1 2pz   0.32137     1 3d0   0.36892     1 3d1+  0.49268
                                    2 1s    0.50024     2 1s   -0.70872     2 2pz  -0.32126     2 3d0   0.36882     2 3d1+  0.49256
   30.1     0.00000     2.07788     1 3d2- -0.38899     1 3d2+  0.47271     2 3d2- -0.38904     2 3d2+  0.47240
   31.1     0.00000     2.20014     1 1s    0.33640     1 1s   -1.41731     1 2px  -0.39821     1 2py   0.25216     1 2pz   0.43315
                                    1 3d0   0.47726     1 3d2+  0.42924     2 1s   -0.33636     2 1s    1.41762     2 2px  -0.39805
                                    2 2py   0.25187     2 2pz   0.43331     2 3d0  -0.47734     2 3d2+ -0.42952     3 1s    0.32295
                                    4 1s    0.42844     5 1s   -0.42860     6 1s   -0.32321
   32.1     0.00000     2.33021     1 2py   0.27130     1 3d0   0.55028     1 3d2- -0.25317     1 3d2+ -0.29271     1 3d1- -0.26194
                                    2 2py  -0.27151     2 3d0   0.55031     2 3d2- -0.25316     2 3d2+ -0.29267     2 3d1- -0.26203
                                    3 1s   -0.26084     6 1s   -0.26079
   33.1     0.00000     2.48767     1 3d0   0.28539     1 3d2-  0.60210     1 3d1+ -0.35400     1 3d2+  0.25561     2 3d0   0.28559
                                    2 3d2-  0.60211     2 3d1+ -0.35389     2 3d2+  0.25577     3 1s    0.40822     6 1s    0.40831
   34.1     0.00000     2.54846     1 1s   -0.33150     1 2py  -0.33106     1 3d2-  0.45401     1 3d1-  0.62716     2 1s    0.33150
                                    2 2py  -0.33096     2 3d2- -0.45417     2 3d1- -0.62680     3 1s    0.51859     4 1s   -0.39328
                                    5 1s    0.39314     6 1s   -0.51845
   35.1     0.00000     2.60511     1 2py  -0.37977     1 3d2+ -0.41260     1 3d1-  0.65330     2 2py   0.38018     2 3d2+ -0.41262
                                    2 3d1-  0.65367     3 1s    0.28633     4 1s   -0.53080     5 1s   -0.53118     6 1s    0.28651
   36.1     0.00000     2.86747     1 1s   -1.49434     1 2px  -0.77338     1 2pz   0.42168     1 3d1+  0.65051     1 3d2+ -0.59482
                                    2 1s    1.49430     2 2px  -0.77337     2 2pz   0.42166     2 3d1+ -0.65048     2 3d2+  0.59490


 HOMO      8.1    -0.361730 =      -9.8432eV
 LUMO      9.1     0.037270 =       1.0142eV
 LUMO-HOMO         0.399000 =      10.8573eV


 **********************************************************************************************************************************
 DATASETS  * FILE   NREC   LENGTH (MB)   RECORD NAMES
              1      19       31.12       500      610      700      900      950      970     1000      129      960     1100   
                                          VAR    BASINP    GEOM    SYMINP    ZMAT    AOBASIS   BASIS     P2S    ABASIS      S 
                                         1400     1410     1200     1210     1080     1600     1650     1300     1700   
                                           T        V       H0       H01     AOSYM     SMH    MOLCAS    ERIS     OPER   

              2       4        2.86       700     1000      520     2100   
                                         GEOM     BASIS   MCVARS     RHF  

 PROGRAMS   *        TOTAL    HF-SCF       INT
 CPU TIMES  *         0.53      0.16      0.26
 REAL TIME  *         0.91 SEC
 DISK USED  *        36.24 MB
 **********************************************************************************************************************************


 PROGRAM * MULTI (Direct Multiconfiguration SCF)       Authors: P.J. Knowles, H.-J. Werner (1984)


 Number of closed-shell orbitals:   7 (   7 )
 Number of active  orbitals:        2 (   2 )
 Number of external orbitals:      27 (  27 )

 State symmetry 1

 Number of electrons:     2    Spin symmetry=Singlet   Space symmetry=1
 Number of states:        3
 Number of CSFs:          3   (4 determinants, 4 intermediate states)

 Molecular orbitals read from record     2100.2  Type=RHF/CANONICAL (state 1.1)

 Wavefunction dump at record             2140.2

 Convergence thresholds  0.10E-01 (gradient)  0.10E-05 (energy)  0.10E-02 (step length)

 Weight factors for state symmetry  1:    0.33333   0.33333   0.33333

 Number of orbital rotations:      257   (    14 Core/Active    189 Core/Virtual   0 Active/Active     54 Active/Virtual)
 Total number of variables:        269

 Micro-Iterations solved by the two-step solver

 ITER. MIC  NCI  NEG     ENERGY(VAR)     ENERGY(PROJ)   ENERGY CHANGE     GRAD(0)  GRAD(ORB)   GRAD(CI)     STEP       TIME

   1    6    5    0     -77.69068636     -77.71025996   -0.01957360    0.17236130 0.00055233 0.00000000  0.15D+00      0.11
   2    6    5    0     -77.70977887     -77.70980852   -0.00002965    0.00790411 0.00000142 0.00000000  0.55D-02      0.20
   3    4    4    0     -77.70980857     -77.70980857   -0.00000000    0.00001901 0.00000000 0.00000000  0.22D-04      0.27
   4    3    3    0     -77.70980857     -77.70980857    0.00000000    0.00000000 0.00000000 0.00000000  0.21D-09      0.34

 ** WVFN ****  CONVERGENCE REACHED, FINAL GRADIENT:  0.10D-10



 Results for state 1.1
 =====================

 !MCSCF STATE  1.1 Energy             -77.776848072677
 Nuclear energy                        31.19093988
 Kinetic energy                        77.69370626
 One electron energy                 -165.57463321
 Two electron energy                   56.60684525
 Virial ratio                           2.00107012

 !MCSCF STATE  1.1 Dipole moment        0.00023588    -0.00001470    -0.00022565
 Dipole moment /Debye                   0.00059951    -0.00003737    -0.00057351

 Results for state 2.1
 =====================

 !MCSCF STATE  2.1 Energy             -77.730366077486
 Nuclear energy                        31.19093988
 Kinetic energy                        77.79888950
 One electron energy                 -165.21408985
 Two electron energy                   56.29278389
 Virial ratio                           1.99911922

 !MCSCF STATE  2.1 Dipole moment        0.00007652    -0.00004463    -0.00010432
 Dipole moment /Debye                   0.00019447    -0.00011344    -0.00026514

 Results for state 3.1
 =====================

 !MCSCF STATE  3.1 Energy             -77.622211563130
 Nuclear energy                        31.19093988
 Kinetic energy                        77.87108961
 One electron energy                 -164.85215049
 Two electron energy                   56.03899905
 Virial ratio                           1.99680397

 !MCSCF STATE  3.1 Dipole moment       -0.00009969    -0.00010486    -0.00001212
 Dipole moment /Debye                  -0.00025337    -0.00026650    -0.00003081

 State-averaged charge density matrix saved on record  2140.2 (density set 1)

 !MCSCF expec         <1.1|DMX|1.1>     0.000235881966 au =     0.000599512887 Debye
 !MCSCF trans         <2.1|DMX|1.1>     0.000031173150 au =     0.000079229055 Debye
 !MCSCF expec         <2.1|DMX|2.1>     0.000076517267 au =     0.000194474756 Debye
 !MCSCF trans         <3.1|DMX|1.1>     0.000032891581 au =     0.000083596585 Debye
 !MCSCF trans         <3.1|DMX|2.1>     0.000013216599 au =     0.000033591044 Debye
 !MCSCF expec         <3.1|DMX|3.1>    -0.000099688027 au =    -0.000253365096 Debye

 !MCSCF expec         <1.1|DMY|1.1>    -0.000014704551 au =    -0.000037372793 Debye
 !MCSCF trans         <2.1|DMY|1.1>     0.000037079400 au =     0.000094240262 Debye
 !MCSCF expec         <2.1|DMY|2.1>    -0.000044631896 au =    -0.000113435533 Debye
 !MCSCF trans         <3.1|DMY|1.1>     0.000004444540 au =     0.000011296155 Debye
 !MCSCF trans         <3.1|DMY|2.1>     0.000039153723 au =     0.000099512319 Debye
 !MCSCF expec         <3.1|DMY|3.1>    -0.000104855046 au =    -0.000266497488 Debye

 !MCSCF expec         <1.1|DMZ|1.1>    -0.000225651953 au =    -0.000573512490 Debye
 !MCSCF trans         <2.1|DMZ|1.1>     0.000024544334 au =     0.000062381389 Debye
 !MCSCF expec         <2.1|DMZ|2.1>    -0.000104321633 au =    -0.000265141777 Debye
 !MCSCF trans         <3.1|DMZ|1.1>    -0.000027719787 au =    -0.000070452056 Debye
 !MCSCF trans         <3.1|DMZ|2.1>     0.000046636046 au =     0.000118529242 Debye
 !MCSCF expec         <3.1|DMZ|3.1>    -0.000012120807 au =    -0.000030806002 Debye


 NATURAL ORBITALS (state averaged)
 =================================

  Orbital  Occupation    Energy     Coefficients
    1.1     2.00000   -11.27114     1 1s    0.71376     2 1s    0.69514
    2.1     2.00000   -11.27079     1 1s    0.69514     2 1s   -0.71376
    3.1     2.00000    -1.03132     1 1s    0.26908     1 1s    0.25554     2 1s    0.26911     2 1s    0.25554
    4.1     2.00000    -0.78237     1 1s    0.25083     1 1s    0.32827     2 1s   -0.25082     2 1s   -0.32824
    5.1     2.00000    -0.64456     1 2py   0.29982     2 2py   0.29998
    6.1     2.00000    -0.55747     1 2py  -0.27438     2 2py   0.27425
    7.1     2.00000    -0.41194     1 2pz   0.31361     1 2pz   0.27413     2 2pz   0.31359     2 2pz   0.27412
    8.1     1.00000    -0.11700     1 1s    0.26610     1 2pz   0.39773     1 2pz   0.37921     2 1s    0.26610     2 2pz  -0.39777
                                    2 2pz  -0.37927
    9.1     1.00000    -0.19235     1 2px   0.35368     1 2px   0.26375     2 2px  -0.35370     2 2px  -0.26377
   10.1    -0.00000     0.20801     1 1s   -1.15599     1 2px   0.30045     1 2py   0.27227     1 2pz   0.38417     2 1s   -1.15600
                                    2 2px  -0.30044     2 2py  -0.27211     2 2pz  -0.38405     3 1s    0.56178     4 1s    1.11066
                                    5 1s    1.11050     6 1s    0.56183
   11.1    -0.00000     0.28447     1 1s    1.63186     1 2py   0.32192     1 2pz  -0.58460     2 1s   -1.63171     2 2py   0.32179
                                    2 2pz  -0.58438     3 1s   -1.40815     6 1s    1.40778
   12.1    -0.00000     0.30238     1 1s   -0.59481     1 2px   0.32286     1 2py  -0.98219     1 2pz   0.35769     2 1s   -0.59533
                                    2 2px  -0.32287     2 2py   0.98219     2 2pz  -0.35778     3 1s    1.46803     4 1s   -0.55597
                                    5 1s   -0.55566     6 1s    1.46844
   13.1    -0.00000     0.34993     1 1s    0.52945     1 2px  -0.66675     1 2py  -0.68619     2 1s   -0.52982     2 2px  -0.66674
                                    2 2py  -0.68662     4 1s   -1.64687     5 1s    1.64755
   14.1    -0.00000     0.35375     1 1s    1.11228     1 2px   1.08597     1 2py  -0.78022     1 2pz  -0.50136     2 1s   -1.11236
                                    2 2px   1.08601     2 2py  -0.78047     2 2pz  -0.50140     3 1s    0.68976     4 1s   -0.80425
                                    5 1s    0.80462     6 1s   -0.69002
   15.1    -0.00000     0.72817     1 2px  -0.51310     1 2py  -0.27486     1 2px   0.73579     1 2py   0.38574     2 2px   0.51315
                                    2 2py   0.27491     2 2px  -0.73566     2 2py  -0.38607     4 1s    0.33282     4 1s   -0.42237
                                    5 1s    0.33291     5 1s   -0.42212
   16.1    -0.00000     0.76797     1 2px  -0.33991     1 2py   0.28941     1 2px   0.63164     1 2py  -0.75083     2 2px  -0.33896
                                    2 2py   0.28780     2 2px   0.63014     2 2py  -0.74749     3 1s    0.47236     6 1s   -0.47165
   17.1    -0.00000     0.77170     1 1s   -0.28884     1 2px  -0.27468     1 2py   0.50300     1 2px   0.44735     1 2py  -1.09919
                                    2 1s   -0.28747     2 2px   0.27591     2 2py  -0.50399     2 2px  -0.44994     2 2py   1.10216
   18.1    -0.00000     0.78425     1 1s    0.71999     1 2pz   0.67953     1 2px   0.55230     1 2py  -0.51301     1 2pz  -0.85832
                                    2 1s   -0.72028     2 2pz   0.67948     2 2px   0.55213     2 2py  -0.51220     2 2pz  -0.85835
   19.1    -0.00000     0.84581     1 2pz  -0.68426     1 2px   0.42499     1 2py  -0.38758     1 2pz   1.01818     2 2pz   0.68419
                                    2 2px  -0.42536     2 2py   0.38768     2 2pz  -1.01804
   20.1    -0.00000     0.91277     1 2px  -0.64303     1 2py  -0.33698     1 2px   0.81753     1 2py   0.91042     2 2px  -0.64282
                                    2 2py  -0.33699     2 2px   0.81731     2 2py   0.91068     4 1s    0.30108     4 1s    0.80518
                                    5 1s   -0.30109     5 1s   -0.80561
   21.1    -0.00000     1.09807     1 1s   -0.71622     1 1s    1.24372     1 2px   0.26763     1 2py   0.33215     1 2px  -0.25862
                                    1 2py  -0.39332     2 1s   -0.71692     2 1s    1.24677     2 2px  -0.26715     2 2py  -0.33018
                                    2 2px   0.25558     2 2py   0.39117     4 1s    0.67319     4 1s   -1.12844     5 1s    0.67002
                                    5 1s   -1.12329
   22.1    -0.00000     1.11310     1 1s   -0.41217     1 1s    1.47718     1 2py  -0.30028     1 2px   1.10986     1 2pz  -0.30063
                                    2 1s    0.41009     2 1s   -1.47351     2 2py  -0.30116     2 2px   1.11107     2 2pz  -0.30083
                                    3 1s   -0.26894     4 1s   -0.72640     4 1s    0.96901     5 1s    0.72902     5 1s   -0.97240
                                    6 1s    0.27084
   23.1    -0.00000     1.14236     1 1s   -0.65121     1 2px   0.26738     1 2py  -0.62553     1 2px  -0.72388     1 2py   1.10180
                                    2 1s    0.65374     2 2px   0.26690     2 2py  -0.62561     2 2px  -0.72337     2 2py   1.10198
                                    3 1s    0.60346     3 1s   -1.16433     4 1s    0.73997     5 1s   -0.74132     6 1s   -0.60266
                                    6 1s    1.16307
   24.1    -0.00000     1.16667     1 2px   0.25303     1 2py  -0.38810     1 2py   0.32366     2 2px  -0.25298     2 2py   0.38904
                                    2 2py  -0.32474     3 1s    0.81861     3 1s   -0.79432     4 1s    0.51776     5 1s    0.52009
                                    6 1s    0.81856     6 1s   -0.79450
   25.1    -0.00000     1.21534     1 1s    1.54512     1 1s   -3.84882     1 2px  -0.57306     1 2py   0.44224     1 2pz   0.98802
                                    2 1s   -1.56216     2 1s    3.87670     2 2px  -0.57064     2 2py   0.43573     2 2pz   0.99795
                                    3 1s    0.85033     4 1s    0.92173     5 1s   -0.92691     6 1s   -0.86365
   26.1    -0.00000     1.21924     1 1s   -1.33105     1 1s    2.17560     1 2py   0.51201     1 2pz  -0.80114     2 1s   -1.31111
                                    2 1s    2.12553     2 2py  -0.51807     2 2pz   0.78807     3 1s   -1.01972     4 1s   -0.35892
                                    4 1s   -0.38130     5 1s   -0.36029     5 1s   -0.36977     6 1s   -1.00935
   27.1    -0.00000     1.75066     1 3d0   0.48429     1 3d1+ -0.30389     1 3d2+ -0.27906     2 3d0  -0.48427     2 3d1+  0.30392
                                    2 3d2+  0.27907
   28.1    -0.00000     1.88197     1 1s    0.26532     1 1s   -1.01357     1 2px  -0.26643     1 2pz   0.30396     1 3d2-  0.42717
                                    1 3d1+ -0.33377     1 3d1- -0.37868     2 1s   -0.26512     2 1s    1.01327     2 2px  -0.26644
                                    2 2pz   0.30380     2 3d2- -0.42722     2 3d1+  0.33379     2 3d1-  0.37872
   29.1    -0.00000     1.99270     1 1s    0.49873     1 1s   -0.69631     1 2pz   0.31332     1 3d0   0.36252     1 3d1+  0.49795
                                    2 1s    0.49865     2 1s   -0.69602     2 2pz  -0.31319     2 3d0   0.36242     2 3d1+  0.49785
   30.1    -0.00000     2.06562     1 1s   -0.25279     1 3d2- -0.38981     1 3d2+  0.47685     2 1s   -0.25191     2 3d2- -0.38986
                                    2 3d2+  0.47654
   31.1    -0.00000     2.19800     1 1s    0.33519     1 1s   -1.40192     1 2px  -0.39396     1 2py   0.25381     1 2pz   0.42706
                                    1 3d0   0.48175     1 3d2+  0.43230     2 1s   -0.33517     2 1s    1.40226     2 2px  -0.39380
                                    2 2py   0.25352     2 2pz   0.42723     2 3d0  -0.48182     2 3d2+ -0.43256     3 1s    0.32317
                                    4 1s    0.42387     5 1s   -0.42402     6 1s   -0.32341
   32.1    -0.00000     2.32409     1 2py   0.26940     1 3d0   0.54415     1 3d2- -0.27092     1 3d2+ -0.29914     1 3d1- -0.25603
                                    2 2py  -0.26960     2 3d0   0.54419     2 3d2- -0.27091     2 3d2+ -0.29912     2 3d1- -0.25611
                                    3 1s   -0.26880     6 1s   -0.26874
   33.1    -0.00000     2.48114     1 3d0   0.30217     1 3d2-  0.59239     1 3d1+ -0.35051     1 3d2+  0.26442     2 3d0   0.30240
                                    2 3d2-  0.59239     2 3d1+ -0.35040     2 3d2+  0.26460     3 1s    0.39712     6 1s    0.39720
   34.1    -0.00000     2.54557     1 1s   -0.34041     1 2py  -0.33374     1 3d2-  0.45444     1 3d1-  0.62788     2 1s    0.34045
                                    2 2py  -0.33358     2 3d2- -0.45463     2 3d1- -0.62742     3 1s    0.51974     4 1s   -0.38811
                                    5 1s    0.38789     6 1s   -0.51958
   35.1    -0.00000     2.60195     1 2py  -0.38609     1 3d2+ -0.40023     1 3d1-  0.65686     2 2py   0.38656     2 3d2+ -0.40027
                                    2 3d1-  0.65732     3 1s    0.30001     4 1s   -0.52282     5 1s   -0.52327     6 1s    0.30027
   36.1    -0.00000     2.85604     1 1s   -1.51639     1 2px  -0.78193     1 2py   0.25172     1 2pz   0.42718     1 3d1+  0.65256
                                    1 3d2+ -0.59133     2 1s    1.51635     2 2px  -0.78192     2 2py   0.25168     2 2pz   0.42716
                                    2 3d1+ -0.65254     2 3d2+  0.59140


 Natural orbital dump (state averaged) at molpro section  2140.2    (Orbital set 2)



 **********************************************************************************************************************************
 DATASETS  * FILE   NREC   LENGTH (MB)   RECORD NAMES
              1      20       31.85       500      610      700      900      950      970     1000      129      960     1100   
                                          VAR    BASINP    GEOM    SYMINP    ZMAT    AOBASIS   BASIS     P2S    ABASIS      S 
                                         1400     1410     1200     1210     1080     1600     1650     1300     1700     1380   
                                           T        V       H0       H01     AOSYM     SMH    MOLCAS    ERIS     OPER     JKOP   

              2       5        5.42       700     1000      520     2100     2140   
                                         GEOM     BASIS   MCVARS     RHF     MCSCF   

 PROGRAMS   *        TOTAL     MULTI    HF-SCF       INT
 CPU TIMES  *         0.93      0.40      0.16      0.26
 REAL TIME  *         1.40 SEC
 DISK USED  *        39.03 MB
 **********************************************************************************************************************************
 Molecular orbitals read from record     2140.2  Type=MCSCF/NATURAL (state averaged)
 Occupation numbers read from record     2140.2  Type=MCSCF/NATURAL (state averaged)
 Orbital energies read from record       2140.2  Type=MCSCF/NATURAL (state averaged)
 Redundancy group numbers read from rec  2140.2  Type=MCSCF/NATURAL (state averaged)

 MULTI/6-31G* energy=    -77.622211563130

           MULTI          HF-SCF
    -77.62221156    -77.78220965
 **********************************************************************************************************************************
 Molpro calculation terminated
