
 Primary working directories    : /scratch.local/johan406.molpro_temp/molpro.EHWd7X0A6l
 Secondary working directories  : /scratch.local/johan406.molpro_temp/molpro.EHWd7X0A6l
 Wavefunction directory         : /home/goodpast/johan406/wfu/
 Main file repository           : /scratch.local/johan406.molpro_temp/molpro.EHWd7X0A6l/

 id        : roweumn

 Nodes     nprocs
 cn0391       1

 Using customized tuning parameters: mindgm=1; mindgv=20; mindgc=4; mindgr=1; noblas=0; minvec=7
 default implementation of scratch files=df  


 Variables initialized (934), CPU time= 0.00 sec
                                                                                 !leave this line blank
 
 gprint, orbitals=30
 memory, 125., m
 symmetry, nosym
 nelect=16
 basis=6-31g*
 
 geometry={
 C -0.6267 0.1379 0.2983
 C 0.6356 -0.1878 -0.3587
 H -1.2684 0.8971 -0.1528
 H -0.9616 -0.8666 -0.1368
 H 0.9705 0.8167 0.0764
 H 1.2773 -0.9471 0.0923
 }
 
 hf
 {multi,
 closed 7
 occ 9
 wf,spin=0;STATE,3
 }
 
 Commands  initialized (763), CPU time= 0.02 sec, 617 directives.
 Default parameters read. Elapsed time= 0.08 sec

 Checking input...
 Passed
1


                                         ***  PROGRAM SYSTEM MOLPRO  ***
                                       Copyright, TTI GmbH Stuttgart, 2015
                                    Version 2019.2 linked Oct 25 2019 22:50:27


 **********************************************************************************************************************************
 LABEL *                                                                                 
  64 bit serial version                                                                  DATE: 07-Feb-23          TIME: 15:38:15  
 **********************************************************************************************************************************

 SHA1:             8dbd9ae1082e4ce945b0f27595c9eb2d4aa09004
 **********************************************************************************************************************************


 Variable memory set to  125000000 words,  buffer space 

 SETTING NELECT         =        16.00000000                                  
 SETTING BASIS          =    6-31G*
 ZSYMEL=NOSYM


Geometry recognized as XYZ



 Recomputing integrals since basis changed


 Using spherical harmonics

 Library entry C      S 6-31G                selected for orbital group  1
 Library entry C      P 6-31G                selected for orbital group  1
 Library entry C      D 6-31G*               selected for orbital group  1
 Library entry H      S 6-31G                selected for orbital group  2


 PROGRAM * SEWARD (Integral evaluation for generally contracted gaussian basis sets)     Author: Roland Lindh, 1990

 Geometry written to block  1 of record 700


 Point group  C1  



 ATOMIC COORDINATES

 NR  ATOM    CHARGE       X              Y              Z

   1  C       6.00   -1.184291362    0.260593233    0.563705303
   2  C       6.00    1.201109925   -0.354890566   -0.677844761
   3  H       1.00   -2.396928616    1.695273306   -0.288750152
   4  H       1.00   -1.817160641   -1.637636660   -0.258514534
   5  H       1.00    1.833979204    1.543339326    0.144375076
   6  H       1.00    2.413747179   -1.789759613    0.174421721

 Bond lengths in Bohr (Angstrom)

 1-2  2.758696462  1-3  2.062880590  1-4  2.163295104  2-5  2.163295104  2-6  2.062933942
     ( 1.459839299)     ( 1.091629397)     ( 1.144766470)     ( 1.144766470)     ( 1.091657629)

 Bond angles

  1-2-5   83.46205207   1-2-6  118.52427841   2-1-3  118.52106255   2-1-4   83.46205207

  3-1-4  106.33340759   5-2-6  106.33985129

 NUCLEAR CHARGE:                   16
 NUMBER OF PRIMITIVE AOS:          72
 NUMBER OF SYMMETRY AOS:           70
 NUMBER OF CONTRACTIONS:           36   (   36A   )
 NUMBER OF CORE ORBITALS:           2   (    2A   )
 NUMBER OF VALENCE ORBITALS:       12   (   12A   )


 NUCLEAR REPULSION ENERGY   32.36301271

 Eigenvalues of metric

         1 0.928E-02 0.273E-01 0.596E-01 0.644E-01 0.799E-01 0.218E+00 0.237E+00 0.273E+00


 Contracted 2-electron integrals neglected if value below      1.0D-11
 AO integral compression algorithm  1   Integral accuracy      1.0D-11

     1.573 MB (compressed) written to integral file ( 59.2%)


 NUMBER OF SORTED TWO-ELECTRON INTEGRALS:     222111.     BUFFER LENGTH:  32768
 NUMBER OF SEGMENTS:   1  SEGMENT LENGTH:     222111      RECORD LENGTH: 524288

 Memory used in sort:       0.78 MW

 SORT1 READ      284735. AND WROTE      212531. INTEGRALS IN      1 RECORDS. CPU TIME:     0.00 SEC, REAL TIME:     0.00 SEC
 SORT2 READ      212531. AND WROTE      222111. INTEGRALS IN      6 RECORDS. CPU TIME:     0.02 SEC, REAL TIME:     0.02 SEC

 FILE SIZES:   FILE 1:    31.7 MBYTE,  FILE 4:     4.2 MBYTE,   TOTAL:     35.9 MBYTE

 OPERATOR DM      FOR CENTER  0  COORDINATES:    0.000000    0.000000    0.000000


 **********************************************************************************************************************************
 DATASETS  * FILE   NREC   LENGTH (MB)   RECORD NAMES
              1      19       31.13       500      610      700      900      950      970     1000      129      960     1100   
                                          VAR    BASINP    GEOM    SYMINP    ZMAT    AOBASIS   BASIS     P2S    ABASIS      S 
                                         1400     1410     1200     1210     1080     1600     1650     1300     1700   
                                           T        V       H0       H01     AOSYM     SMH    MOLCAS    ERIS     OPER   

 PROGRAMS   *        TOTAL       INT
 CPU TIMES  *         0.37      0.25
 REAL TIME  *         0.68 SEC
 DISK USED  *        36.24 MB
 **********************************************************************************************************************************


 PROGRAM * RHF-SCF (CLOSED SHELL)       Authors: W. Meyer, H.-J. Werner


 NUMBER OF ELECTRONS:       8+    8-    SPACE SYMMETRY=1    SPIN SYMMETRY: Singlet 
 CONVERGENCE THRESHOLDS:    1.00E-05 (Density)    1.00E-07 (Energy)
 MAX. NUMBER OF ITERATIONS:       60
 INTERPOLATION TYPE:            DIIS
 INTERPOLATION STEPS:              2 (START)      1 (STEP)
 LEVEL SHIFTS:                  0.00 (CLOSED)  0.00 (OPEN) 



 Orbital guess generated from atomic densities. Full valence occupancy:    8

 Molecular orbital dump at record        2100.2

 Initial occupancy:   8

 ITERATION    DDIFF          GRAD             ENERGY        2-EL.EN.            DIPOLE MOMENTS         DIIS   ORB.
    1      0.000D+00      0.000D+00       -77.82811232    115.934327    0.00006   -0.00005   -0.00009    0    start
    2      0.000D+00      0.704D-02       -77.84610083    114.912323    0.00002   -0.00001   -0.00002    1    diag
    3      0.753D-02      0.228D-02       -77.84818095    115.329792    0.00007   -0.00003   -0.00009    2    diag
    4      0.295D-02      0.827D-03       -77.84862656    115.201163    0.00003   -0.00001   -0.00004    3    diag
    5      0.160D-02      0.294D-03       -77.84876587    115.208737    0.00008   -0.00004   -0.00010    4    diag
    6      0.989D-03      0.131D-03       -77.84881213    115.210377   -0.00003    0.00003    0.00006    5    diag
    7      0.617D-03      0.440D-04       -77.84881728    115.211750    0.00020   -0.00012   -0.00028    6    diag
    8      0.219D-03      0.138D-04       -77.84881765    115.212127   -0.00013    0.00010    0.00022    7    diag
    9      0.585D-04      0.673D-05       -77.84881769    115.212155    0.00011   -0.00006   -0.00014    8    diag
   10      0.130D-04      0.252D-05       -77.84881769    115.212129    0.00005   -0.00002   -0.00006    9    orth
   11      0.561D-05      0.490D-06       -77.84881769    115.212135    0.00005   -0.00002   -0.00007    0    orth

 Final occupancy:   8

 !RHF STATE  1.1 Energy               -77.848817693997
 Nuclear energy                        32.36301271
 One-electron energy                 -167.81789812
 Two-electron energy                   57.60606772
 Virial quotient                       -1.00123743
 !RHF STATE  1.1 Dipole moment          0.00005391    -0.00002129    -0.00006604
 Dipole moment /Debye                   0.00013702    -0.00005412    -0.00016785

 ELECTRON ORBITALS
 =================

  Orbital  Occupation    Energy     Coefficients
    1.1     2.00000   -11.25985     1 1s    0.69895     2 1s    0.70989
    2.1     2.00000   -11.25899     1 1s   -0.70999     2 1s    0.69906
    3.1     2.00000    -1.03697     1 1s    0.28304     2 1s    0.28304
    4.1     2.00000    -0.78430     1 1s   -0.29252     2 1s    0.29253
    5.1     2.00000    -0.62197     1 2py   0.30825     2 2py   0.30829
    6.1     2.00000    -0.56211     1 2px   0.29881     2 2px  -0.29881
    7.1     2.00000    -0.39160     1 2pz   0.30932     1 2pz   0.28627     2 2pz   0.30926     2 2pz   0.28623
    8.1     2.00000    -0.38709     1 2px   0.27417     2 2px  -0.27412     4 1s   -0.28597     5 1s   -0.28595
    9.1     0.00000     0.06369     1 1s    0.39812     1 2pz   0.33070     1 2pz   0.46918     2 1s    0.39811     2 2pz  -0.33071
                                    2 2pz  -0.46921
   10.1     0.00000     0.23158     1 1s   -1.09733     1 2px   0.48273     1 2py   0.36733     1 2pz   0.43186     2 1s   -1.09742
                                    2 2px  -0.48278     2 2py  -0.36725     2 2pz  -0.43187     3 1s    0.57309     4 1s    1.08759
                                    5 1s    1.08760     6 1s    0.57325
   11.1     0.00000     0.28198     1 1s   -1.56492     1 2py  -0.35953     1 2pz   0.45877     2 1s    1.56482     2 2py  -0.35979
                                    2 2pz   0.45869     3 1s    1.44500     6 1s   -1.44510
   12.1     0.00000     0.31341     1 1s   -0.75367     1 2px   0.39932     1 2py  -1.01625     1 2pz   0.45303     2 1s   -0.75297
                                    2 2px  -0.39928     2 2py   1.01645     2 2pz  -0.45276     3 1s    1.56326     4 1s   -0.42649
                                    5 1s   -0.42696     6 1s    1.56298
   13.1     0.00000     0.33545     1 1s   -1.05479     1 2px   0.28479     1 2py   0.76006     1 2pz   0.31868     2 1s    1.05496
                                    2 2px   0.28488     2 2py   0.75978     2 2pz   0.31880     4 1s    1.69789     5 1s   -1.69777
   14.1     0.00000     0.42365     1 1s    2.02994     1 2px   1.78307     1 2py  -0.63479     1 2pz  -0.78912     2 1s   -2.02997
                                    2 2px   1.78304     2 2py  -0.63482     2 2pz  -0.78917     3 1s    0.63090     6 1s   -0.63089
   15.1     0.00000     0.70294     1 2px  -0.54968     1 2px   0.92950     2 2px   0.54969     2 2px  -0.92949     4 1s   -0.42855
                                    5 1s   -0.42854
   16.1     0.00000     0.75812     1 1s   -0.31413     1 2py  -0.37575     1 2px  -0.62413     1 2py   0.79097     2 1s    0.31423
                                    2 2py  -0.37542     2 2px  -0.62405     2 2py   0.79035     3 1s   -0.48656     6 1s    0.48650
   17.1     0.00000     0.78961     1 2py   0.58637     1 2pz   0.26412     1 2py  -1.23651     2 2py  -0.58660     2 2pz  -0.26461
                                    2 2py   1.23710     4 1s   -0.28271     5 1s   -0.28294
   18.1     0.00000     0.79981     1 2pz  -0.73418     1 2pz   0.70923     2 2pz  -0.73406     2 2pz   0.70911
   19.1     0.00000     0.86512     1 1s   -0.35616     1 2pz  -0.68599     1 2px   0.45729     1 2py  -0.54499     1 2pz   0.95874
                                    2 1s   -0.35615     2 2pz   0.68595     2 2px  -0.45748     2 2py   0.54518     2 2pz  -0.95863
   20.1     0.00000     0.97380     1 2px   0.71542     1 2py   0.37246     1 2px  -1.14651     1 2py  -0.77763     2 2px   0.71538
                                    2 2py   0.37248     2 2px  -1.14649     2 2py  -0.77766     4 1s   -1.04775     5 1s    1.04784
   21.1     0.00000     1.11966     1 1s   -0.67173     1 1s    1.23141     1 2px   0.25188     1 2py   0.40214     1 2px  -0.35739
                                    1 2py  -0.38890     2 1s   -0.67181     2 1s    1.23139     2 2px  -0.25202     2 2py  -0.40188
                                    2 2px   0.35768     2 2py   0.38846     4 1s    0.65248     4 1s   -1.18932     5 1s    0.65240
                                    5 1s   -1.18906
   22.1     0.00000     1.13743     1 2px  -0.39658     1 2py   0.60201     1 2px   0.72948     1 2py  -0.96393     2 2px  -0.39654
                                    2 2py   0.60228     2 2px   0.72942     2 2py  -0.96424     3 1s   -0.51196     3 1s    1.22833
                                    4 1s    0.30780     4 1s   -0.66869     5 1s   -0.30808     5 1s    0.66913     6 1s    0.51224
                                    6 1s   -1.22868
   23.1     0.00000     1.18164     1 1s    0.33596     1 2pz  -0.26059     1 2px   0.76552     2 1s   -0.33798     2 2pz  -0.26125
                                    2 2px   0.76654     3 1s   -0.37737     3 1s    0.61815     4 1s   -0.74308     4 1s    0.90823
                                    5 1s    0.74344     5 1s   -0.90809     6 1s    0.38122     6 1s   -0.62262
   24.1     0.00000     1.19042     1 1s   -0.59860     1 1s    0.94100     1 2px   0.29271     1 2py  -0.31291     1 2px  -0.28835
                                    1 2py   0.30168     2 1s   -0.59674     2 1s    0.94041     2 2px  -0.29184     2 2py   0.31346
                                    2 2px   0.28479     2 2py  -0.30129     3 1s    0.77369     3 1s   -1.07222     6 1s    0.77175
                                    6 1s   -1.06884
   25.1     0.00000     1.25654     1 1s   -1.18987     1 1s    2.14023     1 2px  -0.53674     1 2py   0.55626     1 2pz  -0.98662
                                    2 1s   -1.19354     2 1s    2.15094     2 2px   0.53435     2 2py  -0.55469     2 2pz   0.98908
                                    3 1s   -0.39806     3 1s   -0.93729     4 1s   -0.42745     4 1s   -0.34698     5 1s   -0.42744
                                    5 1s   -0.34886     6 1s   -0.39796     6 1s   -0.93844
   26.1     0.00000     1.28510     1 1s   -1.60594     1 1s    5.11249     1 2px   1.24304     1 2py  -0.76404     1 2pz  -1.22225
                                    2 1s    1.60341     2 1s   -5.10785     2 2px   1.24421     2 2py  -0.76517     2 2pz  -1.22005
                                    3 1s   -0.46544     4 1s   -0.67360     5 1s    0.67280     6 1s    0.46349
   27.1     0.00000     1.69573     1 1s    0.58883     1 3d0   0.34931     1 3d2- -0.29731     1 3d2+ -0.32626     2 1s   -0.58888
                                    2 3d0  -0.34934     2 3d2-  0.29730     2 3d2+  0.32624
   28.1     0.00000     1.92010     1 1s    0.31639     1 1s   -0.66657     1 2pz   0.34999     1 3d0   0.35472     1 3d1+  0.34206
                                    1 3d2+  0.34469     1 3d1-  0.31867     2 1s    0.31622     2 1s   -0.66574     2 2pz  -0.34975
                                    2 3d0   0.35461     2 3d1+  0.34218     2 3d2+  0.34473     2 3d1-  0.31874     3 1s    0.28047
                                    6 1s    0.28045
   29.1     0.00000     1.94048     1 1s   -0.30729     1 1s    1.36812     1 2px   0.31772     1 2pz  -0.35482     1 3d2- -0.30618
                                    1 3d1+  0.39549     1 3d1-  0.38499     2 1s    0.30726     2 1s   -1.36810     2 2px   0.31770
                                    2 2pz  -0.35479     2 3d2-  0.30619     2 3d1+ -0.39540     2 3d1- -0.38486     3 1s   -0.32842
                                    6 1s    0.32844
   30.1     0.00000     2.18306     1 1s    0.34541     1 1s   -1.64560     1 2px  -0.38054     1 2py   0.27717     1 2pz   0.44096
                                    1 3d0   0.56733     1 3d2+  0.35567     2 1s   -0.34538     2 1s    1.64561     2 2px  -0.38049
                                    2 2py   0.27709     2 2pz   0.44095     2 3d0  -0.56739     2 3d2+ -0.35576     3 1s    0.35470
                                    4 1s    0.33273     5 1s   -0.33278     6 1s   -0.35475
   31.1     0.00000     2.25005     1 1s    0.49619     1 1s   -0.32279     1 2px   0.26197     1 2px  -0.29756     1 3d2-  0.29848
                                    1 3d1+  0.38547     1 3d2+ -0.38964     2 1s    0.49626     2 1s   -0.32318     2 2px  -0.26196
                                    2 2px   0.29769     2 3d2-  0.29849     2 3d1+  0.38549     2 3d2+ -0.38961
   32.1     0.00000     2.34897     1 2py   0.36313     1 3d0   0.51303     1 3d2- -0.36985     1 3d1- -0.36207     2 2py  -0.36322
                                    2 3d0   0.51300     2 3d2- -0.36991     2 3d1- -0.36216     3 1s   -0.27423     4 1s    0.40067
                                    5 1s    0.40073     6 1s   -0.27427
   33.1     0.00000     2.58192     1 1s   -0.29715     1 2py   0.29882     1 3d2- -0.48118     1 3d1- -0.59766     2 1s    0.29723
                                    2 2py   0.29896     2 3d2-  0.48109     2 3d1-  0.59784     3 1s   -0.48865     4 1s    0.41195
                                    5 1s   -0.41210     6 1s    0.48862
   34.1     0.00000     2.64434     1 2py   0.32139     1 3d2-  0.44165     1 3d2+  0.51987     1 3d1- -0.50574     2 2py  -0.32131
                                    2 3d2-  0.44182     2 3d2+  0.51986     2 3d1- -0.50552     4 1s    0.36161     5 1s    0.36147
   35.1     0.00000     2.72308     1 3d0  -0.40690     1 3d2- -0.48824     1 3d1+  0.49677     1 3d1- -0.27130     2 3d0  -0.40695
                                    2 3d2- -0.48814     2 3d1+  0.49674     2 3d1- -0.27119     3 1s   -0.47670     6 1s   -0.47659
   36.1     0.00000     2.95977     1 1s   -1.72120     1 2px  -0.43551     1 2px  -0.87512     1 2pz   0.43985     1 3d2-  0.34828
                                    1 3d1+  0.69544     1 3d2+ -0.64490     2 1s    1.72121     2 2px  -0.43551     2 2px  -0.87511
                                    2 2pz   0.43986     2 3d2- -0.34830     2 3d1+ -0.69541     2 3d2+  0.64490


 HOMO      8.1    -0.387087 =     -10.5332eV
 LUMO      9.1     0.063693 =       1.7332eV
 LUMO-HOMO         0.450780 =      12.2663eV


 **********************************************************************************************************************************
 DATASETS  * FILE   NREC   LENGTH (MB)   RECORD NAMES
              1      19       31.13       500      610      700      900      950      970     1000      129      960     1100   
                                          VAR    BASINP    GEOM    SYMINP    ZMAT    AOBASIS   BASIS     P2S    ABASIS      S 
                                         1400     1410     1200     1210     1080     1600     1650     1300     1700   
                                           T        V       H0       H01     AOSYM     SMH    MOLCAS    ERIS     OPER   

              2       4        2.86       700     1000      520     2100   
                                         GEOM     BASIS   MCVARS     RHF  

 PROGRAMS   *        TOTAL    HF-SCF       INT
 CPU TIMES  *         0.54      0.17      0.25
 REAL TIME  *         0.96 SEC
 DISK USED  *        36.24 MB
 **********************************************************************************************************************************


 PROGRAM * MULTI (Direct Multiconfiguration SCF)       Authors: P.J. Knowles, H.-J. Werner (1984)


 Number of closed-shell orbitals:   7 (   7 )
 Number of active  orbitals:        2 (   2 )
 Number of external orbitals:      27 (  27 )

 State symmetry 1

 Number of electrons:     2    Spin symmetry=Singlet   Space symmetry=1
 Number of states:        3
 Number of CSFs:          3   (4 determinants, 4 intermediate states)

 Molecular orbitals read from record     2100.2  Type=RHF/CANONICAL (state 1.1)

 Wavefunction dump at record             2140.2

 Convergence thresholds  0.10E-01 (gradient)  0.10E-05 (energy)  0.10E-02 (step length)

 Weight factors for state symmetry  1:    0.33333   0.33333   0.33333

 Number of orbital rotations:      257   (    14 Core/Active    189 Core/Virtual   0 Active/Active     54 Active/Virtual)
 Total number of variables:        269

 Micro-Iterations solved by the two-step solver

 ITER. MIC  NCI  NEG     ENERGY(VAR)     ENERGY(PROJ)   ENERGY CHANGE     GRAD(0)  GRAD(ORB)   GRAD(CI)     STEP       TIME

   1    6    5    0     -77.69203249     -77.71154694   -0.01951445    0.16732501 0.00170406 0.00000000  0.14D+00      0.11
   2    5    5    0     -77.71124480     -77.71126379   -0.00001899    0.00644100 0.00000362 0.00000000  0.45D-02      0.20
   3    4    4    0     -77.71126382     -77.71126382   -0.00000000    0.00001229 0.00000000 0.00000000  0.17D-04      0.27

 ** WVFN ****  CONVERGENCE REACHED, FINAL GRADIENT:  0.14D-09



 Results for state 1.1
 =====================

 !MCSCF STATE  1.1 Energy             -77.842430758299
 Nuclear energy                        32.36301271
 Kinetic energy                        77.80844089
 One electron energy                 -167.89436278
 Two electron energy                   57.68891931
 Virial ratio                           2.00043684

 !MCSCF STATE  1.1 Dipole moment        0.00005943    -0.00001776    -0.00006473
 Dipole moment /Debye                   0.00015104    -0.00004514    -0.00016453

 Results for state 2.1
 =====================

 !MCSCF STATE  2.1 Energy             -77.738958490842
 Nuclear energy                        32.36301271
 Kinetic energy                        77.88390062
 One electron energy                 -167.58968057
 Two electron energy                   57.48770937
 Virial ratio                           1.99813900

 !MCSCF STATE  2.1 Dipole moment        0.00003616    -0.00003805    -0.00005600
 Dipole moment /Debye                   0.00009190    -0.00009672    -0.00014234

 Results for state 3.1
 =====================

 !MCSCF STATE  3.1 Energy             -77.552402212018
 Nuclear energy                        32.36301271
 Kinetic energy                        77.94526853
 One electron energy                 -167.33128708
 Two electron energy                   57.41587215
 Virial ratio                           1.99495972

 !MCSCF STATE  3.1 Dipole moment        0.00000970    -0.00004873    -0.00003700
 Dipole moment /Debye                   0.00002465    -0.00012384    -0.00009403

 State-averaged charge density matrix saved on record  2140.2 (density set 1)

 !MCSCF expec         <1.1|DMX|1.1>     0.000059426215 au =     0.000151036479 Debye
 !MCSCF trans         <2.1|DMX|1.1>     0.000007908148 au =     0.000020099192 Debye
 !MCSCF expec         <2.1|DMX|2.1>     0.000036156841 au =     0.000091895504 Debye
 !MCSCF trans         <3.1|DMX|1.1>     0.000001813610 au =     0.000004609434 Debye
 !MCSCF trans         <3.1|DMX|2.1>     0.000006793800 au =     0.000017266987 Debye
 !MCSCF expec         <3.1|DMX|3.1>     0.000009700207 au =     0.000024653853 Debye

 !MCSCF expec         <1.1|DMY|1.1>    -0.000017759673 au =    -0.000045137629 Debye
 !MCSCF trans         <2.1|DMY|1.1>    -0.000020429616 au =    -0.000051923504 Debye
 !MCSCF expec         <2.1|DMY|2.1>    -0.000038053626 au =    -0.000096716335 Debye
 !MCSCF trans         <3.1|DMY|1.1>     0.000003072447 au =     0.000007808870 Debye
 !MCSCF trans         <3.1|DMY|2.1>    -0.000023643741 au =    -0.000060092459 Debye
 !MCSCF expec         <3.1|DMY|3.1>    -0.000048725677 au =    -0.000123840207 Debye

 !MCSCF expec         <1.1|DMZ|1.1>    -0.000064734385 au =    -0.000164527618 Debye
 !MCSCF trans         <2.1|DMZ|1.1>    -0.000022970968 au =    -0.000058382552 Debye
 !MCSCF expec         <2.1|DMZ|2.1>    -0.000056002794 au =    -0.000142335581 Debye
 !MCSCF trans         <3.1|DMZ|1.1>     0.000000410710 au =     0.000001043853 Debye
 !MCSCF trans         <3.1|DMZ|2.1>    -0.000024194198 au =    -0.000061491491 Debye
 !MCSCF expec         <3.1|DMZ|3.1>    -0.000036997022 au =    -0.000094030890 Debye


 NATURAL ORBITALS (state averaged)
 =================================

  Orbital  Occupation    Energy     Coefficients
    1.1     2.00000   -11.25456     1 1s    0.70175     2 1s    0.70710
    2.1     2.00000   -11.25381     1 1s   -0.70716     2 1s    0.70181
    3.1     2.00000    -1.04971     1 1s    0.27798     2 1s    0.27798
    4.1     2.00000    -0.78512     1 1s   -0.31776     2 1s    0.31777
    5.1     2.00000    -0.62496     1 2py   0.30180     2 2py   0.30184
    6.1     2.00000    -0.56046     1 2px   0.25910     2 2px  -0.25910
    7.1     2.00000    -0.41912     1 2pz   0.32526     1 2pz   0.28087     2 2pz   0.32524     2 2pz   0.28086
    8.1     1.00000    -0.08648     1 1s    0.26709     1 2pz   0.40466     1 2pz   0.43011     2 1s    0.26708     2 2pz  -0.40468
                                    2 2pz  -0.43013
    9.1     1.00000    -0.23058     1 2px   0.31019     2 2px  -0.31019     4 1s   -0.29428     5 1s   -0.29427
   10.1    -0.00000     0.21954     1 1s   -1.10523     1 2px   0.47858     1 2py   0.38265     1 2pz   0.37356     2 1s   -1.10528
                                    2 2px  -0.47863     2 2py  -0.38257     2 2pz  -0.37355     3 1s    0.54083     4 1s    1.09736
                                    5 1s    1.09734     6 1s    0.54095
   11.1    -0.00000     0.28103     1 1s   -1.65463     1 2py  -0.29389     1 2pz   0.47582     2 1s    1.65452     2 2py  -0.29408
                                    2 2pz   0.47572     3 1s    1.43474     6 1s   -1.43476
   12.1    -0.00000     0.31587     1 1s   -0.80892     1 2px   0.40057     1 2py  -1.00847     1 2pz   0.42922     2 1s   -0.80702
                                    2 2px  -0.40037     2 2py   1.00977     2 2pz  -0.42856     3 1s    1.58166     4 1s   -0.38309
                                    5 1s   -0.38572     6 1s    1.58173
   13.1    -0.00000     0.31978     1 1s   -1.05299     1 2py   0.84414     1 2pz   0.32880     2 1s    1.05423     2 2py   0.84263
                                    2 2pz   0.32947     4 1s    1.71019     5 1s   -1.70963
   14.1    -0.00000     0.42980     1 1s    1.89112     1 2px   1.79469     1 2py  -0.52819     1 2pz  -0.73131     2 1s   -1.89115
                                    2 2px   1.79467     2 2py  -0.52822     2 2pz  -0.73136     3 1s    0.63143     6 1s   -0.63142
   15.1    -0.00000     0.69951     1 2px  -0.53459     1 2px   0.90597     2 2px   0.53459     2 2px  -0.90595     4 1s    0.25162
                                    4 1s   -0.48559     5 1s    0.25165     5 1s   -0.48558
   16.1    -0.00000     0.75526     1 1s   -0.42266     1 2py  -0.36565     1 2px  -0.67345     1 2py   0.80820     2 1s    0.42277
                                    2 2py  -0.36530     2 2px  -0.67332     2 2py   0.80751     3 1s   -0.48344     4 1s    0.25789
                                    5 1s   -0.25767     6 1s    0.48336
   17.1    -0.00000     0.78875     1 2py   0.56116     1 2pz   0.26235     1 2py  -1.21725     1 2pz  -0.30820     2 2py  -0.56140
                                    2 2pz  -0.26281     2 2py   1.21789     2 2pz   0.30881     4 1s   -0.28563     5 1s   -0.28588
   18.1    -0.00000     0.79982     1 1s   -0.36809     1 2pz  -0.73027     1 2pz   0.77452     2 1s    0.36822     2 2pz  -0.73014
                                    2 2pz   0.77435
   19.1    -0.00000     0.86320     1 1s   -0.31351     1 2px  -0.25418     1 2pz  -0.66089     1 2px   0.49388     1 2py  -0.55202
                                    1 2pz   1.01331     2 1s   -0.31351     2 2px   0.25425     2 2pz   0.66087     2 2px  -0.49408
                                    2 2py   0.55222     2 2pz  -1.01321     3 1s    0.28083     6 1s    0.28090
   20.1    -0.00000     0.98045     1 2px   0.71252     1 2py   0.37901     1 2px  -1.06597     1 2py  -0.79660     2 2px   0.71248
                                    2 2py   0.37904     2 2px  -1.06596     2 2py  -0.79662     4 1s   -1.01147     5 1s    1.01155
   21.1    -0.00000     1.09378     1 1s   -0.64247     1 1s    1.16594     1 2px   0.27952     1 2py   0.41997     1 2px  -0.35939
                                    1 2py  -0.43076     2 1s   -0.64248     2 1s    1.16582     2 2px  -0.27960     2 2py  -0.41981
                                    2 2px   0.35958     2 2py   0.43048     4 1s    0.66216     4 1s   -1.15941     5 1s    0.66212
                                    5 1s   -1.15924
   22.1    -0.00000     1.12414     1 1s    0.25341     1 2px  -0.25237     1 2py   0.60688     1 2py  -0.83396     2 1s   -0.25327
                                    2 2px  -0.25225     2 2py   0.60695     2 2py  -0.83412     3 1s    0.70730     4 1s    0.64754
                                    4 1s   -1.07004     5 1s   -0.64774     5 1s    1.07015     6 1s   -0.70732
   23.1    -0.00000     1.15915     1 1s    0.30311     1 2px  -0.37646     1 2px   1.08159     1 2py  -0.50422     2 1s   -0.30319
                                    2 2px  -0.37675     2 2px   1.08162     2 2py  -0.50445     3 1s   -0.59105     3 1s    1.16782
                                    4 1s   -0.47065     4 1s    0.45537     5 1s    0.47074     5 1s   -0.45505     6 1s    0.59212
                                    6 1s   -1.16866
   24.1    -0.00000     1.19493     1 1s   -0.52614     1 1s    0.79892     1 2px   0.28002     1 2py  -0.32119     1 2py   0.28463
                                    2 1s   -0.52536     2 1s    0.79794     2 2px  -0.27967     2 2py   0.32108     2 2py  -0.28423
                                    3 1s    0.79578     3 1s   -1.01780     6 1s    0.79512     6 1s   -1.01640
   25.1    -0.00000     1.24771     1 1s   -1.24915     1 1s    2.24255     1 2px  -0.56052     1 2py   0.57534     1 2pz  -0.98839
                                    2 1s   -1.25228     2 1s    2.25169     2 2px   0.55840     2 2py  -0.57413     2 2pz   0.99043
                                    3 1s   -0.36799     3 1s   -0.99103     4 1s   -0.39187     4 1s   -0.40157     5 1s   -0.39196
                                    5 1s   -0.40297     6 1s   -0.36790     6 1s   -0.99204
   26.1    -0.00000     1.27905     1 1s   -1.61190     1 1s    5.11571     1 2px   1.25234     1 2py  -0.72623     1 2pz  -1.20565
                                    2 1s    1.60967     2 1s   -5.11161     2 2px   1.25338     2 2py  -0.72722     2 2pz  -1.20374
                                    3 1s   -0.48558     4 1s   -0.63620     5 1s    0.63542     6 1s    0.48388
   27.1    -0.00000     1.69042     1 1s    0.61629     1 3d0   0.34299     1 3d2- -0.30137     1 3d2+ -0.32826     2 1s   -0.61634
                                    2 3d0  -0.34302     2 3d2-  0.30136     2 3d2+  0.32823
   28.1    -0.00000     1.91734     1 1s    0.30630     1 1s   -0.65490     1 2pz   0.34405     1 3d0   0.35246     1 3d1+  0.33771
                                    1 3d2+  0.35184     1 3d1-  0.31789     2 1s    0.30617     2 1s   -0.65424     2 2pz  -0.34385
                                    2 3d0   0.35235     2 3d1+  0.33778     2 3d2+  0.35185     2 3d1-  0.31791     3 1s    0.27721
                                    6 1s    0.27719
   29.1    -0.00000     1.93734     1 1s   -0.29995     1 1s    1.33525     1 2px   0.30696     1 2pz  -0.34576     1 3d2- -0.30359
                                    1 3d1+  0.39855     1 3d1-  0.38368     2 1s    0.29988     2 1s   -1.33515     2 2px   0.30696
                                    2 2pz  -0.34570     2 3d2-  0.30360     2 3d1+ -0.39850     2 3d1- -0.38358     3 1s   -0.32999
                                    6 1s    0.32998
   30.1    -0.00000     2.18320     1 1s    0.34894     1 1s   -1.63324     1 2px  -0.37497     1 2py   0.27929     1 2pz   0.43500
                                    1 3d0   0.57061     1 3d2+  0.35824     2 1s   -0.34889     2 1s    1.63324     2 2px  -0.37491
                                    2 2py   0.27920     2 2pz   0.43500     2 3d0  -0.57067     2 3d2+ -0.35834     3 1s    0.35365
                                    4 1s    0.32747     5 1s   -0.32752     6 1s   -0.35370
   31.1    -0.00000     2.24545     1 1s    0.49107     1 1s   -0.32734     1 2px   0.26828     1 2px  -0.28939     1 3d2-  0.31223
                                    1 3d1+  0.39414     1 3d2+ -0.38842     2 1s    0.49114     2 1s   -0.32776     2 2px  -0.26827
                                    2 2px   0.28952     2 3d2-  0.31224     2 3d1+  0.39416     2 3d2+ -0.38837
   32.1    -0.00000     2.34288     1 2py   0.37942     1 3d0   0.51335     1 3d2- -0.36426     1 3d1- -0.37562     2 2py  -0.37952
                                    2 3d0   0.51332     2 3d2- -0.36431     2 3d1- -0.37570     3 1s   -0.28774     4 1s    0.38919
                                    5 1s    0.38925     6 1s   -0.28777
   33.1    -0.00000     2.57649     1 1s   -0.28205     1 2py   0.29891     1 3d2- -0.48391     1 3d1- -0.59870     2 1s    0.28214
                                    2 2py   0.29905     2 3d2-  0.48380     2 3d1-  0.59888     3 1s   -0.49217     4 1s    0.40262
                                    5 1s   -0.40276     6 1s    0.49214
   34.1    -0.00000     2.63603     1 2py   0.32709     1 3d2-  0.44747     1 3d2+  0.51503     1 3d1- -0.50760     2 2py  -0.32701
                                    2 3d2-  0.44765     2 3d2+  0.51501     2 3d1- -0.50739     4 1s    0.35275     5 1s    0.35262
   35.1    -0.00000     2.72793     1 3d0  -0.41479     1 3d2- -0.47742     1 3d1+  0.50156     1 3d1- -0.27101     2 3d0  -0.41484
                                    2 3d2- -0.47733     2 3d1+  0.50154     2 3d1- -0.27092     3 1s   -0.47461     6 1s   -0.47452
   36.1    -0.00000     2.95534     1 1s   -1.75169     1 2px  -0.42927     1 2px  -0.88734     1 2pz   0.44787     1 3d2-  0.34607
                                    1 3d1+  0.69833     1 3d2+ -0.64216     2 1s    1.75171     2 2px  -0.42927     2 2px  -0.88733
                                    2 2pz   0.44788     2 3d2- -0.34610     2 3d1+ -0.69830     2 3d2+  0.64216


 Natural orbital dump (state averaged) at molpro section  2140.2    (Orbital set 2)



 **********************************************************************************************************************************
 DATASETS  * FILE   NREC   LENGTH (MB)   RECORD NAMES
              1      20       31.86       500      610      700      900      950      970     1000      129      960     1100   
                                          VAR    BASINP    GEOM    SYMINP    ZMAT    AOBASIS   BASIS     P2S    ABASIS      S 
                                         1400     1410     1200     1210     1080     1600     1650     1300     1700     1380   
                                           T        V       H0       H01     AOSYM     SMH    MOLCAS    ERIS     OPER     JKOP   

              2       5        5.42       700     1000      520     2100     2140   
                                         GEOM     BASIS   MCVARS     RHF     MCSCF   

 PROGRAMS   *        TOTAL     MULTI    HF-SCF       INT
 CPU TIMES  *         0.87      0.33      0.17      0.25
 REAL TIME  *         1.37 SEC
 DISK USED  *        39.04 MB
 **********************************************************************************************************************************
 Molecular orbitals read from record     2140.2  Type=MCSCF/NATURAL (state averaged)
 Occupation numbers read from record     2140.2  Type=MCSCF/NATURAL (state averaged)
 Orbital energies read from record       2140.2  Type=MCSCF/NATURAL (state averaged)
 Redundancy group numbers read from rec  2140.2  Type=MCSCF/NATURAL (state averaged)

 MULTI/6-31G* energy=    -77.552402212018

           MULTI          HF-SCF
    -77.55240221    -77.84881769
 **********************************************************************************************************************************
 Molpro calculation terminated
