
 Primary working directories    : /scratch.local/johan406.molpro_temp/molpro.OyekqKtK9n
 Secondary working directories  : /scratch.local/johan406.molpro_temp/molpro.OyekqKtK9n
 Wavefunction directory         : /home/goodpast/johan406/wfu/
 Main file repository           : /scratch.local/johan406.molpro_temp/molpro.OyekqKtK9n/

 id        : roweumn

 Nodes     nprocs
 cn0391       1

 Using customized tuning parameters: mindgm=1; mindgv=20; mindgc=4; mindgr=1; noblas=0; minvec=7
 default implementation of scratch files=df  


 Variables initialized (934), CPU time= 0.00 sec
                                                                                 !leave this line blank
 
 gprint, orbitals=30
 memory, 125., m
 symmetry, nosym
 nelect=16
 basis=6-31g*
 
 geometry={
 C -0.6279 0.1391 0.2961
 C 0.6368 -0.189 -0.3565
 H -1.2758 0.9015 -0.1396
 H -0.9583 -0.869 -0.1327
 H 0.9672 0.8191 0.0723
 H 1.2847 -0.9514 0.0791
 }
 
 hf
 {multi,
 closed 7
 occ 9
 wf,spin=0;STATE,3
 }
 
 Commands  initialized (763), CPU time= 0.01 sec, 617 directives.
 Default parameters read. Elapsed time= 0.08 sec

 Checking input...
 Passed
1


                                         ***  PROGRAM SYSTEM MOLPRO  ***
                                       Copyright, TTI GmbH Stuttgart, 2015
                                    Version 2019.2 linked Oct 25 2019 22:50:27


 **********************************************************************************************************************************
 LABEL *                                                                                 
  64 bit serial version                                                                  DATE: 07-Feb-23          TIME: 15:39:17  
 **********************************************************************************************************************************

 SHA1:             8dbd9ae1082e4ce945b0f27595c9eb2d4aa09004
 **********************************************************************************************************************************


 Variable memory set to  125000000 words,  buffer space 

 SETTING NELECT         =        16.00000000                                  
 SETTING BASIS          =    6-31G*
 ZSYMEL=NOSYM


Geometry recognized as XYZ



 Recomputing integrals since basis changed


 Using spherical harmonics

 Library entry C      S 6-31G                selected for orbital group  1
 Library entry C      P 6-31G                selected for orbital group  1
 Library entry C      D 6-31G*               selected for orbital group  1
 Library entry H      S 6-31G                selected for orbital group  2


 PROGRAM * SEWARD (Integral evaluation for generally contracted gaussian basis sets)     Author: Roland Lindh, 1990

 Geometry written to block  1 of record 700


 Point group  C1  



 ATOMIC COORDINATES

 NR  ATOM    CHARGE       X              Y              Z

   1  C       6.00   -1.186559034    0.262860904    0.559547905
   2  C       6.00    1.203377596   -0.357158238   -0.673687363
   3  H       1.00   -2.410912590    1.703588101   -0.263805767
   4  H       1.00   -1.810924545   -1.642172002   -0.250766657
   5  H       1.00    1.827743108    1.547874669    0.136627199
   6  H       1.00    2.427731152   -1.797885435    0.149477336

 Bond lengths in Bohr (Angstrom)

 1-2  2.759907618  1-3  2.062194888  1-4  2.162311808  2-5  2.162311808  2-6  2.062119446
     ( 1.460480216)     ( 1.091266539)     ( 1.144246132)     ( 1.144246132)     ( 1.091226617)

 Bond angles

  1-2-5   83.37727116   1-2-6  119.52012855   2-1-3  119.51624567   2-1-4   83.37727116

  3-1-4  107.12494523   5-2-6  107.12765002

 NUCLEAR CHARGE:                   16
 NUMBER OF PRIMITIVE AOS:          72
 NUMBER OF SYMMETRY AOS:           70
 NUMBER OF CONTRACTIONS:           36   (   36A   )
 NUMBER OF CORE ORBITALS:           2   (    2A   )
 NUMBER OF VALENCE ORBITALS:       12   (   12A   )


 NUCLEAR REPULSION ENERGY   32.34590086

 Eigenvalues of metric

         1 0.939E-02 0.273E-01 0.592E-01 0.643E-01 0.788E-01 0.218E+00 0.238E+00 0.274E+00


 Contracted 2-electron integrals neglected if value below      1.0D-11
 AO integral compression algorithm  1   Integral accuracy      1.0D-11

     1.573 MB (compressed) written to integral file ( 59.2%)


 NUMBER OF SORTED TWO-ELECTRON INTEGRALS:     222111.     BUFFER LENGTH:  32768
 NUMBER OF SEGMENTS:   1  SEGMENT LENGTH:     222111      RECORD LENGTH: 524288

 Memory used in sort:       0.78 MW

 SORT1 READ      284735. AND WROTE      212531. INTEGRALS IN      1 RECORDS. CPU TIME:     0.00 SEC, REAL TIME:     0.01 SEC
 SORT2 READ      212531. AND WROTE      222111. INTEGRALS IN      6 RECORDS. CPU TIME:     0.02 SEC, REAL TIME:     0.03 SEC

 FILE SIZES:   FILE 1:    31.7 MBYTE,  FILE 4:     4.2 MBYTE,   TOTAL:     35.9 MBYTE

 OPERATOR DM      FOR CENTER  0  COORDINATES:    0.000000    0.000000    0.000000


 **********************************************************************************************************************************
 DATASETS  * FILE   NREC   LENGTH (MB)   RECORD NAMES
              1      19       31.13       500      610      700      900      950      970     1000      129      960     1100   
                                          VAR    BASINP    GEOM    SYMINP    ZMAT    AOBASIS   BASIS     P2S    ABASIS      S 
                                         1400     1410     1200     1210     1080     1600     1650     1300     1700   
                                           T        V       H0       H01     AOSYM     SMH    MOLCAS    ERIS     OPER   

 PROGRAMS   *        TOTAL       INT
 CPU TIMES  *         0.36      0.26
 REAL TIME  *         0.64 SEC
 DISK USED  *        36.24 MB
 **********************************************************************************************************************************


 PROGRAM * RHF-SCF (CLOSED SHELL)       Authors: W. Meyer, H.-J. Werner


 NUMBER OF ELECTRONS:       8+    8-    SPACE SYMMETRY=1    SPIN SYMMETRY: Singlet 
 CONVERGENCE THRESHOLDS:    1.00E-05 (Density)    1.00E-07 (Energy)
 MAX. NUMBER OF ITERATIONS:       60
 INTERPOLATION TYPE:            DIIS
 INTERPOLATION STEPS:              2 (START)      1 (STEP)
 LEVEL SHIFTS:                  0.00 (CLOSED)  0.00 (OPEN) 



 Orbital guess generated from atomic densities. Full valence occupancy:    8

 Molecular orbital dump at record        2100.2

 Initial occupancy:   8

 ITERATION    DDIFF          GRAD             ENERGY        2-EL.EN.            DIPOLE MOMENTS         DIIS   ORB.
    1      0.000D+00      0.000D+00       -77.83004301    115.904512    0.00001    0.00001   -0.00004    0    start
    2      0.000D+00      0.703D-02       -77.84798379    114.882412    0.00004   -0.00002   -0.00005    1    diag
    3      0.752D-02      0.227D-02       -77.85006297    115.299507    0.00004   -0.00001   -0.00004    2    diag
    4      0.295D-02      0.827D-03       -77.85051078    115.171290    0.00005   -0.00002   -0.00005    3    diag
    5      0.161D-02      0.295D-03       -77.85065058    115.178745    0.00004   -0.00001   -0.00004    4    diag
    6      0.998D-03      0.130D-03       -77.85069599    115.180288    0.00007   -0.00003   -0.00008    5    diag
    7      0.612D-03      0.434D-04       -77.85070098    115.181644    0.00002    0.00000   -0.00000    6    diag
    8      0.216D-03      0.128D-04       -77.85070134    115.182033    0.00010   -0.00005   -0.00012    7    diag
    9      0.604D-04      0.381D-05       -77.85070136    115.182011   -0.00001    0.00002    0.00004    8    diag
   10      0.999D-05      0.197D-05       -77.85070136    115.182011    0.00010   -0.00005   -0.00013    0    orth

 Final occupancy:   8

 !RHF STATE  1.1 Energy               -77.850701362429
 Nuclear energy                        32.34590086
 One-electron energy                 -167.78760789
 Two-electron energy                   57.59100566
 Virial quotient                       -1.00131565
 !RHF STATE  1.1 Dipole moment          0.00010221    -0.00005292    -0.00012859
 Dipole moment /Debye                   0.00025977    -0.00013451    -0.00032681

 ELECTRON ORBITALS
 =================

  Orbital  Occupation    Energy     Coefficients
    1.1     2.00000   -11.25961     1 1s    0.68708     2 1s    0.72138
    2.1     2.00000   -11.25876     1 1s    0.72148     2 1s   -0.68719
    3.1     2.00000    -1.03600     1 1s    0.28331     2 1s    0.28333
    4.1     2.00000    -0.78434     1 1s   -0.29119     2 1s    0.29117
    5.1     2.00000    -0.62263     1 2py   0.30815     2 2py   0.30823
    6.1     2.00000    -0.56504     1 2px   0.29763     2 2px  -0.29762
    7.1     2.00000    -0.39001     1 2pz   0.31045     1 2pz   0.28729     2 2pz   0.31038     2 2pz   0.28725
    8.1     2.00000    -0.38641     1 2px   0.27514     2 2px  -0.27507     4 1s   -0.28555     5 1s   -0.28553
    9.1     0.00000     0.06607     1 1s    0.39809     1 2pz   0.33141     1 2pz   0.47211     2 1s    0.39807     2 2pz  -0.33144
                                    2 2pz  -0.47214
   10.1     0.00000     0.23189     1 1s   -1.09614     1 2px   0.48043     1 2py   0.36991     1 2pz   0.42396     2 1s   -1.09612
                                    2 2px  -0.48050     2 2py  -0.36992     2 2pz  -0.42393     3 1s    0.56839     4 1s    1.08883
                                    5 1s    1.08891     6 1s    0.56843
   11.1     0.00000     0.28061     1 1s   -1.54433     1 2py  -0.36447     1 2pz   0.44211     2 1s    1.54442     2 2py  -0.36452
                                    2 2pz   0.44206     3 1s    1.43632     6 1s   -1.43641
   12.1     0.00000     0.31483     1 1s   -0.76304     1 2px   0.40565     1 2py  -1.02213     1 2pz   0.44795     2 1s   -0.76287
                                    2 2px  -0.40561     2 2py   1.02231     2 2pz  -0.44784     3 1s    1.57644     4 1s   -0.42678
                                    5 1s   -0.42713     6 1s    1.57652
   13.1     0.00000     0.33603     1 1s   -1.05846     1 2px   0.28485     1 2py   0.76215     1 2pz   0.31511     2 1s    1.05854
                                    2 2px   0.28489     2 2py   0.76191     2 2pz   0.31517     4 1s    1.70050     5 1s   -1.70035
   14.1     0.00000     0.42440     1 1s    2.02570     1 2px   1.79411     1 2py  -0.64362     1 2pz  -0.78742     2 1s   -2.02560
                                    2 2px   1.79415     2 2py  -0.64370     2 2pz  -0.78743     3 1s    0.65121     6 1s   -0.65137
   15.1     0.00000     0.70457     1 2px  -0.54750     1 2px   0.92766     2 2px   0.54754     2 2px  -0.92777     4 1s   -0.43520
                                    5 1s   -0.43515
   16.1     0.00000     0.75663     1 1s   -0.32592     1 2py  -0.37163     1 2px  -0.65135     1 2py   0.78970     2 1s    0.32567
                                    2 2py  -0.37175     2 2px  -0.65145     2 2py   0.79006     3 1s   -0.49011     6 1s    0.49016
   17.1     0.00000     0.79207     1 2py  -0.58002     1 2pz  -0.28864     1 2py   1.23704     1 2pz   0.27747     2 2py   0.58001
                                    2 2pz   0.28957     2 2py  -1.23711     2 2pz  -0.27836     4 1s    0.27824     5 1s    0.27838
   18.1     0.00000     0.79954     1 2pz  -0.73511     1 2pz   0.70603     2 2pz  -0.73492     2 2pz   0.70592
   19.1     0.00000     0.86759     1 1s   -0.36493     1 2pz  -0.67670     1 2px   0.47164     1 2py  -0.58823     1 2pz   0.94522
                                    2 1s   -0.36490     2 2pz   0.67650     2 2px  -0.47170     2 2py   0.58827     2 2pz  -0.94499
                                    3 1s    0.25179     6 1s    0.25180
   20.1     0.00000     0.97277     1 2px   0.70705     1 2py   0.38149     1 2px  -1.11431     1 2py  -0.80381     2 2px   0.70702
                                    2 2py   0.38151     2 2px  -1.11429     2 2py  -0.80381     4 1s   -1.04734     5 1s    1.04747
   21.1     0.00000     1.12091     1 1s   -0.67099     1 1s    1.23625     1 2px   0.25766     1 2py   0.39653     1 2px  -0.36364
                                    1 2py  -0.37668     2 1s   -0.67110     2 1s    1.23655     2 2px  -0.25755     2 2py  -0.39662
                                    2 2px   0.36346     2 2py   0.37682     4 1s    0.65649     4 1s   -1.18556     5 1s    0.65659
                                    5 1s   -1.18572
   22.1     0.00000     1.14027     1 2px  -0.40756     1 2py   0.59562     1 2px   0.76081     1 2py  -0.96054     2 2px  -0.40749
                                    2 2py   0.59545     2 2px   0.76082     2 2py  -0.96043     3 1s   -0.52284     3 1s    1.23794
                                    4 1s    0.28852     4 1s   -0.63991     5 1s   -0.28843     5 1s    0.63970     6 1s    0.52249
                                    6 1s   -1.23763
   23.1     0.00000     1.17831     1 1s   -0.27320     1 2pz   0.25095     1 2px  -0.81459     2 1s    0.27286     2 2pz   0.25094
                                    2 2px  -0.81446     3 1s    0.36168     3 1s   -0.57914     4 1s    0.76063     4 1s   -0.91089
                                    5 1s   -0.76080     5 1s    0.91062     6 1s   -0.36230     6 1s    0.57927
   24.1     0.00000     1.19013     1 1s   -0.50654     1 1s    0.76882     1 2px   0.28990     1 2py  -0.30118     1 2py   0.25367
                                    2 1s   -0.50599     2 1s    0.76762     2 2px  -0.29001     2 2py   0.30154     2 2py  -0.25419
                                    3 1s    0.80308     3 1s   -0.99530     6 1s    0.80308     6 1s   -0.99533
   25.1     0.00000     1.24219     1 1s   -1.22177     1 1s    2.20129     1 2px  -0.56694     1 2py   0.60133     1 2pz  -0.97963
                                    2 1s   -1.22403     2 1s    2.20779     2 2px   0.56572     2 2py  -0.60037     2 2pz   0.98107
                                    3 1s   -0.33949     3 1s   -1.01603     4 1s   -0.41382     4 1s   -0.34454     5 1s   -0.41371
                                    5 1s   -0.34584     6 1s   -0.33934     6 1s   -1.01697
   26.1     0.00000     1.27980     1 1s   -1.61606     1 1s    5.08133     1 2px   1.22407     1 2py  -0.77079     1 2pz  -1.19803
                                    2 1s    1.61452     2 1s   -5.07852     2 2px   1.22478     2 2py  -0.77148     2 2pz  -1.19669
                                    3 1s   -0.47358     4 1s   -0.70000     5 1s    0.69947     6 1s    0.47249
   27.1     0.00000     1.69616     1 1s    0.59045     1 3d0   0.34852     1 3d2- -0.29808     1 3d2+ -0.32544     2 1s   -0.59047
                                    2 3d0  -0.34854     2 3d2-  0.29809     2 3d2+  0.32545
   28.1     0.00000     1.92426     1 1s    0.30883     1 1s   -0.66519     1 2pz   0.34588     1 3d0   0.35058     1 3d1+  0.34242
                                    1 3d2+  0.34391     1 3d1-  0.32524     2 1s    0.30835     2 1s   -0.66313     2 2pz  -0.34533
                                    2 3d0   0.35046     2 3d1+  0.34300     2 3d2+  0.34417     2 3d1-  0.32578     3 1s    0.28461
                                    6 1s    0.28463
   29.1     0.00000     1.94106     1 1s   -0.28870     1 1s    1.28071     1 2px   0.29448     1 2pz  -0.32752     1 3d2- -0.30537
                                    1 3d1+  0.39980     1 3d1-  0.38652     2 1s    0.28909     2 1s   -1.28161     2 2px   0.29419
                                    2 2pz  -0.32798     2 3d2-  0.30528     2 3d1+ -0.39930     2 3d1- -0.38606     3 1s   -0.32473
                                    6 1s    0.32507
   30.1     0.00000     2.19012     1 1s    0.33644     1 1s   -1.60114     1 2px  -0.36798     1 2py   0.27399     1 2pz   0.42419
                                    1 3d0   0.56888     1 3d2+  0.35705     2 1s   -0.33635     2 1s    1.60110     2 2px  -0.36793
                                    2 2py   0.27396     2 2pz   0.42417     2 3d0  -0.56888     2 3d2+ -0.35711     3 1s    0.36154
                                    4 1s    0.33319     5 1s   -0.33325     6 1s   -0.36156
   31.1     0.00000     2.24693     1 1s    0.50308     1 1s   -0.32885     1 2px   0.26600     1 2px  -0.30318     1 3d2-  0.28311
                                    1 3d1+  0.38283     1 3d2+ -0.38888     2 1s    0.50315     2 1s   -0.32929     2 2px  -0.26596
                                    2 2px   0.30333     2 3d2-  0.28312     2 3d1+  0.38289     2 3d2+ -0.38885
   32.1     0.00000     2.34678     1 2py   0.36267     1 3d0   0.50889     1 3d2- -0.37899     1 3d1- -0.35323     2 2py  -0.36272
                                    2 3d0   0.50883     2 3d2- -0.37905     2 3d1- -0.35328     3 1s   -0.26456     4 1s    0.40877
                                    5 1s    0.40879     6 1s   -0.26464
   33.1     0.00000     2.57569     1 1s    0.37124     1 2py  -0.31627     1 3d2-  0.47718     1 3d1-  0.59690     2 1s   -0.37130
                                    2 2py  -0.31636     2 3d2- -0.47696     2 3d1- -0.59701     3 1s    0.48272     4 1s   -0.41604
                                    5 1s    0.41613     6 1s   -0.48263
   34.1     0.00000     2.64461     1 2py   0.32878     1 3d2-  0.41748     1 3d2+  0.52960     1 3d1- -0.51416     2 2py  -0.32868
                                    2 3d2-  0.41764     2 3d2+  0.52958     2 3d1- -0.51394     4 1s    0.37098     5 1s    0.37084
   35.1     0.00000     2.73272     1 3d0  -0.40726     1 3d2- -0.51239     1 3d1+  0.49526     2 3d0  -0.40729     2 3d2- -0.51247
                                    2 3d1+  0.49531     3 1s   -0.48593     6 1s   -0.48608
   36.1     0.00000     2.95890     1 1s   -1.73091     1 2px  -0.43344     1 2px  -0.88148     1 2pz   0.43985     1 3d2-  0.35601
                                    1 3d1+  0.68941     1 3d2+ -0.64633     2 1s    1.73090     2 2px  -0.43345     2 2px  -0.88147
                                    2 2pz   0.43985     2 3d2- -0.35603     2 3d1+ -0.68937     2 3d2+  0.64632


 HOMO      8.1    -0.386413 =     -10.5148eV
 LUMO      9.1     0.066074 =       1.7980eV
 LUMO-HOMO         0.452487 =      12.3128eV


 **********************************************************************************************************************************
 DATASETS  * FILE   NREC   LENGTH (MB)   RECORD NAMES
              1      19       31.13       500      610      700      900      950      970     1000      129      960     1100   
                                          VAR    BASINP    GEOM    SYMINP    ZMAT    AOBASIS   BASIS     P2S    ABASIS      S 
                                         1400     1410     1200     1210     1080     1600     1650     1300     1700   
                                           T        V       H0       H01     AOSYM     SMH    MOLCAS    ERIS     OPER   

              2       4        2.86       700     1000      520     2100   
                                         GEOM     BASIS   MCVARS     RHF  

 PROGRAMS   *        TOTAL    HF-SCF       INT
 CPU TIMES  *         0.50      0.14      0.26
 REAL TIME  *         0.84 SEC
 DISK USED  *        36.24 MB
 **********************************************************************************************************************************


 PROGRAM * MULTI (Direct Multiconfiguration SCF)       Authors: P.J. Knowles, H.-J. Werner (1984)


 Number of closed-shell orbitals:   7 (   7 )
 Number of active  orbitals:        2 (   2 )
 Number of external orbitals:      27 (  27 )

 State symmetry 1

 Number of electrons:     2    Spin symmetry=Singlet   Space symmetry=1
 Number of states:        3
 Number of CSFs:          3   (4 determinants, 4 intermediate states)

 Molecular orbitals read from record     2100.2  Type=RHF/CANONICAL (state 1.1)

 Wavefunction dump at record             2140.2

 Convergence thresholds  0.10E-01 (gradient)  0.10E-05 (energy)  0.10E-02 (step length)

 Weight factors for state symmetry  1:    0.33333   0.33333   0.33333

 Number of orbital rotations:      257   (    14 Core/Active    189 Core/Virtual   0 Active/Active     54 Active/Virtual)
 Total number of variables:        269

 Micro-Iterations solved by the two-step solver

 ITER. MIC  NCI  NEG     ENERGY(VAR)     ENERGY(PROJ)   ENERGY CHANGE     GRAD(0)  GRAD(ORB)   GRAD(CI)     STEP       TIME

   1    6    5    0     -77.69252313     -77.71210330   -0.01958017    0.16743433 0.00163649 0.00000000  0.14D+00      0.11
   2    5    5    0     -77.71179671     -77.71181582   -0.00001911    0.00645193 0.00000346 0.00000000  0.45D-02      0.20
   3    4    4    0     -77.71181585     -77.71181585   -0.00000000    0.00001235 0.00000000 0.00000000  0.17D-04      0.28

 ** WVFN ****  CONVERGENCE REACHED, FINAL GRADIENT:  0.14D-09



 Results for state 1.1
 =====================

 !MCSCF STATE  1.1 Energy             -77.844301701121
 Nuclear energy                        32.34590086
 Kinetic energy                        77.80431043
 One electron energy                 -167.86375708
 Two electron energy                   57.67355452
 Virial ratio                           2.00051400

 !MCSCF STATE  1.1 Dipole moment        0.00005019    -0.00001471    -0.00005414
 Dipole moment /Debye                   0.00012757    -0.00003740    -0.00013759

 Results for state 2.1
 =====================

 !MCSCF STATE  2.1 Energy             -77.739469387948
 Nuclear energy                        32.34590086
 Kinetic energy                        77.87808025
 One electron energy                 -167.55990981
 Two electron energy                   57.47453956
 Virial ratio                           1.99822016

 !MCSCF STATE  2.1 Dipole moment        0.00004968    -0.00003008    -0.00004380
 Dipole moment /Debye                   0.00012627    -0.00007645    -0.00011132

 Results for state 3.1
 =====================

 !MCSCF STATE  3.1 Energy             -77.551676451334
 Nuclear energy                        32.34590086
 Kinetic energy                        77.93842258
 One electron energy                 -167.29975896
 Two electron energy                   57.40218165
 Virial ratio                           1.99503780

 !MCSCF STATE  3.1 Dipole moment        0.00004306    -0.00004329    -0.00002381
 Dipole moment /Debye                   0.00010945    -0.00011001    -0.00006052

 State-averaged charge density matrix saved on record  2140.2 (density set 1)

 !MCSCF expec         <1.1|DMX|1.1>     0.000050191585 au =     0.000127565928 Debye
 !MCSCF trans         <2.1|DMX|1.1>     0.000014145181 au =     0.000035951109 Debye
 !MCSCF expec         <2.1|DMX|2.1>     0.000049683127 au =     0.000126273641 Debye
 !MCSCF trans         <3.1|DMX|1.1>    -0.000000691834 au =    -0.000001758351 Debye
 !MCSCF trans         <3.1|DMX|2.1>     0.000015267163 au =     0.000038802717 Debye
 !MCSCF expec         <3.1|DMX|3.1>     0.000043064271 au =     0.000109451289 Debye

 !MCSCF expec         <1.1|DMY|1.1>    -0.000014714030 au =    -0.000037396885 Debye
 !MCSCF trans         <2.1|DMY|1.1>    -0.000004435480 au =    -0.000011273127 Debye
 !MCSCF expec         <2.1|DMY|2.1>    -0.000030079385 au =    -0.000076449163 Debye
 !MCSCF trans         <3.1|DMY|1.1>     0.000001688115 au =     0.000004290479 Debye
 !MCSCF trans         <3.1|DMY|2.1>    -0.000005908619 au =    -0.000015017228 Debye
 !MCSCF expec         <3.1|DMY|3.1>    -0.000043285395 au =    -0.000110013295 Debye

 !MCSCF expec         <1.1|DMZ|1.1>    -0.000054135469 au =    -0.000137589625 Debye
 !MCSCF trans         <2.1|DMZ|1.1>    -0.000022685409 au =    -0.000057656781 Debye
 !MCSCF expec         <2.1|DMZ|2.1>    -0.000043799530 au =    -0.000111320010 Debye
 !MCSCF trans         <3.1|DMZ|1.1>     0.000000207340 au =     0.000000526971 Debye
 !MCSCF trans         <3.1|DMZ|2.1>    -0.000023797150 au =    -0.000060482359 Debye
 !MCSCF expec         <3.1|DMZ|3.1>    -0.000023813222 au =    -0.000060523208 Debye


 NATURAL ORBITALS (state averaged)
 =================================

  Orbital  Occupation    Energy     Coefficients
    1.1     2.00000   -11.25429     1 1s    0.70532     2 1s    0.70353
    2.1     2.00000   -11.25355     1 1s    0.70359     2 1s   -0.70538
    3.1     2.00000    -1.04863     1 1s    0.27823     2 1s    0.27824
    4.1     2.00000    -0.78481     1 1s   -0.31668     2 1s    0.31667
    5.1     2.00000    -0.62564     1 2py   0.30168     2 2py   0.30173
    6.1     2.00000    -0.56324     1 2px   0.25866     2 2px  -0.25866
    7.1     2.00000    -0.41769     1 2pz   0.32659     1 2pz   0.28189     2 2pz   0.32658     2 2pz   0.28189
    8.1     1.00000    -0.08425     1 1s    0.26472     1 2pz   0.40582     1 2pz   0.43271     2 1s    0.26470     2 2pz  -0.40584
                                    2 2pz  -0.43272
    9.1     1.00000    -0.22968     1 2px   0.31029     2 2px  -0.31029     4 1s   -0.29408     5 1s   -0.29407
   10.1    -0.00000     0.21970     1 1s   -1.10397     1 2px   0.47637     1 2py   0.38559     1 2pz   0.36553     2 1s   -1.10389
                                    2 2px  -0.47641     2 2py  -0.38558     2 2pz  -0.36549     3 1s    0.53613     4 1s    1.09847
                                    5 1s    1.09847     6 1s    0.53612
   11.1    -0.00000     0.27982     1 1s   -1.62915     1 2py  -0.30302     1 2pz   0.45733     2 1s    1.62912     2 2py  -0.30287
                                    2 2pz   0.45721     3 1s    1.42761     6 1s   -1.42742
   12.1    -0.00000     0.31725     1 1s   -0.81838     1 2px   0.40711     1 2py  -1.01466     1 2pz   0.42324     2 1s   -0.81830
                                    2 2px  -0.40705     2 2py   1.01511     2 2pz  -0.42315     3 1s    1.59513     4 1s   -0.38408
                                    5 1s   -0.38480     6 1s    1.59555
   13.1    -0.00000     0.32035     1 1s   -1.06801     1 2py   0.84591     1 2pz   0.32966     2 1s    1.06834     2 2py   0.84548
                                    2 2pz   0.32984     4 1s    1.71496     5 1s   -1.71479
   14.1    -0.00000     0.43037     1 1s    1.88553     1 2px   1.80516     1 2py  -0.53584     1 2pz  -0.72957     2 1s   -1.88542
                                    2 2px   1.80520     2 2py  -0.53593     2 2pz  -0.72957     3 1s    0.65142     6 1s   -0.65160
   15.1    -0.00000     0.70092     1 2px  -0.53182     1 2px   0.90331     2 2px   0.53181     2 2px  -0.90335     4 1s    0.25781
                                    4 1s   -0.49126     5 1s    0.25783     5 1s   -0.49125
   16.1    -0.00000     0.75429     1 1s   -0.43164     1 2py  -0.36239     1 2px  -0.70003     1 2py   0.80786     2 1s    0.43147
                                    2 2py  -0.36234     2 2px  -0.70010     2 2py   0.80786     3 1s   -0.48723     6 1s    0.48723
   17.1    -0.00000     0.79120     1 2py  -0.55429     1 2pz  -0.28717     1 2py   1.21499     1 2pz   0.34430     2 2py   0.55431
                                    2 2pz   0.28748     2 2py  -1.21515     2 2pz  -0.34465     4 1s    0.28016     5 1s    0.28024
   18.1    -0.00000     0.79927     1 1s   -0.36878     1 2pz  -0.73077     1 2pz   0.77086     2 1s    0.36890     2 2pz  -0.73068
                                    2 2pz   0.77075
   19.1    -0.00000     0.86551     1 1s   -0.32351     1 2px  -0.26236     1 2pz  -0.65079     1 2px   0.50898     1 2py  -0.59765
                                    1 2pz   0.99727     2 1s   -0.32351     2 2px   0.26237     2 2pz   0.65076     2 2px  -0.50906
                                    2 2py   0.59768     2 2pz  -0.99722     3 1s    0.30167     6 1s    0.30170
   20.1    -0.00000     0.97912     1 2px   0.70376     1 2py   0.38631     1 2px  -1.03028     1 2py  -0.82185     2 2px   0.70374
                                    2 2py   0.38633     2 2px  -1.03028     2 2py  -0.82187     4 1s   -1.00725     5 1s    1.00732
   21.1    -0.00000     1.09481     1 1s   -0.63409     1 1s    1.15631     1 2px   0.28430     1 2py   0.41659     1 2px  -0.36096
                                    1 2py  -0.42418     2 1s   -0.63409     2 1s    1.15634     2 2px  -0.28428     2 2py  -0.41657
                                    2 2px   0.36093     2 2py   0.42414     4 1s    0.66752     4 1s   -1.15345     5 1s    0.66749
                                    5 1s   -1.15340
   22.1    -0.00000     1.12600     1 2py   0.59237     1 2py  -0.78163     2 2py   0.59229     2 2py  -0.78166     3 1s    0.61751
                                    4 1s    0.68434     4 1s   -1.09623     5 1s   -0.68442     5 1s    1.09617     6 1s   -0.61730
   23.1    -0.00000     1.15709     1 1s   -0.32579     1 2px   0.40645     1 2px  -1.15577     1 2py   0.58155     2 1s    0.32669
                                    2 2px   0.40636     2 2px  -1.15556     2 2py   0.58133     3 1s    0.60372     3 1s   -1.20575
                                    4 1s    0.42907     4 1s   -0.37146     5 1s   -0.42919     5 1s    0.37138     6 1s   -0.60344
                                    6 1s    1.20507
   24.1    -0.00000     1.19427     1 1s   -0.38612     1 1s    0.53937     1 2px   0.27547     1 2py  -0.29889     2 1s   -0.38549
                                    2 1s    0.53712     2 2px  -0.27577     2 2py   0.29922     3 1s    0.83313     3 1s   -0.89836
                                    6 1s    0.83347     6 1s   -0.89889
   25.1    -0.00000     1.23445     1 1s   -1.29364     1 1s    2.31986     1 2px  -0.59533     1 2py   0.62548     1 2pz  -0.97416
                                    2 1s   -1.29536     2 1s    2.32477     2 2px   0.59448     2 2py  -0.62493     2 2pz   0.97520
                                    3 1s   -0.27835     3 1s   -1.09912     4 1s   -0.37281     4 1s   -0.39848     5 1s   -0.37279
                                    5 1s   -0.39931     6 1s   -0.27817     6 1s   -1.10000
   26.1    -0.00000     1.27387     1 1s   -1.62020     1 1s    5.08333     1 2px   1.23363     1 2py  -0.72851     1 2pz  -1.18041
                                    2 1s    1.61903     2 1s   -5.08118     2 2px   1.23417     2 2py  -0.72903     2 2pz  -1.17935
                                    3 1s   -0.49635     4 1s   -0.65391     5 1s    0.65345     6 1s    0.49561
   27.1    -0.00000     1.69081     1 1s    0.61602     1 3d0   0.34226     1 3d2- -0.30210     1 3d2+ -0.32748     2 1s   -0.61603
                                    2 3d0  -0.34226     2 3d2-  0.30210     2 3d2+  0.32748
   28.1    -0.00000     1.92145     1 1s    0.29873     1 1s   -0.65351     1 2pz   0.34002     1 3d0   0.34827     1 3d1+  0.33799
                                    1 3d2+  0.35118     1 3d1-  0.32468     2 1s    0.29846     2 1s   -0.65235     2 2pz  -0.33970
                                    2 3d0   0.34819     2 3d1+  0.33826     2 3d2+  0.35129     2 3d1-  0.32492     3 1s    0.28181
                                    6 1s    0.28184
   29.1    -0.00000     1.93798     1 1s   -0.28162     1 1s    1.24915     1 2px   0.28381     1 2pz  -0.31900     1 3d2- -0.30279
                                    1 3d1+  0.40268     1 3d1-  0.38499     2 1s    0.28177     2 1s   -1.24954     2 2px   0.28366
                                    2 2pz  -0.31920     2 3d2-  0.30272     2 3d1+ -0.40244     2 3d1- -0.38477     3 1s   -0.32653
                                    6 1s    0.32670
   30.1    -0.00000     2.19015     1 1s    0.34004     1 1s   -1.58879     1 2px  -0.36223     1 2py   0.27614     1 2pz   0.41831
                                    1 3d0   0.57203     1 3d2+  0.35981     2 1s   -0.33992     2 1s    1.58875     2 2px  -0.36215
                                    2 2py   0.27608     2 2pz   0.41829     2 3d0  -0.57202     2 3d2+ -0.35991     3 1s    0.36044
                                    4 1s    0.32798     5 1s   -0.32804     6 1s   -0.36047
   31.1    -0.00000     2.24278     1 1s    0.49842     1 1s   -0.33361     1 2px   0.27233     1 2px  -0.29518     1 3d2-  0.29698
                                    1 3d1+  0.39231     1 3d2+ -0.38834     2 1s    0.49852     2 1s   -0.33412     2 2px  -0.27231
                                    2 2px   0.29534     2 3d2-  0.29699     2 3d1+  0.39235     2 3d2+ -0.38827
   32.1    -0.00000     2.34036     1 2py   0.38007     1 3d0   0.50971     1 3d2- -0.37373     1 3d1- -0.36792     2 2py  -0.38012
                                    2 3d0   0.50967     2 3d2- -0.37376     2 3d1- -0.36794     3 1s   -0.27840     4 1s    0.39808
                                    5 1s    0.39808     6 1s   -0.27843
   33.1    -0.00000     2.57011     1 1s    0.35686     1 2py  -0.31646     1 3d2-  0.48000     1 3d1-  0.59802     2 1s   -0.35691
                                    2 2py  -0.31655     2 3d2- -0.47978     2 3d1- -0.59812     3 1s    0.48635     4 1s   -0.40666
                                    5 1s    0.40675     6 1s   -0.48625
   34.1    -0.00000     2.63625     1 2py   0.33339     1 3d2-  0.42680     1 3d2+  0.52419     1 3d1- -0.51448     2 2py  -0.33331
                                    2 3d2-  0.42696     2 3d2+  0.52417     2 3d1- -0.51429     4 1s    0.36066     5 1s    0.36054
   35.1    -0.00000     2.73735     1 3d0  -0.41539     1 3d2- -0.49957     1 3d1+  0.50006     2 3d0  -0.41542     2 3d2- -0.49969
                                    2 3d1+  0.50013     3 1s   -0.48381     6 1s   -0.48400
   36.1    -0.00000     2.95440     1 1s   -1.76185     1 2px  -0.42726     1 2px  -0.89392     1 2py   0.25369     1 2pz   0.44792
                                    1 3d2-  0.35388     1 3d1+  0.69234     1 3d2+ -0.64351     2 1s    1.76184     2 2px  -0.42726
                                    2 2px  -0.89391     2 2py   0.25369     2 2pz   0.44792     2 3d2- -0.35390     2 3d1+ -0.69232
                                    2 3d2+  0.64351


 Natural orbital dump (state averaged) at molpro section  2140.2    (Orbital set 2)



 **********************************************************************************************************************************
 DATASETS  * FILE   NREC   LENGTH (MB)   RECORD NAMES
              1      20       31.86       500      610      700      900      950      970     1000      129      960     1100   
                                          VAR    BASINP    GEOM    SYMINP    ZMAT    AOBASIS   BASIS     P2S    ABASIS      S 
                                         1400     1410     1200     1210     1080     1600     1650     1300     1700     1380   
                                           T        V       H0       H01     AOSYM     SMH    MOLCAS    ERIS     OPER     JKOP   

              2       5        5.42       700     1000      520     2100     2140   
                                         GEOM     BASIS   MCVARS     RHF     MCSCF   

 PROGRAMS   *        TOTAL     MULTI    HF-SCF       INT
 CPU TIMES  *         0.85      0.35      0.14      0.26
 REAL TIME  *         1.27 SEC
 DISK USED  *        39.04 MB
 **********************************************************************************************************************************
 Molecular orbitals read from record     2140.2  Type=MCSCF/NATURAL (state averaged)
 Occupation numbers read from record     2140.2  Type=MCSCF/NATURAL (state averaged)
 Orbital energies read from record       2140.2  Type=MCSCF/NATURAL (state averaged)
 Redundancy group numbers read from rec  2140.2  Type=MCSCF/NATURAL (state averaged)

 MULTI/6-31G* energy=    -77.551676451334

           MULTI          HF-SCF
    -77.55167645    -77.85070136
 **********************************************************************************************************************************
 Molpro calculation terminated
