
 Primary working directories    : /scratch.local/johan406.molpro_temp/molpro.A5PcQ3vBEK
 Secondary working directories  : /scratch.local/johan406.molpro_temp/molpro.A5PcQ3vBEK
 Wavefunction directory         : /home/goodpast/johan406/wfu/
 Main file repository           : /scratch.local/johan406.molpro_temp/molpro.A5PcQ3vBEK/

 id        : roweumn

 Nodes     nprocs
 cn0391       1

 Using customized tuning parameters: mindgm=1; mindgv=20; mindgc=4; mindgr=1; noblas=0; minvec=7
 default implementation of scratch files=df  


 Variables initialized (934), CPU time= 0.01 sec
                                                                                 !leave this line blank
 
 gprint, orbitals=30
 memory, 125., m
 symmetry, nosym
 nelect=16
 basis=6-31g*
 
 geometry={
 C -0.6293 0.1405 0.2936
 C 0.6382 -0.1904 -0.354
 H -1.2845 0.9065 -0.1242
 H -0.9543 -0.8718 -0.1279
 H 0.9633 0.8219 0.0675
 H 1.2934 -0.9564 0.0637
 }
 
 hf
 {multi,
 closed 7
 occ 9
 wf,spin=0;STATE,3
 }
 
 Commands  initialized (763), CPU time= 0.01 sec, 617 directives.
 Default parameters read. Elapsed time= 0.09 sec

 Checking input...
 Passed
1


                                         ***  PROGRAM SYSTEM MOLPRO  ***
                                       Copyright, TTI GmbH Stuttgart, 2015
                                    Version 2019.2 linked Oct 25 2019 22:50:27


 **********************************************************************************************************************************
 LABEL *                                                                                 
  64 bit serial version                                                                  DATE: 07-Feb-23          TIME: 15:40:31  
 **********************************************************************************************************************************

 SHA1:             8dbd9ae1082e4ce945b0f27595c9eb2d4aa09004
 **********************************************************************************************************************************


 Variable memory set to  125000000 words,  buffer space 

 SETTING NELECT         =        16.00000000                                  
 SETTING BASIS          =    6-31G*
 ZSYMEL=NOSYM


Geometry recognized as XYZ



 Recomputing integrals since basis changed


 Using spherical harmonics

 Library entry C      S 6-31G                selected for orbital group  1
 Library entry C      P 6-31G                selected for orbital group  1
 Library entry C      D 6-31G*               selected for orbital group  1
 Library entry H      S 6-31G                selected for orbital group  2


 PROGRAM * SEWARD (Integral evaluation for generally contracted gaussian basis sets)     Author: Roland Lindh, 1990

 Geometry written to block  1 of record 700


 Point group  C1  



 ATOMIC COORDINATES

 NR  ATOM    CHARGE       X              Y              Z

   1  C       6.00   -1.189204650    0.265506521    0.554823590
   2  C       6.00    1.206023213   -0.359803854   -0.668963048
   3  H       1.00   -2.427353207    1.713036732   -0.234703985
   4  H       1.00   -1.803365641   -1.647463235   -0.241695971
   5  H       1.00    1.820373176    1.553165902    0.127556513
   6  H       1.00    2.444171770   -1.807334066    0.120375554

 Bond lengths in Bohr (Angstrom)

 1-2  2.761482087  1-3  2.061967350  1-4  2.161270557  2-5  2.161324264  2-6  2.061895000
     ( 1.461313389)     ( 1.091146131)     ( 1.143695125)     ( 1.143723546)     ( 1.091107845)

 Bond angles

  1-2-5   83.26986834   1-2-6  120.67482257   2-1-3  120.67092455   2-1-4   83.26532488

  3-1-4  108.03596340   5-2-6  108.03502599

 NUCLEAR CHARGE:                   16
 NUMBER OF PRIMITIVE AOS:          72
 NUMBER OF SYMMETRY AOS:           70
 NUMBER OF CONTRACTIONS:           36   (   36A   )
 NUMBER OF CORE ORBITALS:           2   (    2A   )
 NUMBER OF VALENCE ORBITALS:       12   (   12A   )


 NUCLEAR REPULSION ENERGY   32.32323170

 Eigenvalues of metric

         1 0.953E-02 0.273E-01 0.589E-01 0.642E-01 0.775E-01 0.218E+00 0.239E+00 0.275E+00


 Contracted 2-electron integrals neglected if value below      1.0D-11
 AO integral compression algorithm  1   Integral accuracy      1.0D-11

     1.573 MB (compressed) written to integral file ( 59.1%)


 NUMBER OF SORTED TWO-ELECTRON INTEGRALS:     222111.     BUFFER LENGTH:  32768
 NUMBER OF SEGMENTS:   1  SEGMENT LENGTH:     222111      RECORD LENGTH: 524288

 Memory used in sort:       0.78 MW

 SORT1 READ      284735. AND WROTE      212531. INTEGRALS IN      1 RECORDS. CPU TIME:     0.01 SEC, REAL TIME:     0.01 SEC
 SORT2 READ      212531. AND WROTE      222111. INTEGRALS IN      6 RECORDS. CPU TIME:     0.02 SEC, REAL TIME:     0.03 SEC

 FILE SIZES:   FILE 1:    31.7 MBYTE,  FILE 4:     4.2 MBYTE,   TOTAL:     35.9 MBYTE

 OPERATOR DM      FOR CENTER  0  COORDINATES:    0.000000    0.000000    0.000000


 **********************************************************************************************************************************
 DATASETS  * FILE   NREC   LENGTH (MB)   RECORD NAMES
              1      19       31.13       500      610      700      900      950      970     1000      129      960     1100   
                                          VAR    BASINP    GEOM    SYMINP    ZMAT    AOBASIS   BASIS     P2S    ABASIS      S 
                                         1400     1410     1200     1210     1080     1600     1650     1300     1700   
                                           T        V       H0       H01     AOSYM     SMH    MOLCAS    ERIS     OPER   

 PROGRAMS   *        TOTAL       INT
 CPU TIMES  *         0.35      0.25
 REAL TIME  *         0.64 SEC
 DISK USED  *        36.24 MB
 **********************************************************************************************************************************


 PROGRAM * RHF-SCF (CLOSED SHELL)       Authors: W. Meyer, H.-J. Werner


 NUMBER OF ELECTRONS:       8+    8-    SPACE SYMMETRY=1    SPIN SYMMETRY: Singlet 
 CONVERGENCE THRESHOLDS:    1.00E-05 (Density)    1.00E-07 (Energy)
 MAX. NUMBER OF ITERATIONS:       60
 INTERPOLATION TYPE:            DIIS
 INTERPOLATION STEPS:              2 (START)      1 (STEP)
 LEVEL SHIFTS:                  0.00 (CLOSED)  0.00 (OPEN) 



 Orbital guess generated from atomic densities. Full valence occupancy:    8

 Molecular orbital dump at record        2100.2

 Initial occupancy:   8

 ITERATION    DDIFF          GRAD             ENERGY        2-EL.EN.            DIPOLE MOMENTS         DIIS   ORB.
    1      0.000D+00      0.000D+00       -77.83203663    115.864037    0.00004   -0.00001   -0.00006    0    start
    2      0.000D+00      0.701D-02       -77.84991287    114.842529    0.00002   -0.00001   -0.00003    1    diag
    3      0.751D-02      0.227D-02       -77.85198944    115.259043    0.00004   -0.00003   -0.00006    2    diag
    4      0.296D-02      0.827D-03       -77.85243918    115.131288    0.00003   -0.00002   -0.00004    3    diag
    5      0.162D-02      0.295D-03       -77.85257928    115.138604    0.00005   -0.00003   -0.00006    4    diag
    6      0.101D-02      0.129D-03       -77.85262365    115.140037    0.00001   -0.00001    0.00000    5    diag
    7      0.605D-03      0.429D-04       -77.85262848    115.141365    0.00010   -0.00007   -0.00013    6    diag
    8      0.213D-03      0.125D-04       -77.85262881    115.141738   -0.00005    0.00003    0.00008    7    diag
    9      0.578D-04      0.420D-05       -77.85262883    115.141728    0.00011   -0.00007   -0.00015    8    diag
   10      0.909D-05      0.234D-05       -77.85262883    115.141718   -0.00002    0.00001    0.00004    0    orth

 Final occupancy:   8

 !RHF STATE  1.1 Energy               -77.852628831534
 Nuclear energy                        32.32323170
 One-electron energy                 -167.74671973
 Two-electron energy                   57.57085920
 Virial quotient                       -1.00141975
 !RHF STATE  1.1 Dipole moment         -0.00002013     0.00001338     0.00004155
 Dipole moment /Debye                  -0.00005115     0.00003401     0.00010561

 ELECTRON ORBITALS
 =================

  Orbital  Occupation    Energy     Coefficients
    1.1     2.00000   -11.25940     1 1s    0.72108     2 1s    0.68739
    2.1     2.00000   -11.25855     1 1s    0.68750     2 1s   -0.72118
    3.1     2.00000    -1.03487     1 1s    0.28362     2 1s    0.28362
    4.1     2.00000    -0.78429     1 1s   -0.28976     2 1s    0.28977
    5.1     2.00000    -0.62333     1 2py   0.30810     2 2py   0.30807
    6.1     2.00000    -0.56830     1 2px   0.29631     2 2px  -0.29630
    7.1     2.00000    -0.38818     1 2pz   0.31173     1 2pz   0.28843     2 2pz   0.31165     2 2pz   0.28839
    8.1     2.00000    -0.38558     1 2px   0.27616     2 2px  -0.27606     4 1s   -0.28512     5 1s   -0.28509
    9.1     0.00000     0.06881     1 1s    0.39802     1 2pz   0.33224     1 2pz   0.47554     2 1s    0.39801     2 2pz  -0.33223
                                    2 2pz  -0.47555
   10.1     0.00000     0.23221     1 1s   -1.09421     1 2px   0.47744     1 2py   0.37317     1 2pz   0.41458     2 1s   -1.09409
                                    2 2px  -0.47747     2 2py  -0.37315     2 2pz  -0.41451     3 1s    0.56240     4 1s    1.09022
                                    5 1s    1.09019     6 1s    0.56230
   11.1     0.00000     0.27888     1 1s   -1.52011     1 2py  -0.36976     1 2pz   0.42308     2 1s    1.52008     2 2py  -0.36947
                                    2 2pz   0.42292     3 1s    1.42596     6 1s   -1.42561
   12.1     0.00000     0.31637     1 1s   -0.77299     1 2px   0.41263     1 2py  -1.02801     1 2pz   0.44136     2 1s   -0.77337
                                    2 2px  -0.41253     2 2py   1.02829     2 2pz  -0.44141     3 1s    1.59029     4 1s   -0.42697
                                    5 1s   -0.42732     6 1s    1.59080
   13.1     0.00000     0.33668     1 1s   -1.06151     1 2px   0.28450     1 2py   0.76499     1 2pz   0.31055     2 1s    1.06159
                                    2 2px   0.28466     2 2py   0.76479     2 2pz   0.31066     4 1s    1.70342     5 1s   -1.70324
   14.1     0.00000     0.42519     1 1s    2.02102     1 2px   1.80702     1 2py  -0.65375     1 2pz  -0.78580     2 1s   -2.02088
                                    2 2px   1.80704     2 2py  -0.65387     2 2pz  -0.78579     3 1s    0.67477     6 1s   -0.67499
   15.1     0.00000     0.70644     1 2px  -0.54459     1 2px   0.92446     2 2px   0.54453     2 2px  -0.92452     3 1s    0.25340
                                    4 1s   -0.44224     5 1s   -0.44224     6 1s    0.25350
   16.1     0.00000     0.75499     1 1s   -0.34038     1 2py  -0.36714     1 2px  -0.68350     1 2py   0.78898     2 1s    0.34029
                                    2 2py  -0.36692     2 2px  -0.68349     2 2py   0.78861     3 1s   -0.49422     6 1s    0.49418
   17.1     0.00000     0.79510     1 2py  -0.57105     1 2pz  -0.32018     1 2py   1.23368     1 2pz   0.31896     2 2py   0.57101
                                    2 2pz   0.31802     2 2py  -1.23354     2 2pz  -0.31689     3 1s   -0.25006     4 1s    0.27261
                                    5 1s    0.27218     6 1s   -0.25057
   18.1     0.00000     0.79922     1 2pz  -0.73561     1 2pz   0.70193     2 2pz  -0.73646     2 2pz   0.70271
   19.1     0.00000     0.87060     1 1s   -0.37648     1 2px  -0.25765     1 2pz  -0.66386     1 2px   0.48929     1 2py  -0.64047
                                    1 2pz   0.92622     2 1s   -0.37649     2 2px   0.25764     2 2pz   0.66397     2 2px  -0.48931
                                    2 2py   0.64044     2 2pz  -0.92634     3 1s    0.27794     6 1s    0.27797
   20.1     0.00000     0.97156     1 2px   0.69686     1 2py   0.39194     1 2px  -1.07583     1 2py  -0.83437     2 2px   0.69688
                                    2 2py   0.39201     2 2px  -1.07595     2 2py  -0.83451     4 1s   -1.04690     5 1s    1.04681
   21.1     0.00000     1.12231     1 1s   -0.66669     1 1s    1.23532     1 2px   0.26521     1 2py   0.38982     1 2px  -0.36937
                                    1 2py  -0.36385     2 1s   -0.66687     2 1s    1.23613     2 2px  -0.26497     2 2py  -0.39016
                                    2 2px   0.36873     2 2py   0.36450     4 1s    0.66274     4 1s   -1.17954     5 1s    0.66285
                                    5 1s   -1.17993
   22.1     0.00000     1.14332     1 2px  -0.42294     1 2py   0.58456     1 2px   0.81296     1 2py  -0.95729     2 2px  -0.42283
                                    2 2py   0.58410     2 2px   0.81304     2 2py  -0.95701     3 1s   -0.53996     3 1s    1.25554
                                    4 1s    0.25322     4 1s   -0.59208     5 1s   -0.25288     5 1s    0.59130     6 1s    0.53906
                                    6 1s   -1.25479
   23.1     0.00000     1.17435     1 1s   -0.40846     1 2px  -0.85364     2 1s    0.40929     2 2px  -0.85346     3 1s    0.33171
                                    3 1s   -0.51284     4 1s    0.78233     4 1s   -0.92237     5 1s   -0.78251     5 1s    0.92226
                                    6 1s   -0.33167     6 1s    0.51239
   24.1     0.00000     1.18834     1 1s   -0.32827     1 1s    0.43654     1 2px   0.28220     1 2py  -0.27112     2 1s   -0.32783
                                    2 1s    0.43470     2 2px  -0.28268     2 2py   0.27171     3 1s    0.84613     3 1s   -0.83762
                                    6 1s    0.84670     6 1s   -0.83870
   25.1     0.00000     1.22708     1 1s   -1.27220     1 1s    2.28686     1 2py  -0.25123     1 2px  -0.60658     1 2py   0.65743
                                    1 2pz  -0.96063     2 1s   -1.27225     2 1s    2.28649     2 2py   0.25116     2 2px   0.60702
                                    2 2py  -0.65762     2 2pz   0.96046     3 1s   -1.14744     4 1s   -0.39048     4 1s   -0.33804
                                    5 1s   -0.39020     5 1s   -0.33823     6 1s   -1.14773
   26.1     0.00000     1.27430     1 1s   -1.62372     1 1s    5.03633     1 2px   1.20061     1 2py  -0.77824     1 2pz  -1.16839
                                    2 1s    1.62374     2 1s   -5.03630     2 2px   1.20054     2 2py  -0.77821     2 2pz  -1.16832
                                    3 1s   -0.48050     4 1s   -0.72928     5 1s    0.72905     6 1s    0.48078
   27.1     0.00000     1.69669     1 1s    0.59222     1 3d0   0.34795     1 3d2- -0.29877     1 3d2+ -0.32438     2 1s   -0.59219
                                    2 3d0  -0.34787     2 3d2-  0.29873     2 3d2+  0.32444
   28.1     0.00000     1.92869     1 1s    0.29829     1 1s   -0.65950     1 2pz   0.33927     1 3d0   0.34531     1 3d1+  0.34308
                                    1 3d2+  0.34354     1 3d1-  0.33401     2 1s    0.29836     2 1s   -0.65975     2 2pz  -0.33930
                                    2 3d0   0.34536     2 3d1+  0.34283     2 3d2+  0.34340     2 3d1-  0.33378     3 1s    0.28870
                                    6 1s    0.28874
   29.1     0.00000     1.94173     1 1s   -0.26895     1 1s    1.18555     1 2px   0.26774     1 2pz  -0.29845     1 3d2- -0.30454
                                    1 3d1+  0.40385     1 3d1-  0.38762     2 1s    0.26873     2 1s   -1.18515     2 2px   0.26782
                                    2 2pz  -0.29824     2 3d2-  0.30454     2 3d1+ -0.40403     2 3d1- -0.38780     3 1s   -0.32151
                                    6 1s    0.32140
   30.1     0.00000     2.19790     1 1s    0.32518     1 1s   -1.54412     1 2px  -0.35129     1 2py   0.26874     1 2pz   0.40369
                                    1 3d0   0.56991     1 3d2+  0.35922     2 1s   -0.32512     2 1s    1.54412     2 2px  -0.35121
                                    2 2py   0.26875     2 2pz   0.40368     2 3d0  -0.56993     2 3d2+ -0.35929     3 1s    0.36929
                                    4 1s    0.33270     5 1s   -0.33276     6 1s   -0.36930
   31.1     0.00000     2.24319     1 1s    0.51039     1 1s   -0.33595     1 2px   0.27046     1 2px  -0.30899     1 3d2-  0.26529
                                    1 3d1+  0.38068     1 3d2+ -0.38681     2 1s    0.51044     2 1s   -0.33617     2 2px  -0.27046
                                    2 2px   0.30909     2 3d2-  0.26527     2 3d1+  0.38070     2 3d2+ -0.38676
   32.1     0.00000     2.34448     1 2py   0.36184     1 3d0   0.50388     1 3d2- -0.38869     1 3d1- -0.34276     2 2py  -0.36182
                                    2 3d0   0.50384     2 3d2- -0.38875     2 3d1- -0.34274     3 1s   -0.25431     4 1s    0.41706
                                    5 1s    0.41702     6 1s   -0.25434
   33.1     0.00000     2.56768     1 1s   -0.45808     1 2px  -0.26800     1 2py   0.33734     1 3d2- -0.47199     1 3d1- -0.59572
                                    2 1s    0.45811     2 2px  -0.26788     2 2py   0.33745     2 3d2-  0.47175     2 3d1-  0.59584
                                    3 1s   -0.47455     4 1s    0.42107     5 1s   -0.42118     6 1s    0.47444
   34.1     0.00000     2.64452     1 2py   0.33618     1 3d2-  0.39316     1 3d2+  0.53833     1 3d1- -0.52021     2 2py  -0.33604
                                    2 3d2-  0.39331     2 3d2+  0.53829     2 3d1- -0.51998     4 1s    0.37928     5 1s    0.37908
   35.1     0.00000     2.74356     1 3d0   0.40770     1 3d2-  0.53481     1 3d1+ -0.49183     2 3d0   0.40774     2 3d2-  0.53496
                                    2 3d1+ -0.49191     3 1s    0.49465     6 1s    0.49486
   36.1     0.00000     2.95804     1 1s   -1.74051     1 2px  -0.43069     1 2px  -0.88846     1 2py   0.25001     1 2pz   0.43947
                                    1 3d2-  0.36483     1 3d1+  0.68237     1 3d2+ -0.64768     2 1s    1.74051     2 2px  -0.43069
                                    2 2px  -0.88847     2 2py   0.25001     2 2pz   0.43948     2 3d2- -0.36487     2 3d1+ -0.68236
                                    2 3d2+  0.64768


 HOMO      8.1    -0.385577 =     -10.4921eV
 LUMO      9.1     0.068813 =       1.8725eV
 LUMO-HOMO         0.454390 =      12.3646eV


 **********************************************************************************************************************************
 DATASETS  * FILE   NREC   LENGTH (MB)   RECORD NAMES
              1      19       31.13       500      610      700      900      950      970     1000      129      960     1100   
                                          VAR    BASINP    GEOM    SYMINP    ZMAT    AOBASIS   BASIS     P2S    ABASIS      S 
                                         1400     1410     1200     1210     1080     1600     1650     1300     1700   
                                           T        V       H0       H01     AOSYM     SMH    MOLCAS    ERIS     OPER   

              2       4        2.86       700     1000      520     2100   
                                         GEOM     BASIS   MCVARS     RHF  

 PROGRAMS   *        TOTAL    HF-SCF       INT
 CPU TIMES  *         0.52      0.17      0.25
 REAL TIME  *         1.10 SEC
 DISK USED  *        36.24 MB
 **********************************************************************************************************************************


 PROGRAM * MULTI (Direct Multiconfiguration SCF)       Authors: P.J. Knowles, H.-J. Werner (1984)


 Number of closed-shell orbitals:   7 (   7 )
 Number of active  orbitals:        2 (   2 )
 Number of external orbitals:      27 (  27 )

 State symmetry 1

 Number of electrons:     2    Spin symmetry=Singlet   Space symmetry=1
 Number of states:        3
 Number of CSFs:          3   (4 determinants, 4 intermediate states)

 Molecular orbitals read from record     2100.2  Type=RHF/CANONICAL (state 1.1)

 Wavefunction dump at record             2140.2

 Convergence thresholds  0.10E-01 (gradient)  0.10E-05 (energy)  0.10E-02 (step length)

 Weight factors for state symmetry  1:    0.33333   0.33333   0.33333

 Number of orbital rotations:      257   (    14 Core/Active    189 Core/Virtual   0 Active/Active     54 Active/Virtual)
 Total number of variables:        269

 Micro-Iterations solved by the two-step solver

 ITER. MIC  NCI  NEG     ENERGY(VAR)     ENERGY(PROJ)   ENERGY CHANGE     GRAD(0)  GRAD(ORB)   GRAD(CI)     STEP       TIME

   1    6    5    0     -77.69290457     -77.71255961   -0.01965504    0.16752189 0.00155796 0.00000000  0.14D+00      0.11
   2    5    5    0     -77.71224769     -77.71226701   -0.00001932    0.00647667 0.00000331 0.00000000  0.46D-02      0.20
   3    3    4    0     -77.71226704     -77.71226704   -0.00000000    0.00001247 0.00000000 0.00000000  0.17D-04      0.26

 ** WVFN ****  CONVERGENCE REACHED, FINAL GRADIENT:  0.14D-09



 Results for state 1.1
 =====================

 !MCSCF STATE  1.1 Energy             -77.846218010816
 Nuclear energy                        32.32323170
 Kinetic energy                        77.79820499
 One electron energy                 -167.82248227
 Two electron energy                   57.65303256
 Virial ratio                           2.00061715

 !MCSCF STATE  1.1 Dipole moment        0.00003071    -0.00002231    -0.00005243
 Dipole moment /Debye                   0.00007806    -0.00005671    -0.00013326

 Results for state 2.1
 =====================

 !MCSCF STATE  2.1 Energy             -77.739859635610
 Nuclear energy                        32.32323170
 Kinetic energy                        77.87010441
 One electron energy                 -167.51976765
 Two electron energy                   57.45667632
 Virial ratio                           1.99832741

 !MCSCF STATE  2.1 Dipole moment        0.00005390    -0.00003570    -0.00003686
 Dipole moment /Debye                   0.00013699    -0.00009073    -0.00009369

 Results for state 3.1
 =====================

 !MCSCF STATE  3.1 Energy             -77.550723474115
 Nuclear energy                        32.32323170
 Kinetic energy                        77.92932275
 One electron energy                 -167.25784596
 Two electron energy                   57.38389078
 Virial ratio                           1.99514176

 !MCSCF STATE  3.1 Dipole moment        0.00007554    -0.00003750    -0.00001088
 Dipole moment /Debye                   0.00019198    -0.00009530    -0.00002765

 State-averaged charge density matrix saved on record  2140.2 (density set 1)

 !MCSCF expec         <1.1|DMX|1.1>     0.000030712703 au =     0.000078058791 Debye
 !MCSCF trans         <2.1|DMX|1.1>     0.000002998406 au =     0.000007620689 Debye
 !MCSCF expec         <2.1|DMX|2.1>     0.000053899843 au =     0.000136990762 Debye
 !MCSCF trans         <3.1|DMX|1.1>    -0.000002303397 au =    -0.000005854268 Debye
 !MCSCF trans         <3.1|DMX|2.1>     0.000004826867 au =     0.000012267868 Debye
 !MCSCF expec         <3.1|DMX|3.1>     0.000075536264 au =     0.000191981457 Debye

 !MCSCF expec         <1.1|DMY|1.1>    -0.000022312210 au =    -0.000056708268 Debye
 !MCSCF trans         <2.1|DMY|1.1>    -0.000027885249 au =    -0.000070872591 Debye
 !MCSCF expec         <2.1|DMY|2.1>    -0.000035699865 au =    -0.000090734063 Debye
 !MCSCF trans         <3.1|DMY|1.1>     0.000002632130 au =     0.000006689770 Debye
 !MCSCF trans         <3.1|DMY|2.1>    -0.000031078099 au =    -0.000078987475 Debye
 !MCSCF expec         <3.1|DMY|3.1>    -0.000037497309 au =    -0.000095302411 Debye

 !MCSCF expec         <1.1|DMZ|1.1>    -0.000052430527 au =    -0.000133256380 Debye
 !MCSCF trans         <2.1|DMZ|1.1>    -0.000026002357 au =    -0.000066087070 Debye
 !MCSCF expec         <2.1|DMZ|2.1>    -0.000036861404 au =    -0.000093686207 Debye
 !MCSCF trans         <3.1|DMZ|1.1>    -0.000000151730 au =    -0.000000385635 Debye
 !MCSCF trans         <3.1|DMZ|2.1>    -0.000027063891 au =    -0.000068785044 Debye
 !MCSCF expec         <3.1|DMZ|3.1>    -0.000010877409 au =    -0.000027645804 Debye


 NATURAL ORBITALS (state averaged)
 =================================

  Orbital  Occupation    Energy     Coefficients
    1.1     2.00000   -11.25405     1 1s    0.70482     2 1s    0.70403
    2.1     2.00000   -11.25331     1 1s    0.70409     2 1s   -0.70488
    3.1     2.00000    -1.04736     1 1s    0.27851     2 1s    0.27851
    4.1     2.00000    -0.78436     1 1s   -0.31554     2 1s    0.31554
    5.1     2.00000    -0.62637     1 2py   0.30155     2 2py   0.30156
    6.1     2.00000    -0.56631     1 2px   0.25817     2 2px  -0.25815
    7.1     2.00000    -0.41606     1 2pz   0.32810     1 2pz   0.28304     2 2pz   0.32809     2 2pz   0.28304
    8.1     1.00000    -0.08168     1 1s    0.26193     1 2pz   0.40715     1 2pz   0.43567     2 1s    0.26192     2 2pz  -0.40715
                                    2 2pz  -0.43568
    9.1     1.00000    -0.22859     1 2px   0.31036     2 2px  -0.31035     4 1s   -0.29389     5 1s   -0.29388
   10.1    -0.00000     0.21986     1 1s   -1.10187     1 2px   0.47342     1 2py   0.38927     1 2pz   0.35596     2 1s   -1.10182
                                    2 2px  -0.47348     2 2py  -0.38926     2 2pz  -0.35592     3 1s    0.53005     4 1s    1.09961
                                    5 1s    1.09964     6 1s    0.53003
   11.1    -0.00000     0.27828     1 1s   -1.59958     1 2py  -0.31240     1 2pz   0.43626     2 1s    1.59960     2 2py  -0.31230
                                    2 2pz   0.43616     3 1s    1.41837     6 1s   -1.41825
   12.1    -0.00000     0.31873     1 1s   -0.83049     1 2px   0.41453     1 2py  -1.01972     1 2pz   0.41620     2 1s   -0.82842
                                    2 2px  -0.41418     2 2py   1.02164     2 2pz  -0.41550     3 1s    1.60948     4 1s   -0.38251
                                    5 1s   -0.38628     6 1s    1.61004
   13.1    -0.00000     0.32101     1 1s   -1.08206     1 2py   0.84999     1 2pz   0.32924     2 1s    1.08374     2 2py   0.84775
                                    2 2pz   0.33016     4 1s    1.72067     5 1s   -1.71968
   14.1    -0.00000     0.43094     1 1s    1.87921     1 2px   1.81738     1 2py  -0.54458     1 2pz  -0.72789     2 1s   -1.87909
                                    2 2px   1.81742     2 2py  -0.54470     2 2pz  -0.72789     3 1s    0.67460     6 1s   -0.67480
   15.1    -0.00000     0.70253     1 2px  -0.52823     1 2px   0.89927     2 2px   0.52822     2 2px  -0.89940     3 1s    0.25182
                                    4 1s    0.26510     4 1s   -0.49721     5 1s    0.26509     5 1s   -0.49716     6 1s    0.25192
   16.1    -0.00000     0.75327     1 1s   -0.44274     1 2py  -0.35865     1 2px  -0.73138     1 2py   0.80757     2 1s    0.44258
                                    2 2py  -0.35856     2 2px  -0.73137     2 2py   0.80744     3 1s   -0.49158     6 1s    0.49156
   17.1    -0.00000     0.79419     1 2py  -0.54470     1 2pz  -0.31762     1 2py   1.20805     1 2pz   0.38910     2 2py   0.54470
                                    2 2pz   0.31685     2 2py  -1.20798     2 2pz  -0.38826     4 1s    0.27314     5 1s    0.27296
   18.1    -0.00000     0.79863     1 1s   -0.36952     1 2pz  -0.73117     1 2pz   0.76649     2 1s    0.36934     2 2pz  -0.73153
                                    2 2pz   0.76693
   19.1    -0.00000     0.86836     1 1s   -0.33671     1 2px  -0.27258     1 2pz  -0.63715     1 2px   0.52737     1 2py  -0.65255
                                    1 2pz   0.97516     2 1s   -0.33669     2 2px   0.27257     2 2pz   0.63711     2 2px  -0.52738
                                    2 2py   0.65253     2 2pz  -0.97512     3 1s    0.32763     6 1s    0.32764
   20.1    -0.00000     0.97756     1 2px   0.69301     1 2py   0.39491     1 2px  -0.98744     1 2py  -0.85171     2 2px   0.69302
                                    2 2py   0.39498     2 2px  -0.98756     2 2py  -0.85183     4 1s   -1.00248     5 1s    1.00249
   21.1    -0.00000     1.09589     1 1s   -0.61980     1 1s    1.13641     1 2px   0.29044     1 2py   0.41268     1 2px  -0.36055
                                    1 2py  -0.41866     2 1s   -0.62007     2 1s    1.13711     2 2px  -0.29027     2 2py  -0.41299
                                    2 2px   0.36025     2 2py   0.41916     4 1s    0.67486     4 1s   -1.14397     5 1s    0.67520
                                    5 1s   -1.14459
   22.1    -0.00000     1.12760     1 2py   0.56618     1 2py  -0.69828     2 2py   0.56588     2 2py  -0.69810     3 1s    0.48294
                                    4 1s    0.73112     4 1s   -1.12480     5 1s   -0.73084     5 1s    1.12402     6 1s   -0.48289
   23.1    -0.00000     1.15496     1 1s    0.50198     1 2px  -0.44166     1 2py   0.25976     1 2px   1.22665     1 2py  -0.67912
                                    2 1s   -0.50236     2 2px  -0.44157     2 2py   0.25958     2 2px   1.22656     2 2py  -0.67903
                                    3 1s   -0.61652     3 1s    1.25150     4 1s   -0.35982     5 1s    0.35995     6 1s    0.61607
                                    6 1s   -1.25095
   24.1    -0.00000     1.19120     1 2px   0.25807     1 2pz   0.26510     2 2px  -0.25840     2 2pz  -0.26557     3 1s    0.87590
                                    3 1s   -0.63904     6 1s    0.87625     6 1s   -0.63962
   25.1    -0.00000     1.22157     1 1s   -1.34153     1 1s    2.38603     1 2py  -0.28919     1 2px  -0.63000     1 2py   0.67850
                                    1 2pz  -0.92246     2 1s   -1.34174     2 1s    2.38627     2 2py   0.28916     2 2px   0.63027
                                    2 2py  -0.67863     2 2pz   0.92242     3 1s   -1.26661     4 1s   -0.33697     4 1s   -0.37680
                                    5 1s   -0.33680     5 1s   -0.37696     6 1s   -1.26697
   26.1    -0.00000     1.26846     1 1s   -1.62688     1 1s    5.03962     1 2px   1.21033     1 2py  -0.73056     1 2pz  -1.15030
                                    2 1s    1.62671     2 1s   -5.03925     2 2px   1.21035     2 2py  -0.73061     2 2pz  -1.15008
                                    3 1s   -0.50760     4 1s   -0.67331     5 1s    0.67302     6 1s    0.50772
   27.1    -0.00000     1.69132     1 1s    0.61572     1 3d0   0.34173     1 3d2- -0.30274     1 3d2+ -0.32646     2 1s   -0.61568
                                    2 3d0  -0.34166     2 3d2-  0.30271     2 3d2+  0.32653
   28.1    -0.00000     1.92583     1 1s    0.28853     1 1s   -0.64919     1 2pz   0.33386     1 3d0   0.34301     1 3d1+  0.33808
                                    1 3d2+  0.35070     1 3d1-  0.33320     2 1s    0.28836     2 1s   -0.64844     2 2pz  -0.33363
                                    2 3d0   0.34301     2 3d1+  0.33821     2 3d2+  0.35074     2 3d1-  0.33334     3 1s    0.28644
                                    6 1s    0.28649
   29.1    -0.00000     1.93871     1 1s   -0.26177     1 1s    1.15456     1 2px   0.25738     1 2pz  -0.29008     1 3d2- -0.30201
                                    1 3d1+  0.40695     1 3d1-  0.38622     2 1s    0.26183     2 1s   -1.15477     2 2px   0.25727
                                    2 2pz  -0.29018     2 3d2-  0.30197     2 3d1+ -0.40682     2 3d1- -0.38611     3 1s   -0.32330
                                    6 1s    0.32340
   30.1    -0.00000     2.19779     1 1s    0.32882     1 1s   -1.53180     1 2px  -0.34532     1 2py   0.27087     1 2pz   0.39791
                                    1 3d0   0.57291     1 3d2+  0.36222     2 1s   -0.32876     2 1s    1.53177     2 2px  -0.34525
                                    2 2py   0.27091     2 2pz   0.39789     2 3d0  -0.57294     2 3d2+ -0.36228     3 1s    0.36817
                                    4 1s    0.32756     5 1s   -0.32763     6 1s   -0.36816
   31.1    -0.00000     2.23956     1 1s    0.50630     1 1s   -0.34095     1 2px   0.27682     1 2px  -0.30126     1 3d2-  0.27910
                                    1 3d1+  0.39083     1 3d2+ -0.38704     2 1s    0.50634     2 1s   -0.34120     2 2px  -0.27681
                                    2 2px   0.30136     2 3d2-  0.27908     2 3d1+  0.39086     2 3d2+ -0.38699
   32.1    -0.00000     2.33768     1 2py   0.38033     1 3d0   0.50518     1 3d2- -0.38393     1 3d1- -0.35850     2 2py  -0.38032
                                    2 3d0   0.50511     2 3d2- -0.38403     2 3d1- -0.35853     3 1s   -0.26833     4 1s    0.40730
                                    5 1s    0.40727     6 1s   -0.26840
   33.1    -0.00000     2.56196     1 1s   -0.44452     1 2px  -0.26052     1 2py   0.33764     1 3d2- -0.47494     1 3d1- -0.59691
                                    2 1s    0.44455     2 2px  -0.26039     2 2py   0.33778     2 3d2-  0.47468     2 3d1-  0.59707
                                    3 1s   -0.47829     4 1s    0.41163     5 1s   -0.41176     6 1s    0.47819
   34.1    -0.00000     2.63617     1 2py   0.33996     1 3d2-  0.40537     1 3d2+  0.53274     1 3d1- -0.51967     2 2py  -0.33980
                                    2 3d2-  0.40556     2 3d2+  0.53270     2 3d1- -0.51938     4 1s    0.36797     5 1s    0.36774
   35.1    -0.00000     2.74790     1 3d0   0.41614     1 3d2-  0.52093     1 3d1+ -0.49688     2 3d0   0.41617     2 3d2-  0.52103
                                    2 3d1+ -0.49694     3 1s    0.49277     6 1s    0.49294
   36.1    -0.00000     2.95346     1 1s   -1.77190     1 2px  -0.42457     1 2px  -0.90114     1 2py   0.25837     1 2pz   0.44757
                                    1 3d2-  0.36278     1 3d1+  0.68537     1 3d2+ -0.64478     2 1s    1.77190     2 2px  -0.42457
                                    2 2px  -0.90114     2 2py   0.25838     2 2pz   0.44757     2 3d2- -0.36282     2 3d1+ -0.68534
                                    2 3d2+  0.64476


 Natural orbital dump (state averaged) at molpro section  2140.2    (Orbital set 2)



 **********************************************************************************************************************************
 DATASETS  * FILE   NREC   LENGTH (MB)   RECORD NAMES
              1      20       31.86       500      610      700      900      950      970     1000      129      960     1100   
                                          VAR    BASINP    GEOM    SYMINP    ZMAT    AOBASIS   BASIS     P2S    ABASIS      S 
                                         1400     1410     1200     1210     1080     1600     1650     1300     1700     1380   
                                           T        V       H0       H01     AOSYM     SMH    MOLCAS    ERIS     OPER     JKOP   

              2       5        5.42       700     1000      520     2100     2140   
                                         GEOM     BASIS   MCVARS     RHF     MCSCF   

 PROGRAMS   *        TOTAL     MULTI    HF-SCF       INT
 CPU TIMES  *         0.83      0.31      0.17      0.25
 REAL TIME  *         1.59 SEC
 DISK USED  *        39.04 MB
 **********************************************************************************************************************************
 Molecular orbitals read from record     2140.2  Type=MCSCF/NATURAL (state averaged)
 Occupation numbers read from record     2140.2  Type=MCSCF/NATURAL (state averaged)
 Orbital energies read from record       2140.2  Type=MCSCF/NATURAL (state averaged)
 Redundancy group numbers read from rec  2140.2  Type=MCSCF/NATURAL (state averaged)

 MULTI/6-31G* energy=    -77.550723474115

           MULTI          HF-SCF
    -77.55072347    -77.85262883
 **********************************************************************************************************************************
 Molpro calculation terminated
