
 Primary working directories    : /scratch.local/johan406.molpro_temp/molpro.lBrd7Bl9La
 Secondary working directories  : /scratch.local/johan406.molpro_temp/molpro.lBrd7Bl9La
 Wavefunction directory         : /home/goodpast/johan406/wfu/
 Main file repository           : /scratch.local/johan406.molpro_temp/molpro.lBrd7Bl9La/

 id        : roweumn

 Nodes     nprocs
 cn0391       1

 Using customized tuning parameters: mindgm=1; mindgv=20; mindgc=4; mindgr=1; noblas=0; minvec=7
 default implementation of scratch files=df  


 Variables initialized (934), CPU time= 0.00 sec
                                                                                 !leave this line blank
 
 gprint, orbitals=30
 memory, 125., m
 symmetry, nosym
 nelect=16
 basis=6-31g*
 
 geometry={
 C -0.6307 0.1419 0.2911
 C 0.6396 -0.1918 -0.3515
 H -1.2932 0.9115 -0.1088
 H -0.9504 -0.8746 -0.1232
 H 0.9593 0.8247 0.0628
 H 1.3021 -0.9615 0.0483
 }
 
 hf
 {multi,
 closed 7
 occ 9
 wf,spin=0;STATE,3
 }
 
 Commands  initialized (763), CPU time= 0.01 sec, 617 directives.
 Default parameters read. Elapsed time= 0.07 sec

 Checking input...
 Passed
1


                                         ***  PROGRAM SYSTEM MOLPRO  ***
                                       Copyright, TTI GmbH Stuttgart, 2015
                                    Version 2019.2 linked Oct 25 2019 22:50:27


 **********************************************************************************************************************************
 LABEL *                                                                                 
  64 bit serial version                                                                  DATE: 07-Feb-23          TIME: 15:41:39  
 **********************************************************************************************************************************

 SHA1:             8dbd9ae1082e4ce945b0f27595c9eb2d4aa09004
 **********************************************************************************************************************************


 Variable memory set to  125000000 words,  buffer space 

 SETTING NELECT         =        16.00000000                                  
 SETTING BASIS          =    6-31G*
 ZSYMEL=NOSYM


Geometry recognized as XYZ



 Recomputing integrals since basis changed


 Using spherical harmonics

 Library entry C      S 6-31G                selected for orbital group  1
 Library entry C      P 6-31G                selected for orbital group  1
 Library entry C      D 6-31G*               selected for orbital group  1
 Library entry H      S 6-31G                selected for orbital group  2


 PROGRAM * SEWARD (Integral evaluation for generally contracted gaussian basis sets)     Author: Roland Lindh, 1990

 Geometry written to block  1 of record 700


 Point group  C1  



 ATOMIC COORDINATES

 NR  ATOM    CHARGE       X              Y              Z

   1  C       6.00   -1.191850267    0.268152137    0.550099275
   2  C       6.00    1.208668829   -0.362449471   -0.664238733
   3  H       1.00   -2.443793824    1.722485363   -0.205602202
   4  H       1.00   -1.795995709   -1.652754469   -0.232814259
   5  H       1.00    1.812814271    1.558457135    0.118674801
   6  H       1.00    2.460612387   -1.816971669    0.091273772

 Bond lengths in Bohr (Angstrom)

 1-2  2.763108234  1-3  2.062409398  1-4  2.160515564  2-5  2.160515564  2-6  2.062473428
     ( 1.462173909)     ( 1.091380053)     ( 1.143295600)     ( 1.143295600)     ( 1.091413936)

 Bond angles

  1-2-5   83.15220003   1-2-6  121.82431972   2-1-3  121.82129818   2-1-4   83.15220003

  3-1-4  108.93126640   5-2-6  108.93760194

 NUCLEAR CHARGE:                   16
 NUMBER OF PRIMITIVE AOS:          72
 NUMBER OF SYMMETRY AOS:           70
 NUMBER OF CONTRACTIONS:           36   (   36A   )
 NUMBER OF CORE ORBITALS:           2   (    2A   )
 NUMBER OF VALENCE ORBITALS:       12   (   12A   )


 NUCLEAR REPULSION ENERGY   32.29768877

 Eigenvalues of metric

         1 0.965E-02 0.273E-01 0.586E-01 0.641E-01 0.763E-01 0.218E+00 0.239E+00 0.277E+00


 Contracted 2-electron integrals neglected if value below      1.0D-11
 AO integral compression algorithm  1   Integral accuracy      1.0D-11

     1.573 MB (compressed) written to integral file ( 59.1%)


 NUMBER OF SORTED TWO-ELECTRON INTEGRALS:     222111.     BUFFER LENGTH:  32768
 NUMBER OF SEGMENTS:   1  SEGMENT LENGTH:     222111      RECORD LENGTH: 524288

 Memory used in sort:       0.78 MW

 SORT1 READ      284735. AND WROTE      212531. INTEGRALS IN      1 RECORDS. CPU TIME:     0.00 SEC, REAL TIME:     0.01 SEC
 SORT2 READ      212531. AND WROTE      222111. INTEGRALS IN      6 RECORDS. CPU TIME:     0.02 SEC, REAL TIME:     0.02 SEC

 FILE SIZES:   FILE 1:    31.7 MBYTE,  FILE 4:     4.2 MBYTE,   TOTAL:     35.9 MBYTE

 OPERATOR DM      FOR CENTER  0  COORDINATES:    0.000000    0.000000    0.000000


 **********************************************************************************************************************************
 DATASETS  * FILE   NREC   LENGTH (MB)   RECORD NAMES
              1      19       31.13       500      610      700      900      950      970     1000      129      960     1100   
                                          VAR    BASINP    GEOM    SYMINP    ZMAT    AOBASIS   BASIS     P2S    ABASIS      S 
                                         1400     1410     1200     1210     1080     1600     1650     1300     1700   
                                           T        V       H0       H01     AOSYM     SMH    MOLCAS    ERIS     OPER   

 PROGRAMS   *        TOTAL       INT
 CPU TIMES  *         0.37      0.27
 REAL TIME  *         0.58 SEC
 DISK USED  *        36.24 MB
 **********************************************************************************************************************************


 PROGRAM * RHF-SCF (CLOSED SHELL)       Authors: W. Meyer, H.-J. Werner


 NUMBER OF ELECTRONS:       8+    8-    SPACE SYMMETRY=1    SPIN SYMMETRY: Singlet 
 CONVERGENCE THRESHOLDS:    1.00E-05 (Density)    1.00E-07 (Energy)
 MAX. NUMBER OF ITERATIONS:       60
 INTERPOLATION TYPE:            DIIS
 INTERPOLATION STEPS:              2 (START)      1 (STEP)
 LEVEL SHIFTS:                  0.00 (CLOSED)  0.00 (OPEN) 



 Orbital guess generated from atomic densities. Full valence occupancy:    8

 Molecular orbital dump at record        2100.2

 Initial occupancy:   8

 ITERATION    DDIFF          GRAD             ENERGY        2-EL.EN.            DIPOLE MOMENTS         DIIS   ORB.
    1      0.000D+00      0.000D+00       -77.83380145    115.817869    0.00006   -0.00005   -0.00009    0    start
    2      0.000D+00      0.699D-02       -77.85160373    114.797403    0.00002   -0.00000   -0.00002    1    diag
    3      0.750D-02      0.227D-02       -77.85367587    115.213276    0.00006   -0.00003   -0.00009    2    diag
    4      0.296D-02      0.826D-03       -77.85412677    115.085957    0.00003   -0.00001   -0.00004    3    diag
    5      0.162D-02      0.296D-03       -77.85426673    115.093128    0.00008   -0.00004   -0.00010    4    diag
    6      0.102D-02      0.128D-03       -77.85430997    115.094451   -0.00003    0.00003    0.00005    5    diag
    7      0.597D-03      0.425D-04       -77.85431464    115.095748    0.00020   -0.00012   -0.00027    6    diag
    8      0.209D-03      0.128D-04       -77.85431495    115.096090   -0.00013    0.00010    0.00020    7    diag
    9      0.531D-04      0.623D-05       -77.85431497    115.096115    0.00010   -0.00005   -0.00013    8    diag
   10      0.114D-04      0.217D-05       -77.85431498    115.096092    0.00005   -0.00002   -0.00006    9    orth
   11      0.462D-05      0.434D-06       -77.85431498    115.096097    0.00005   -0.00002   -0.00006    0    orth

 Final occupancy:   8

 !RHF STATE  1.1 Energy               -77.854314976953
 Nuclear energy                        32.29768877
 One-electron energy                 -167.70005208
 Two-electron energy                   57.54804833
 Virial quotient                       -1.00153978
 !RHF STATE  1.1 Dipole moment          0.00005130    -0.00002040    -0.00006411
 Dipole moment /Debye                   0.00013038    -0.00005186    -0.00016293

 ELECTRON ORBITALS
 =================

  Orbital  Occupation    Energy     Coefficients
    1.1     2.00000   -11.25927     1 1s    0.69886     2 1s    0.70996
    2.1     2.00000   -11.25843     1 1s   -0.71006     2 1s    0.69897
    3.1     2.00000    -1.03373     1 1s    0.28389     2 1s    0.28389
    4.1     2.00000    -0.78412     1 1s   -0.28851     2 1s    0.28852
    5.1     2.00000    -0.62396     1 2py   0.30794     2 2py   0.30799
    6.1     2.00000    -0.57137     1 2px   0.29504     2 2px  -0.29505
    7.1     2.00000    -0.38639     1 2pz   0.31300     1 2pz   0.28956     2 2pz   0.31287     2 2pz   0.28948
    8.1     2.00000    -0.38471     1 2px   0.27708     2 2px  -0.27693     4 1s   -0.28475     5 1s   -0.28471
    9.1     0.00000     0.07153     1 1s    0.39793     1 2pz   0.33301     1 2pz   0.47897     2 1s    0.39792     2 2pz  -0.33302
                                    2 2pz  -0.47900
   10.1     0.00000     0.23248     1 1s   -1.09148     1 2px   0.47412     1 2py   0.37657     1 2pz   0.40506     2 1s   -1.09163
                                    2 2px  -0.47418     2 2py  -0.37648     2 2pz  -0.40508     3 1s    0.55567     4 1s    1.09127
                                    5 1s    1.09128     6 1s    0.55588
   11.1     0.00000     0.27699     1 1s   -1.49540     1 2py  -0.37415     1 2pz   0.40417     2 1s    1.49526     2 2py  -0.37443
                                    2 2pz   0.40407     3 1s    1.41471     6 1s   -1.41480
   12.1     0.00000     0.31778     1 1s   -0.78264     1 2px   0.41890     1 2py  -1.03310     1 2pz   0.43422     2 1s   -0.78187
                                    2 2px  -0.41886     2 2py   1.03332     2 2pz  -0.43394     3 1s    1.60302     4 1s   -0.42701
                                    5 1s   -0.42753     6 1s    1.60272
   13.1     0.00000     0.33728     1 1s   -1.06339     1 2px   0.28376     1 2py   0.76821     1 2pz   0.30576     2 1s    1.06359
                                    2 2px   0.28387     2 2py   0.76790     2 2pz   0.30589     4 1s    1.70601     5 1s   -1.70588
   14.1     0.00000     0.42593     1 1s    2.01713     1 2px   1.82021     1 2py  -0.66379     1 2pz  -0.78452     2 1s   -2.01717
                                    2 2px   1.82018     2 2py  -0.66381     2 2pz  -0.78458     3 1s    0.69819     6 1s   -0.69815
   15.1     0.00000     0.70822     1 2px  -0.54116     1 2px   0.92014     2 2px   0.54117     2 2px  -0.92012     3 1s    0.26170
                                    4 1s   -0.44852     5 1s   -0.44849     6 1s    0.26168
   16.1     0.00000     0.75352     1 1s   -0.35571     1 2px   0.25255     1 2py  -0.36237     1 2px  -0.71576     1 2py   0.78774
                                    2 1s    0.35581     2 2px   0.25252     2 2py  -0.36212     2 2px  -0.71564     2 2py   0.78724
                                    3 1s   -0.49817     6 1s    0.49813
   17.1     0.00000     0.79831     1 2py   0.56012     1 2pz   0.34629     1 2py  -1.22487     1 2pz  -0.35656     2 2py  -0.56062
                                    2 2pz  -0.35413     2 2py   1.22636     2 2pz   0.36408     3 1s    0.27434     4 1s   -0.26492
                                    5 1s   -0.26666     6 1s    0.27293
   18.1     0.00000     0.79889     1 2pz  -0.73884     1 2pz   0.70057     2 2pz  -0.73518     2 2pz   0.69679
   19.1     0.00000     0.87376     1 1s   -0.38967     1 2px  -0.26794     1 2pz  -0.64917     1 2px   0.50751     1 2py  -0.69433
                                    1 2pz   0.90385     2 1s   -0.38966     2 2px   0.26802     2 2pz   0.64913     2 2px  -0.50774
                                    2 2py   0.69453     2 2pz  -0.90373     3 1s    0.30590     6 1s    0.30598
   20.1     0.00000     0.97040     1 2px   0.68633     1 2py   0.40245     1 2px  -1.03660     1 2py  -0.86516     2 2px   0.68629
                                    2 2py   0.40248     2 2px  -1.03658     2 2py  -0.86519     4 1s   -1.04623     5 1s    1.04633
   21.1     0.00000     1.12358     1 1s   -0.65642     1 1s    1.22303     1 2px   0.27388     1 2py   0.38328     1 2px  -0.37116
                                    1 2py  -0.35507     2 1s   -0.65650     2 1s    1.22290     2 2px  -0.27407     2 2py  -0.38304
                                    2 2px   0.37161     2 2py   0.35461     4 1s    0.67144     4 1s   -1.17071     5 1s    0.67145
                                    5 1s   -1.17055
   22.1     0.00000     1.14592     1 1s   -0.30510     1 2px   0.44221     1 2py  -0.56529     1 2px  -0.89323     1 2py   0.95365
                                    2 1s    0.30530     2 2px   0.44224     2 2py  -0.56564     2 2px  -0.89313     2 2py   0.95394
                                    3 1s    0.56266     3 1s   -1.28128     4 1s    0.51605     5 1s   -0.51658     6 1s   -0.56324
                                    6 1s    1.28179
   23.1     0.00000     1.17046     1 1s   -0.57555     1 2px  -0.85968     2 1s    0.57747     2 2px  -0.85923     3 1s    0.28155
                                    3 1s   -0.41010     4 1s    0.80588     4 1s   -0.94805     5 1s   -0.80665     5 1s    0.94704
                                    6 1s   -0.28526     6 1s    0.41171
   24.1     0.00000     1.18383     1 2px   0.25886     1 2pz   0.30879     2 2px  -0.25808     2 2pz  -0.30853     3 1s    0.87986
                                    3 1s   -0.55483     6 1s    0.87829     6 1s   -0.55219
   25.1     0.00000     1.21490     1 1s   -1.30576     1 1s    2.32223     1 2py  -0.31187     1 2px  -0.63454     1 2py   0.69906
                                    1 2pz  -0.89757     2 1s   -1.30707     2 1s    2.32550     2 2py   0.31159     2 2px   0.63386
                                    2 2py  -0.69837     2 2pz   0.89822     3 1s   -1.30608     4 1s   -0.34938     4 1s   -0.31225
                                    5 1s   -0.34894     5 1s   -0.31336     6 1s   -1.30631
   26.1     0.00000     1.26948     1 1s   -1.62888     1 1s    4.98764     1 2px   1.17678     1 2py  -0.78500     1 2pz  -1.13903
                                    2 1s    1.62784     2 1s   -4.98566     2 2px   1.17734     2 2py  -0.78553     2 2pz  -1.13815
                                    3 1s   -0.48550     4 1s   -0.75639     5 1s    0.75605     6 1s    0.48457
   27.1     0.00000     1.69725     1 1s    0.59374     1 3d0   0.34752     1 3d2- -0.29915     1 3d2+ -0.32331     2 1s   -0.59378
                                    2 3d0  -0.34754     2 3d2-  0.29913     2 3d2+  0.32328
   28.1     0.00000     1.93267     1 1s    0.28690     1 1s   -0.65324     1 2pz   0.33174     1 3d0   0.33991     1 3d1+  0.34263
                                    1 3d2+  0.34307     1 3d1-  0.34262     2 1s    0.28678     2 1s   -0.65262     2 2pz  -0.33155
                                    2 3d0   0.33981     2 3d1+  0.34272     2 3d2+  0.34310     2 3d1-  0.34265     3 1s    0.29209
                                    6 1s    0.29207
   29.1     0.00000     1.94236     1 1s    0.25013     1 1s   -1.09483     1 2pz   0.27093     1 3d2-  0.30406     1 3d1+ -0.40803
                                    1 3d1- -0.38892     2 1s   -0.25008     2 1s    1.09477     2 2pz   0.27089     2 3d2- -0.30407
                                    2 3d1+  0.40798     2 3d1-  0.38882     3 1s    0.31868     6 1s   -0.31869
   30.1     0.00000     2.20521     1 1s    0.31330     1 1s   -1.48207     1 2px  -0.33243     1 2py   0.26181     1 2pz   0.38227
                                    1 3d0   0.57021     1 3d2+  0.36190     2 1s   -0.31313     2 1s    1.48197     2 2px  -0.33231
                                    2 2py   0.26167     2 2pz   0.38222     2 3d0  -0.57020     2 3d2+ -0.36206     3 1s    0.37687
                                    4 1s    0.33106     5 1s   -0.33110     6 1s   -0.37693
   31.1     0.00000     2.23951     1 1s    0.51693     1 1s   -0.34260     1 2px   0.27475     1 2px  -0.31394     1 3d1+  0.37946
                                    1 3d2+ -0.38368     2 1s    0.51705     2 1s   -0.34329     2 2px  -0.27474     2 2px   0.31414
                                    2 3d1+  0.37950     2 3d2+ -0.38357
   32.1     0.00000     2.34239     1 2py   0.36091     1 3d0   0.49873     1 3d2- -0.39731     1 3d1- -0.33234     2 2py  -0.36101
                                    2 3d0   0.49871     2 3d2- -0.39737     2 3d1- -0.33243     4 1s    0.42423     5 1s    0.42429
   33.1     0.00000     2.55894     1 1s   -0.54523     1 2px  -0.30574     1 2py   0.35923     1 3d2- -0.46620     1 3d1- -0.59429
                                    2 1s    0.54528     2 2px  -0.30566     2 2py   0.35935     2 3d2-  0.46616     2 3d1-  0.59444
                                    3 1s   -0.46489     4 1s    0.42651     5 1s   -0.42664     6 1s    0.46488
   34.1     0.00000     2.64411     1 2py   0.34276     1 3d2-  0.37184     1 3d2+  0.54525     1 3d1- -0.52352     2 2py  -0.34268
                                    2 3d2-  0.37199     2 3d2+  0.54525     2 3d1- -0.52334     4 1s    0.38551     5 1s    0.38539
   35.1     0.00000     2.75384     1 3d0   0.40837     1 3d2-  0.55322     1 3d1+ -0.48733     2 3d0   0.40841     2 3d2-  0.55311
                                    2 3d1+ -0.48730     3 1s    0.50171     6 1s    0.50159
   36.1     0.00000     2.95741     1 1s   -1.74847     1 2px  -0.42774     1 2px  -0.89509     1 2py   0.25443     1 2pz   0.43866
                                    1 3d2-  0.37343     1 3d1+  0.67536     1 3d2+ -0.64877     2 1s    1.74849     2 2px  -0.42774
                                    2 2px  -0.89508     2 2py   0.25443     2 2pz   0.43866     2 3d2- -0.37346     2 3d1+ -0.67533
                                    2 3d2+  0.64877


 HOMO      8.1    -0.384705 =     -10.4684eV
 LUMO      9.1     0.071531 =       1.9465eV
 LUMO-HOMO         0.456236 =      12.4148eV


 **********************************************************************************************************************************
 DATASETS  * FILE   NREC   LENGTH (MB)   RECORD NAMES
              1      19       31.13       500      610      700      900      950      970     1000      129      960     1100   
                                          VAR    BASINP    GEOM    SYMINP    ZMAT    AOBASIS   BASIS     P2S    ABASIS      S 
                                         1400     1410     1200     1210     1080     1600     1650     1300     1700   
                                           T        V       H0       H01     AOSYM     SMH    MOLCAS    ERIS     OPER   

              2       4        2.86       700     1000      520     2100   
                                         GEOM     BASIS   MCVARS     RHF  

 PROGRAMS   *        TOTAL    HF-SCF       INT
 CPU TIMES  *         0.55      0.18      0.27
 REAL TIME  *         0.89 SEC
 DISK USED  *        36.24 MB
 **********************************************************************************************************************************


 PROGRAM * MULTI (Direct Multiconfiguration SCF)       Authors: P.J. Knowles, H.-J. Werner (1984)


 Number of closed-shell orbitals:   7 (   7 )
 Number of active  orbitals:        2 (   2 )
 Number of external orbitals:      27 (  27 )

 State symmetry 1

 Number of electrons:     2    Spin symmetry=Singlet   Space symmetry=1
 Number of states:        3
 Number of CSFs:          3   (4 determinants, 4 intermediate states)

 Molecular orbitals read from record     2100.2  Type=RHF/CANONICAL (state 1.1)

 Wavefunction dump at record             2140.2

 Convergence thresholds  0.10E-01 (gradient)  0.10E-05 (energy)  0.10E-02 (step length)

 Weight factors for state symmetry  1:    0.33333   0.33333   0.33333

 Number of orbital rotations:      257   (    14 Core/Active    189 Core/Virtual   0 Active/Active     54 Active/Virtual)
 Total number of variables:        269

 Micro-Iterations solved by the two-step solver

 ITER. MIC  NCI  NEG     ENERGY(VAR)     ENERGY(PROJ)   ENERGY CHANGE     GRAD(0)  GRAD(ORB)   GRAD(CI)     STEP       TIME

   1    6    5    0     -77.69308266     -77.71281043   -0.01972778    0.16756012 0.00148558 0.00000000  0.14D+00      0.11
   2    5    5    0     -77.71249316     -77.71251274   -0.00001958    0.00651158 0.00000318 0.00000000  0.46D-02      0.19
   3    4    4    0     -77.71251277     -77.71251277   -0.00000000    0.00001263 0.00000000 0.00000000  0.18D-04      0.26

 ** WVFN ****  CONVERGENCE REACHED, FINAL GRADIENT:  0.15D-09



 Results for state 1.1
 =====================

 !MCSCF STATE  1.1 Energy             -77.847897008698
 Nuclear energy                        32.29768877
 Kinetic energy                        77.79057551
 One electron energy                 -167.77536160
 Two electron energy                   57.62977582
 Virial ratio                           2.00073687

 !MCSCF STATE  1.1 Dipole moment        0.00005742    -0.00001798    -0.00006240
 Dipole moment /Debye                   0.00014595    -0.00004569    -0.00015859

 Results for state 2.1
 =====================

 !MCSCF STATE  2.1 Energy             -77.740033092534
 Nuclear energy                        32.29768877
 Kinetic energy                        77.86073834
 One electron energy                 -167.47399783
 Two electron energy                   57.43627597
 Virial ratio                           1.99844973

 !MCSCF STATE  2.1 Dipole moment        0.00003455    -0.00003661    -0.00005708
 Dipole moment /Debye                   0.00008780    -0.00009305    -0.00014506

 Results for state 3.1
 =====================

 !MCSCF STATE  3.1 Energy             -77.549608204256
 Nuclear energy                        32.29768877
 Kinetic energy                        77.91894328
 One electron energy                 -167.21068353
 Two electron energy                   57.36338655
 Virial ratio                           1.99526001

 !MCSCF STATE  3.1 Dipole moment        0.00000924    -0.00004695    -0.00004361
 Dipole moment /Debye                   0.00002348    -0.00011932    -0.00011083

 State-averaged charge density matrix saved on record  2140.2 (density set 1)

 !MCSCF expec         <1.1|DMX|1.1>     0.000057424919 au =     0.000145950025 Debye
 !MCSCF trans         <2.1|DMX|1.1>     0.000007015091 au =     0.000017829415 Debye
 !MCSCF expec         <2.1|DMX|2.1>     0.000034545255 au =     0.000087799530 Debye
 !MCSCF trans         <3.1|DMX|1.1>     0.000001753133 au =     0.000004455727 Debye
 !MCSCF trans         <3.1|DMX|2.1>     0.000006109034 au =     0.000015526599 Debye
 !MCSCF expec         <3.1|DMX|3.1>     0.000009239634 au =     0.000023483268 Debye

 !MCSCF expec         <1.1|DMY|1.1>    -0.000017978828 au =    -0.000045694630 Debye
 !MCSCF trans         <2.1|DMY|1.1>    -0.000020848344 au =    -0.000052987733 Debye
 !MCSCF expec         <2.1|DMY|2.1>    -0.000036609823 au =    -0.000093046793 Debye
 !MCSCF trans         <3.1|DMY|1.1>     0.000002685783 au =     0.000006826133 Debye
 !MCSCF trans         <3.1|DMY|2.1>    -0.000023749221 au =    -0.000060360544 Debye
 !MCSCF expec         <3.1|DMY|3.1>    -0.000046947497 au =    -0.000119320820 Debye

 !MCSCF expec         <1.1|DMZ|1.1>    -0.000062399336 au =    -0.000158592904 Debye
 !MCSCF trans         <2.1|DMZ|1.1>    -0.000021240239 au =    -0.000053983767 Debye
 !MCSCF expec         <2.1|DMZ|2.1>    -0.000057075841 au =    -0.000145062815 Debye
 !MCSCF trans         <3.1|DMZ|1.1>     0.000000520937 au =     0.000001324002 Debye
 !MCSCF trans         <3.1|DMZ|2.1>    -0.000022626273 au =    -0.000057506483 Debye
 !MCSCF expec         <3.1|DMZ|3.1>    -0.000043607137 au =    -0.000110831028 Debye


 NATURAL ORBITALS (state averaged)
 =================================

  Orbital  Occupation    Energy     Coefficients
    1.1     2.00000   -11.25386     1 1s    0.70148     2 1s    0.70735
    2.1     2.00000   -11.25312     1 1s   -0.70741     2 1s    0.70153
    3.1     2.00000    -1.04608     1 1s    0.27876     2 1s    0.27875
    4.1     2.00000    -0.78379     1 1s   -0.31454     2 1s    0.31456
    5.1     2.00000    -0.62700     1 2py   0.30136     2 2py   0.30139
    6.1     2.00000    -0.56918     1 2px   0.25767     2 2px  -0.25767
    7.1     2.00000    -0.41444     1 2pz   0.32959     1 2pz   0.28416     2 2pz   0.32957     2 2pz   0.28415
    8.1     1.00000    -0.07913     1 1s    0.25915     1 2pz   0.40842     1 2pz   0.43859     2 1s    0.25913     2 2pz  -0.40844
                                    2 2pz  -0.43861
    9.1     1.00000    -0.22748     1 2px   0.31039     2 2px  -0.31039     4 1s   -0.29374     5 1s   -0.29374
   10.1    -0.00000     0.21999     1 1s   -1.09909     1 2px   0.47016     1 2py   0.39315     1 2pz   0.34625     2 1s   -1.09917
                                    2 2px  -0.47021     2 2py  -0.39307     2 2pz  -0.34625     3 1s    0.52335     4 1s    1.10054
                                    5 1s    1.10053     6 1s    0.52350
   11.1    -0.00000     0.27658     1 1s   -1.57017     1 2py  -0.32069     1 2pz   0.41564     2 1s    1.57005     2 2py  -0.32091
                                    2 2pz   0.41554     3 1s    1.40835     6 1s   -1.40839
   12.1    -0.00000     0.32010     1 1s   -0.84178     1 2px   0.42128     1 2py  -1.02393     1 2pz   0.40844     2 1s   -0.83713
                                    2 2px  -0.42075     2 2py   1.02728     2 2pz  -0.40698     3 1s    1.62235     4 1s   -0.38087
                                    5 1s   -0.38766     6 1s    1.62262
   13.1    -0.00000     0.32164     1 1s   -1.09378     1 2py   0.85444     1 2pz   0.32816     2 1s    1.09707     2 2py   0.85044
                                    2 2pz   0.32977     4 1s    1.72559     5 1s   -1.72411
   14.1    -0.00000     0.43146     1 1s    1.87375     1 2px   1.82988     1 2py  -0.55328     1 2pz  -0.72659     2 1s   -1.87379
                                    2 2px   1.82985     2 2py  -0.55330     2 2pz  -0.72664     3 1s    0.69754     6 1s   -0.69751
   15.1    -0.00000     0.70407     1 2px  -0.52432     1 2px   0.89446     2 2px   0.52433     2 2px  -0.89444     3 1s    0.25941
                                    4 1s    0.27233     4 1s   -0.50235     5 1s    0.27235     5 1s   -0.50234     6 1s    0.25938
   16.1    -0.00000     0.75241     1 1s   -0.45435     1 2py  -0.35484     1 2px  -0.76281     1 2py   0.80700     2 1s    0.45446
                                    2 2py  -0.35457     2 2px  -0.76264     2 2py   0.80643     3 1s   -0.49582     6 1s    0.49576
   17.1    -0.00000     0.79731     1 2py   0.53326     1 2pz   0.34501     1 2py  -1.19531     1 2pz  -0.43185     2 2py  -0.53362
                                    2 2pz  -0.35115     2 2py   1.19687     2 2pz   0.43837     4 1s   -0.26450     5 1s   -0.26594
   18.1    -0.00000     0.79800     1 1s   -0.36880     1 2pz  -0.73342     1 2pz   0.76450     2 1s    0.37039     2 2pz  -0.73054
                                    2 2pz   0.76088
   19.1    -0.00000     0.87139     1 1s   -0.35172     1 2px  -0.28339     1 2pz  -0.62134     1 2px   0.54608     1 2py  -0.70880
                                    1 2pz   0.94896     2 1s   -0.35171     2 2px   0.28347     2 2pz   0.62131     2 2px  -0.54632
                                    2 2py   0.70901     2 2pz  -0.94885     3 1s    0.35522     6 1s    0.35530
   20.1    -0.00000     0.97606     1 2px   0.68177     1 2py   0.40377     1 2px  -0.94354     1 2py  -0.88217     2 2px   0.68172
                                    2 2py   0.40379     2 2px  -0.94354     2 2py  -0.88219     4 1s   -0.99790     5 1s    0.99799
   21.1    -0.00000     1.09679     1 1s   -0.59889     1 1s    1.10363     1 2px   0.29705     1 2py   0.40941     1 2px  -0.35579
                                    1 2py  -0.41795     2 1s   -0.59889     2 1s    1.10343     2 2px  -0.29716     2 2py  -0.40930
                                    2 2px   0.35610     2 2py   0.41770     4 1s    0.68423     4 1s   -1.13140     5 1s    0.68427
                                    5 1s   -1.13136
   22.1    -0.00000     1.12838     1 2py   0.52583     1 2py  -0.58538     2 2py   0.52581     2 2py  -0.58561     3 1s    0.31405
                                    4 1s    0.77599     4 1s   -1.14195     5 1s   -0.77619     5 1s    1.14172     6 1s   -0.31410
   23.1    -0.00000     1.15334     1 1s   -0.64050     1 2px   0.47318     1 2py  -0.32881     1 2px  -1.26813     1 2py   0.77803
                                    2 1s    0.64150     2 2px   0.47342     2 2py  -0.32917     2 2px  -1.26783     2 2py   0.77800
                                    3 1s    0.62330     3 1s   -1.29047     4 1s    0.26577     5 1s   -0.26585     6 1s   -0.62462
                                    6 1s    1.29098
   24.1    -0.00000     1.18413     1 1s    0.27676     1 1s   -0.66927     1 2pz   0.50983     2 1s    0.27780     2 1s   -0.67033
                                    2 2pz  -0.50998     3 1s    0.87091     3 1s   -0.25320     4 1s    0.29645     5 1s    0.29742
                                    6 1s    0.86999     6 1s   -0.25130
   25.1    -0.00000     1.21300     1 1s   -1.31356     1 1s    2.29672     1 2py  -0.34925     1 2px  -0.62071     1 2py   0.68400
                                    1 2pz  -0.79367     2 1s   -1.31461     2 1s    2.29973     2 2py   0.34910     2 2px   0.61977
                                    2 2py  -0.68340     2 2pz   0.79425     3 1s   -1.39463     4 1s   -0.27968     4 1s   -0.31612
                                    5 1s   -0.27962     5 1s   -0.31671     6 1s   -1.39462
   26.1    -0.00000     1.26371     1 1s   -1.63145     1 1s    4.99314     1 2px   1.18655     1 2py  -0.73203     1 2pz  -1.12053
                                    2 1s    1.63045     2 1s   -4.99123     2 2px   1.18709     2 2py  -0.73255     2 2pz  -1.11969
                                    3 1s   -0.51756     4 1s   -0.69091     5 1s    0.69056     6 1s    0.51668
   27.1    -0.00000     1.69187     1 1s    0.61530     1 3d0   0.34135     1 3d2- -0.30310     1 3d2+ -0.32545     2 1s   -0.61535
                                    2 3d0  -0.34137     2 3d2-  0.30308     2 3d2+  0.32542
   28.1    -0.00000     1.92978     1 1s    0.27713     1 1s   -0.64272     1 2pz   0.32636     1 3d0   0.33755     1 3d1+  0.33767
                                    1 3d2+  0.35036     1 3d1-  0.34212     2 1s    0.27708     2 1s   -0.64239     2 2pz  -0.32625
                                    2 3d0   0.33747     2 3d1+  0.33764     2 3d2+  0.35034     2 3d1-  0.34205     3 1s    0.29038
                                    6 1s    0.29036
   29.1    -0.00000     1.93941     1 1s   -1.06520     1 2pz   0.26314     1 3d2-  0.30151     1 3d1+ -0.41089     1 3d1- -0.38720
                                    2 1s    1.06497     2 2pz   0.26301     2 3d2- -0.30154     2 3d1+  0.41092     2 3d1-  0.38718
                                    3 1s    0.32078     6 1s   -0.32072
   30.1    -0.00000     2.20495     1 1s    0.31699     1 1s   -1.46975     1 2px  -0.32627     1 2py   0.26394     1 2pz   0.37658
                                    1 3d0   0.57310     1 3d2+  0.36509     2 1s   -0.31679     2 1s    1.46964     2 2px  -0.32613
                                    2 2py   0.26379     2 2pz   0.37652     2 3d0  -0.57308     2 3d2+ -0.36528     3 1s    0.37572
                                    4 1s    0.32601     5 1s   -0.32606     6 1s   -0.37577
   31.1    -0.00000     2.23640     1 1s    0.51332     1 1s   -0.34772     1 2px   0.28108     1 2px  -0.30651     1 3d2-  0.26122
                                    1 3d1+  0.39007     1 3d2+ -0.38470     2 1s    0.51347     2 1s   -0.34848     2 2px  -0.28108
                                    2 2px   0.30672     2 3d2-  0.26127     2 3d1+  0.39012     2 3d2+ -0.38456
   32.1    -0.00000     2.33523     1 2py   0.38030     1 3d0   0.50033     1 3d2- -0.39320     1 3d1- -0.34898     2 2py  -0.38040
                                    2 3d0   0.50031     2 3d2- -0.39325     2 3d1- -0.34906     3 1s   -0.25924     4 1s    0.41543
                                    5 1s    0.41549     6 1s   -0.25927
   33.1    -0.00000     2.55309     1 1s   -0.53247     1 2px  -0.29849     1 2py   0.35967     1 3d2- -0.46928     1 3d1- -0.59560
                                    2 1s    0.53253     2 2px  -0.29842     2 2py   0.35979     2 3d2-  0.46923     2 3d1-  0.59574
                                    3 1s   -0.46874     4 1s    0.41703     5 1s   -0.41715     6 1s    0.46872
   34.1    -0.00000     2.63579     1 2py   0.34591     1 3d2-  0.38618     1 3d2+  0.53970     1 3d1- -0.52254     2 2py  -0.34583
                                    2 3d2-  0.38633     2 3d2+  0.53970     2 3d1- -0.52236     4 1s    0.37355     5 1s    0.37344
   35.1    -0.00000     2.75788     1 3d0   0.41706     1 3d2-  0.53889     1 3d1+ -0.49269     2 3d0   0.41710     2 3d2-  0.53879
                                    2 3d1+ -0.49266     3 1s    0.50011     6 1s    0.49999
   36.1    -0.00000     2.95277     1 1s   -1.78023     1 2px  -0.42168     1 2px  -0.90798     1 2py   0.26303     1 2pz   0.44677
                                    1 3d2-  0.37145     1 3d1+  0.67839     1 3d2+ -0.64577     2 1s    1.78024     2 2px  -0.42168
                                    2 2px  -0.90796     2 2py   0.26302     2 2pz   0.44678     2 3d2- -0.37149     2 3d1+ -0.67836
                                    2 3d2+  0.64576


 Natural orbital dump (state averaged) at molpro section  2140.2    (Orbital set 2)



 **********************************************************************************************************************************
 DATASETS  * FILE   NREC   LENGTH (MB)   RECORD NAMES
              1      20       31.86       500      610      700      900      950      970     1000      129      960     1100   
                                          VAR    BASINP    GEOM    SYMINP    ZMAT    AOBASIS   BASIS     P2S    ABASIS      S 
                                         1400     1410     1200     1210     1080     1600     1650     1300     1700     1380   
                                           T        V       H0       H01     AOSYM     SMH    MOLCAS    ERIS     OPER     JKOP   

              2       5        5.42       700     1000      520     2100     2140   
                                         GEOM     BASIS   MCVARS     RHF     MCSCF   

 PROGRAMS   *        TOTAL     MULTI    HF-SCF       INT
 CPU TIMES  *         0.86      0.31      0.18      0.27
 REAL TIME  *         1.30 SEC
 DISK USED  *        39.04 MB
 **********************************************************************************************************************************
 Molecular orbitals read from record     2140.2  Type=MCSCF/NATURAL (state averaged)
 Occupation numbers read from record     2140.2  Type=MCSCF/NATURAL (state averaged)
 Orbital energies read from record       2140.2  Type=MCSCF/NATURAL (state averaged)
 Redundancy group numbers read from rec  2140.2  Type=MCSCF/NATURAL (state averaged)

 MULTI/6-31G* energy=    -77.549608204256

           MULTI          HF-SCF
    -77.54960820    -77.85431498
 **********************************************************************************************************************************
 Molpro calculation terminated
