
 Primary working directories    : /scratch.local/johan406.molpro_temp/molpro.1pCjbnZOmH
 Secondary working directories  : /scratch.local/johan406.molpro_temp/molpro.1pCjbnZOmH
 Wavefunction directory         : /home/goodpast/johan406/wfu/
 Main file repository           : /scratch.local/johan406.molpro_temp/molpro.1pCjbnZOmH/

 id        : roweumn

 Nodes     nprocs
 cn0391       1

 Using customized tuning parameters: mindgm=1; mindgv=20; mindgc=4; mindgr=1; noblas=0; minvec=7
 default implementation of scratch files=df  


 Variables initialized (934), CPU time= 0.01 sec
                                                                                 !leave this line blank
 
 gprint, orbitals=30
 memory, 125., m
 symmetry, nosym
 nelect=16
 basis=6-31g*
 
 geometry={
 C -0.6313 0.1425 0.29
 C 0.6402 -0.1924 -0.3504
 H -1.2969 0.9137 -0.1022
 H -0.9487 -0.8758 -0.1211
 H 0.9577 0.8259 0.0607
 H 1.3058 -0.9636 0.0417
 }
 
 hf
 {multi,
 closed 7
 occ 9
 wf,spin=0;STATE,3
 }
 
 Commands  initialized (763), CPU time= 0.01 sec, 617 directives.
 Default parameters read. Elapsed time= 0.07 sec

 Checking input...
 Passed
1


                                         ***  PROGRAM SYSTEM MOLPRO  ***
                                       Copyright, TTI GmbH Stuttgart, 2015
                                    Version 2019.2 linked Oct 25 2019 22:50:27


 **********************************************************************************************************************************
 LABEL *                                                                                 
  64 bit serial version                                                                  DATE: 07-Feb-23          TIME: 15:42:02  
 **********************************************************************************************************************************

 SHA1:             8dbd9ae1082e4ce945b0f27595c9eb2d4aa09004
 **********************************************************************************************************************************


 Variable memory set to  125000000 words,  buffer space 

 SETTING NELECT         =        16.00000000                                  
 SETTING BASIS          =    6-31G*
 ZSYMEL=NOSYM


Geometry recognized as XYZ



 Recomputing integrals since basis changed


 Using spherical harmonics

 Library entry C      S 6-31G                selected for orbital group  1
 Library entry C      P 6-31G                selected for orbital group  1
 Library entry C      D 6-31G*               selected for orbital group  1
 Library entry H      S 6-31G                selected for orbital group  2


 PROGRAM * SEWARD (Integral evaluation for generally contracted gaussian basis sets)     Author: Roland Lindh, 1990

 Geometry written to block  1 of record 700


 Point group  C1  



 ATOMIC COORDINATES

 NR  ATOM    CHARGE       X              Y              Z

   1  C       6.00   -1.192984102    0.269285973    0.548020576
   2  C       6.00    1.209802665   -0.363583306   -0.662160034
   3  H       1.00   -2.450785811    1.726642760   -0.193130010
   4  H       1.00   -1.792783174   -1.655022140   -0.228845834
   5  H       1.00    1.809790709    1.560724806    0.114706376
   6  H       1.00    2.467604373   -1.820940094    0.078801579

 Bond lengths in Bohr (Angstrom)

 1-2  2.763773667  1-3  2.062827704  1-4  2.160148619  2-5  2.160201098  2-6  2.062759815
     ( 1.462526041)     ( 1.091601411)     ( 1.143101422)     ( 1.143129192)     ( 1.091565486)

 Bond angles

  1-2-5   83.10882551   1-2-6  122.31789432   2-1-3  122.31398197   2-1-4   83.10426792

  3-1-4  109.31939176   5-2-6  109.31832652

 NUCLEAR CHARGE:                   16
 NUMBER OF PRIMITIVE AOS:          72
 NUMBER OF SYMMETRY AOS:           70
 NUMBER OF CONTRACTIONS:           36   (   36A   )
 NUMBER OF CORE ORBITALS:           2   (    2A   )
 NUMBER OF VALENCE ORBITALS:       12   (   12A   )


 NUCLEAR REPULSION ENERGY   32.28650448

 Eigenvalues of metric

         1 0.970E-02 0.273E-01 0.584E-01 0.641E-01 0.758E-01 0.218E+00 0.240E+00 0.277E+00


 Contracted 2-electron integrals neglected if value below      1.0D-11
 AO integral compression algorithm  1   Integral accuracy      1.0D-11

     1.573 MB (compressed) written to integral file ( 59.0%)


 NUMBER OF SORTED TWO-ELECTRON INTEGRALS:     222111.     BUFFER LENGTH:  32768
 NUMBER OF SEGMENTS:   1  SEGMENT LENGTH:     222111      RECORD LENGTH: 524288

 Memory used in sort:       0.78 MW

 SORT1 READ      284735. AND WROTE      212531. INTEGRALS IN      1 RECORDS. CPU TIME:     0.00 SEC, REAL TIME:     0.01 SEC
 SORT2 READ      212531. AND WROTE      222111. INTEGRALS IN      6 RECORDS. CPU TIME:     0.03 SEC, REAL TIME:     0.02 SEC

 FILE SIZES:   FILE 1:    31.7 MBYTE,  FILE 4:     4.2 MBYTE,   TOTAL:     35.9 MBYTE

 OPERATOR DM      FOR CENTER  0  COORDINATES:    0.000000    0.000000    0.000000


 **********************************************************************************************************************************
 DATASETS  * FILE   NREC   LENGTH (MB)   RECORD NAMES
              1      19       31.13       500      610      700      900      950      970     1000      129      960     1100   
                                          VAR    BASINP    GEOM    SYMINP    ZMAT    AOBASIS   BASIS     P2S    ABASIS      S 
                                         1400     1410     1200     1210     1080     1600     1650     1300     1700   
                                           T        V       H0       H01     AOSYM     SMH    MOLCAS    ERIS     OPER   

 PROGRAMS   *        TOTAL       INT
 CPU TIMES  *         0.39      0.29
 REAL TIME  *         0.63 SEC
 DISK USED  *        36.24 MB
 **********************************************************************************************************************************


 PROGRAM * RHF-SCF (CLOSED SHELL)       Authors: W. Meyer, H.-J. Werner


 NUMBER OF ELECTRONS:       8+    8-    SPACE SYMMETRY=1    SPIN SYMMETRY: Singlet 
 CONVERGENCE THRESHOLDS:    1.00E-05 (Density)    1.00E-07 (Energy)
 MAX. NUMBER OF ITERATIONS:       60
 INTERPOLATION TYPE:            DIIS
 INTERPOLATION STEPS:              2 (START)      1 (STEP)
 LEVEL SHIFTS:                  0.00 (CLOSED)  0.00 (OPEN) 



 Orbital guess generated from atomic densities. Full valence occupancy:    8

 Molecular orbital dump at record        2100.2

 Initial occupancy:   8

 ITERATION    DDIFF          GRAD             ENERGY        2-EL.EN.            DIPOLE MOMENTS         DIIS   ORB.
    1      0.000D+00      0.000D+00       -77.83453623    115.797734    0.00004   -0.00001   -0.00006    0    start
    2      0.000D+00      0.699D-02       -77.85230497    114.777652    0.00002   -0.00001   -0.00003    1    diag
    3      0.749D-02      0.226D-02       -77.85437463    115.193282    0.00004   -0.00003   -0.00006    2    diag
    4      0.296D-02      0.825D-03       -77.85482578    115.066152    0.00003   -0.00002   -0.00004    3    diag
    5      0.162D-02      0.296D-03       -77.85496552    115.073258    0.00005   -0.00003   -0.00006    4    diag
    6      0.102D-02      0.127D-03       -77.85500822    115.074532    0.00001   -0.00000    0.00000    5    diag
    7      0.594D-03      0.422D-04       -77.85501282    115.075823    0.00010   -0.00007   -0.00013    6    diag
    8      0.208D-03      0.120D-04       -77.85501312    115.076179   -0.00005    0.00003    0.00008    7    diag
    9      0.552D-04      0.402D-05       -77.85501314    115.076170    0.00010   -0.00007   -0.00014    8    diag
   10      0.832D-05      0.221D-05       -77.85501314    115.076160   -0.00002    0.00001    0.00003    0    orth

 Final occupancy:   8

 !RHF STATE  1.1 Energy               -77.855013136772
 Nuclear energy                        32.28650448
 One-electron energy                 -167.67959744
 Two-electron energy                   57.53807982
 Virial quotient                       -1.00159383
 !RHF STATE  1.1 Dipole moment         -0.00001739     0.00001221     0.00003337
 Dipole moment /Debye                  -0.00004420     0.00003104     0.00008481

 ELECTRON ORBITALS
 =================

  Orbital  Occupation    Energy     Coefficients
    1.1     2.00000   -11.25922     1 1s    0.71982     2 1s    0.68870
    2.1     2.00000   -11.25838     1 1s    0.68880     2 1s   -0.71992
    3.1     2.00000    -1.03324     1 1s    0.28401     2 1s    0.28400
    4.1     2.00000    -0.78404     1 1s   -0.28800     2 1s    0.28800
    5.1     2.00000    -0.62422     1 2py   0.30793     2 2py   0.30790
    6.1     2.00000    -0.57264     1 2px   0.29453     2 2px  -0.29452
    7.1     2.00000    -0.38563     1 2pz   0.31356     1 2pz   0.29004     2 2pz   0.31339     2 2pz   0.28995
    8.1     2.00000    -0.38435     1 2px   0.27747     2 2px  -0.27724     4 1s   -0.28458     5 1s   -0.28454
    9.1     0.00000     0.07271     1 1s    0.39787     1 2pz   0.33334     1 2pz   0.48050     2 1s    0.39785     2 2pz  -0.33334
                                    2 2pz  -0.48051
   10.1     0.00000     0.23261     1 1s   -1.09049     1 2px   0.47271     1 2py   0.37800     1 2pz   0.40102     2 1s   -1.09037
                                    2 2px  -0.47275     2 2py  -0.37798     2 2pz  -0.40095     3 1s    0.55301     4 1s    1.09173
                                    5 1s    1.09170     6 1s    0.55292
   11.1     0.00000     0.27616     1 1s   -1.48468     1 2py  -0.37630     1 2pz   0.39616     2 1s    1.48470     2 2py  -0.37607
                                    2 2pz   0.39602     3 1s    1.41014     6 1s   -1.40987
   12.1     0.00000     0.31836     1 1s   -0.78567     1 2px   0.42139     1 2py  -1.03510     1 2pz   0.43071     2 1s   -0.78590
                                    2 2px  -0.42130     2 2py   1.03537     2 2pz  -0.43072     3 1s    1.60751     4 1s   -0.42729
                                    5 1s   -0.42768     6 1s    1.60792
   13.1     0.00000     0.33753     1 1s   -1.06425     1 2px   0.28311     1 2py   0.76971     1 2pz   0.30363     2 1s    1.06435
                                    2 2px   0.28329     2 2py   0.76948     2 2pz   0.30375     4 1s    1.70716     5 1s   -1.70697
   14.1     0.00000     0.42624     1 1s    2.01589     1 2px   1.82608     1 2py  -0.66797     1 2pz  -0.78407     2 1s   -2.01575
                                    2 2px   1.82610     2 2py  -0.66809     2 2pz  -0.78407     3 1s    0.70806     6 1s   -0.70827
   15.1     0.00000     0.70894     1 2px  -0.53962     1 2px   0.91791     2 2px   0.53955     2 2px  -0.91797     3 1s    0.26459
                                    4 1s   -0.45090     5 1s   -0.45090     6 1s    0.26469
   16.1     0.00000     0.75293     1 1s   -0.36257     1 2px   0.25631     1 2py  -0.36023     1 2px  -0.72955     1 2py   0.78707
                                    2 1s    0.36248     2 2px   0.25630     2 2py  -0.36006     2 2px  -0.72955     2 2py   0.78676
                                    3 1s   -0.49981     6 1s    0.49979
   17.1     0.00000     0.79875     1 2pz  -0.73968     1 2pz   0.69949     2 2pz  -0.73514     2 2pz   0.69471
   18.1     0.00000     0.79974     1 2py  -0.55506     1 2pz  -0.35924     1 2py   1.22016     1 2pz   0.37478     2 2py   0.55550
                                    2 2pz   0.36833     2 2py  -1.22151     2 2pz  -0.38336     3 1s   -0.28401     4 1s    0.26178
                                    5 1s    0.26372     6 1s   -0.28228
   19.1     0.00000     0.87517     1 1s   -0.39584     1 2px  -0.27260     1 2pz  -0.64213     1 2px   0.51559     1 2py  -0.71796
                                    1 2pz   0.89294     2 1s   -0.39584     2 2px   0.27259     2 2pz   0.64221     2 2px  -0.51561
                                    2 2py   0.71792     2 2pz  -0.89303     3 1s    0.31848     6 1s    0.31850
   20.1     0.00000     0.96993     1 2px   0.68168     1 2py   0.40691     1 2px  -1.01942     1 2py  -0.87831     2 2px   0.68169
                                    2 2py   0.40699     2 2px  -1.01953     2 2py  -0.87846     4 1s   -1.04611     5 1s    1.04603
   21.1     0.00000     1.12411     1 1s   -0.64899     1 1s    1.21104     1 2px   0.27849     1 2py   0.38007     1 2px  -0.37105
                                    1 2py  -0.35239     2 1s   -0.64917     2 1s    1.21194     2 2px  -0.27821     2 2py  -0.38043
                                    2 2px   0.37029     2 2py   0.35310     4 1s    0.67613     4 1s   -1.16495     5 1s    0.67620
                                    5 1s   -1.16532
   22.1     0.00000     1.14689     1 1s    0.34791     1 2px  -0.45190     1 2py   0.55331     1 2px   0.93995     1 2py  -0.95147
                                    2 1s   -0.34722     2 2px  -0.45180     2 2py   0.55283     2 2px   0.94017     2 2py  -0.95130
                                    3 1s   -0.57571     3 1s    1.29566     4 1s   -0.47110     5 1s    0.47017     6 1s    0.57467
                                    6 1s   -1.29499
   23.1     0.00000     1.16893     1 1s   -0.63441     1 2py   0.25881     1 2px  -0.84575     2 1s    0.63558     2 2py   0.25872
                                    2 2px  -0.84549     3 1s    0.25374     3 1s   -0.35013     4 1s    0.81659     4 1s   -0.96352
                                    5 1s   -0.81692     5 1s    0.96319     6 1s   -0.25455     6 1s    0.35010
   24.1     0.00000     1.18073     1 1s   -0.39358     1 2pz   0.41237     2 1s   -0.39473     2 2pz  -0.41268     3 1s    0.87816
                                    3 1s   -0.39314     6 1s    0.87852     6 1s   -0.39398
   25.1     0.00000     1.21092     1 1s   -1.29932     1 1s    2.29581     1 2py  -0.33620     1 2px  -0.63180     1 2py   0.70081
                                    1 2pz  -0.84852     2 1s   -1.29909     2 1s    2.29453     2 2py   0.33627     2 2px   0.63263
                                    2 2py  -0.70129     2 2pz   0.84812     3 1s   -1.36148     4 1s   -0.32469     4 1s   -0.29179
                                    5 1s   -0.32441     5 1s   -0.29178     6 1s   -1.36193
   26.1     0.00000     1.26762     1 1s   -1.62933     1 1s    4.96453     1 2px   1.16753     1 2py  -0.78847     1 2pz  -1.12572
                                    2 1s    1.62942     2 1s   -4.96459     2 2px   1.16745     2 2py  -0.78841     2 2pz  -1.12568
                                    3 1s   -0.48578     4 1s   -0.76718     5 1s    0.76696     6 1s    0.48612
   27.1     0.00000     1.69748     1 1s    0.59428     1 3d0   0.34739     1 3d2- -0.29928     1 3d2+ -0.32278     2 1s   -0.59425
                                    2 3d0  -0.34731     2 3d2-  0.29924     2 3d2+  0.32283
   28.1     0.00000     1.93428     1 1s    0.28153     1 1s   -0.64930     1 2pz   0.32800     1 3d0   0.33736     1 3d1+  0.34259
                                    1 3d2+  0.34301     1 3d1-  0.34674     2 1s    0.28166     2 1s   -0.64982     2 2pz  -0.32809
                                    2 3d0   0.33743     2 3d1+  0.34221     2 3d2+  0.34283     2 3d1-  0.34639     3 1s    0.29336
                                    6 1s    0.29339
   29.1     0.00000     1.94261     1 1s    1.05751     1 2pz  -0.25975     1 3d2- -0.30388     1 3d1+  0.40954     1 3d1-  0.38915
                                    2 1s   -1.05692     2 2pz  -0.25945     2 3d2-  0.30390     2 3d1+ -0.40983     2 3d1- -0.38945
                                    3 1s   -0.31777     6 1s    0.31759
   30.1     0.00000     2.20828     1 1s    0.30799     1 1s   -1.45419     1 2px  -0.32372     1 2py   0.25821     1 2pz   0.37280
                                    1 3d0   0.57012     1 3d2+  0.36321     2 1s   -0.30786     2 1s    1.45413     2 2px  -0.32360
                                    2 2py   0.25819     2 2pz   0.37278     2 3d0  -0.57011     2 3d2+ -0.36332     3 1s    0.38022
                                    4 1s    0.33002     5 1s   -0.33007     6 1s   -0.38023
   31.1     0.00000     2.23800     1 1s    0.51959     1 1s   -0.34564     1 2px   0.27652     1 2px  -0.31595     1 3d1+  0.37916
                                    1 3d2+ -0.38202     2 1s    0.51968     2 1s   -0.34606     2 2px  -0.27652     2 2px   0.31609
                                    2 3d1+  0.37919     2 3d2+ -0.38192
   32.1     0.00000     2.34159     1 2py   0.36061     1 3d0   0.49650     1 3d2- -0.40075     1 3d1- -0.32791     2 2py  -0.36059
                                    2 3d0   0.49646     2 3d2- -0.40082     2 3d1- -0.32790     4 1s    0.42718     5 1s    0.42714
   33.1     0.00000     2.55507     1 1s   -0.58302     1 2px  -0.32220     1 2py   0.36895     1 3d2- -0.46369     1 3d1- -0.59360
                                    2 1s    0.58303     2 2px  -0.32209     2 2py   0.36905     2 3d2-  0.46352     2 3d1-  0.59370
                                    3 1s   -0.46037     4 1s    0.42905     5 1s   -0.42915     6 1s    0.46028
   34.1     0.00000     2.64386     1 2py   0.34552     1 3d2-  0.36335     1 3d2+  0.54791     1 3d1- -0.52432     2 2py  -0.34540
                                    2 3d2-  0.36347     2 3d2+  0.54788     2 3d1- -0.52413     4 1s    0.38778     5 1s    0.38761
   35.1     0.00000     2.75812     1 3d0   0.40871     1 3d2-  0.56006     1 3d1+ -0.48508     2 3d0   0.40874     2 3d2-  0.56017
                                    2 3d1+ -0.48517     3 1s    0.50411     6 1s    0.50429
   36.1     0.00000     2.95724     1 1s   -1.75135     1 2px  -0.42648     1 2px  -0.89781     1 2py   0.25630     1 2pz   0.43813
                                    1 3d2-  0.37706     1 3d1+  0.67232     1 3d2+ -0.64920     2 1s    1.75136     2 2px  -0.42647
                                    2 2px  -0.89781     2 2py   0.25630     2 2pz   0.43814     2 3d2- -0.37711     2 3d1+ -0.67230
                                    2 3d2+  0.64920


 HOMO      8.1    -0.384351 =     -10.4587eV
 LUMO      9.1     0.072709 =       1.9785eV
 LUMO-HOMO         0.457060 =      12.4372eV


 **********************************************************************************************************************************
 DATASETS  * FILE   NREC   LENGTH (MB)   RECORD NAMES
              1      19       31.13       500      610      700      900      950      970     1000      129      960     1100   
                                          VAR    BASINP    GEOM    SYMINP    ZMAT    AOBASIS   BASIS     P2S    ABASIS      S 
                                         1400     1410     1200     1210     1080     1600     1650     1300     1700   
                                           T        V       H0       H01     AOSYM     SMH    MOLCAS    ERIS     OPER   

              2       4        2.86       700     1000      520     2100   
                                         GEOM     BASIS   MCVARS     RHF  

 PROGRAMS   *        TOTAL    HF-SCF       INT
 CPU TIMES  *         0.53      0.14      0.29
 REAL TIME  *         1.00 SEC
 DISK USED  *        36.24 MB
 **********************************************************************************************************************************


 PROGRAM * MULTI (Direct Multiconfiguration SCF)       Authors: P.J. Knowles, H.-J. Werner (1984)


 Number of closed-shell orbitals:   7 (   7 )
 Number of active  orbitals:        2 (   2 )
 Number of external orbitals:      27 (  27 )

 State symmetry 1

 Number of electrons:     2    Spin symmetry=Singlet   Space symmetry=1
 Number of states:        3
 Number of CSFs:          3   (4 determinants, 4 intermediate states)

 Molecular orbitals read from record     2100.2  Type=RHF/CANONICAL (state 1.1)

 Wavefunction dump at record             2140.2

 Convergence thresholds  0.10E-01 (gradient)  0.10E-05 (energy)  0.10E-02 (step length)

 Weight factors for state symmetry  1:    0.33333   0.33333   0.33333

 Number of orbital rotations:      257   (    14 Core/Active    189 Core/Virtual   0 Active/Active     54 Active/Virtual)
 Total number of variables:        269

 Micro-Iterations solved by the two-step solver

 ITER. MIC  NCI  NEG     ENERGY(VAR)     ENERGY(PROJ)   ENERGY CHANGE     GRAD(0)  GRAD(ORB)   GRAD(CI)     STEP       TIME

   1    6    5    0     -77.69310066     -77.71286014   -0.01975947    0.16756408 0.00144518 0.00000000  0.14D+00      0.10
   2    5    5    0     -77.71254053     -77.71256024   -0.00001971    0.00652975 0.00000314 0.00000000  0.46D-02      0.19
   3    4    4    0     -77.71256027     -77.71256027   -0.00000000    0.00001271 0.00000000 0.00000000  0.18D-04      0.26

 ** WVFN ****  CONVERGENCE REACHED, FINAL GRADIENT:  0.15D-09



 Results for state 1.1
 =====================

 !MCSCF STATE  1.1 Energy             -77.848593029648
 Nuclear energy                        32.28650448
 Kinetic energy                        77.78708674
 One electron energy                 -167.75472046
 Two electron energy                   57.61962296
 Virial ratio                           2.00079070

 !MCSCF STATE  1.1 Dipole moment        0.00002959    -0.00002151    -0.00005200
 Dipole moment /Debye                   0.00007521    -0.00005466    -0.00013217

 Results for state 2.1
 =====================

 !MCSCF STATE  2.1 Energy             -77.740047374210
 Nuclear energy                        32.28650448
 Kinetic energy                        77.85652552
 One electron energy                 -167.45392533
 Two electron energy                   57.42737348
 Virial ratio                           1.99850394

 !MCSCF STATE  2.1 Dipole moment        0.00005274    -0.00003472    -0.00003825
 Dipole moment /Debye                   0.00013405    -0.00008824    -0.00009720

 Results for state 3.1
 =====================

 !MCSCF STATE  3.1 Energy             -77.549040410749
 Nuclear energy                        32.28650448
 Kinetic energy                        77.91431625
 One electron energy                 -167.19003531
 Two electron energy                   57.35449042
 Virial ratio                           1.99531183

 !MCSCF STATE  3.1 Dipole moment        0.00007352    -0.00003702    -0.00001478
 Dipole moment /Debye                   0.00018686    -0.00009409    -0.00003755

 State-averaged charge density matrix saved on record  2140.2 (density set 1)

 !MCSCF expec         <1.1|DMX|1.1>     0.000029593077 au =     0.000075213172 Debye
 !MCSCF trans         <2.1|DMX|1.1>     0.000005553802 au =     0.000014115433 Debye
 !MCSCF expec         <2.1|DMX|2.1>     0.000052742388 au =     0.000134049000 Debye
 !MCSCF trans         <3.1|DMX|1.1>    -0.000002350022 au =    -0.000005972768 Debye
 !MCSCF trans         <3.1|DMX|2.1>     0.000007463797 au =     0.000018969837 Debye
 !MCSCF expec         <3.1|DMX|3.1>     0.000073520927 au =     0.000186859318 Debye

 !MCSCF expec         <1.1|DMY|1.1>    -0.000021505557 au =    -0.000054658095 Debye
 !MCSCF trans         <2.1|DMY|1.1>    -0.000028505213 au =    -0.000072448280 Debye
 !MCSCF expec         <2.1|DMY|2.1>    -0.000034718308 au =    -0.000088239358 Debye
 !MCSCF trans         <3.1|DMY|1.1>     0.000002515528 au =     0.000006393416 Debye
 !MCSCF trans         <3.1|DMY|2.1>    -0.000031654615 au =    -0.000080452737 Debye
 !MCSCF expec         <3.1|DMY|3.1>    -0.000037020306 au =    -0.000094090069 Debye

 !MCSCF expec         <1.1|DMZ|1.1>    -0.000052001529 au =    -0.000132166046 Debye
 !MCSCF trans         <2.1|DMZ|1.1>    -0.000026183823 au =    -0.000066548280 Debye
 !MCSCF expec         <2.1|DMZ|2.1>    -0.000038245643 au =    -0.000097204361 Debye
 !MCSCF trans         <3.1|DMZ|1.1>    -0.000000029934 au =    -0.000000076079 Debye
 !MCSCF trans         <3.1|DMZ|2.1>    -0.000027445313 au =    -0.000069754459 Debye
 !MCSCF expec         <3.1|DMZ|3.1>    -0.000014775842 au =    -0.000037553986 Debye


 NATURAL ORBITALS (state averaged)
 =================================

  Orbital  Occupation    Energy     Coefficients
    1.1     2.00000   -11.25378     1 1s    0.70478     2 1s    0.70406
    2.1     2.00000   -11.25305     1 1s    0.70411     2 1s   -0.70484
    3.1     2.00000    -1.04553     1 1s    0.27886     2 1s    0.27886
    4.1     2.00000    -0.78353     1 1s   -0.31415     2 1s    0.31415
    5.1     2.00000    -0.62725     1 2py   0.30130     2 2py   0.30131
    6.1     2.00000    -0.57036     1 2px   0.25747     2 2px  -0.25745
    7.1     2.00000    -0.41375     1 2pz   0.33022     1 2pz   0.28464     2 2pz   0.33021     2 2pz   0.28464
    8.1     1.00000    -0.07803     1 1s    0.25793     1 2pz   0.40897     1 2pz   0.43987     2 1s    0.25791     2 2pz  -0.40898
                                    2 2pz  -0.43988
    9.1     1.00000    -0.22702     1 2px   0.31040     2 2px  -0.31039     4 1s   -0.29367     5 1s   -0.29366
   10.1    -0.00000     0.22004     1 1s   -1.09797     1 2px   0.46874     1 2py   0.39480     1 2pz   0.34209     2 1s   -1.09792
                                    2 2px  -0.46881     2 2py  -0.39479     2 2pz  -0.34204     3 1s    0.52059     4 1s    1.10090
                                    5 1s    1.10093     6 1s    0.52057
   11.1    -0.00000     0.27582     1 1s   -1.55762     1 2py  -0.32418     1 2pz   0.40692     2 1s    1.55766     2 2py  -0.32410
                                    2 2pz   0.40684     3 1s    1.40404     6 1s   -1.40396
   12.1    -0.00000     0.32066     1 1s   -0.84553     1 2px   0.42394     1 2py  -1.02579     1 2pz   0.40466     2 1s   -0.84126
                                    2 2px  -0.42334     2 2py   1.02935     2 2pz  -0.40332     3 1s    1.62716     4 1s   -0.38081
                                    5 1s   -0.38790     6 1s    1.62788
   13.1    -0.00000     0.32190     1 1s   -1.09873     1 2py   0.85628     1 2pz   0.32758     2 1s    1.10206     2 2py   0.85206
                                    2 2pz   0.32925     4 1s    1.72761     5 1s   -1.72588
   14.1    -0.00000     0.43168     1 1s    1.87185     1 2px   1.83542     1 2py  -0.55691     1 2pz  -0.72614     2 1s   -1.87173
                                    2 2px   1.83545     2 2py  -0.55702     2 2pz  -0.72615     3 1s    0.70719     6 1s   -0.70739
   15.1    -0.00000     0.70469     1 2px  -0.52256     1 2px   0.89206     2 2px   0.52255     2 2px  -0.89218     3 1s    0.26205
                                    4 1s    0.27544     4 1s   -0.50428     5 1s    0.27543     5 1s   -0.50424     6 1s    0.26215
   16.1    -0.00000     0.75208     1 1s   -0.45960     1 2px   0.25351     1 2py  -0.35302     1 2px  -0.77619     1 2py   0.80634
                                    2 1s    0.45944     2 2px   0.25348     2 2py  -0.35295     2 2px  -0.77618     2 2py   0.80624
                                    3 1s   -0.49756     6 1s    0.49755
   17.1    -0.00000     0.79774     1 1s   -0.36907     1 2pz  -0.73315     1 2pz   0.76209     2 1s    0.37002     2 2pz  -0.73138
                                    2 2pz   0.75986
   18.1    -0.00000     0.79868     1 2py  -0.52802     1 2pz  -0.35966     1 2py   1.18920     1 2pz   0.45364     2 2py   0.52816
                                    2 2pz   0.36332     2 2py  -1.18990     2 2pz  -0.45741     4 1s    0.26127     5 1s    0.26205
   19.1    -0.00000     0.87274     1 1s   -0.35875     1 2px  -0.28824     1 2pz  -0.61390     1 2px   0.55431     1 2py  -0.73334
                                    1 2pz   0.93639     2 1s   -0.35873     2 2px   0.28823     2 2pz   0.61386     2 2px  -0.55433
                                    2 2py   0.73332     2 2pz  -0.93635     3 1s    0.36759     6 1s    0.36761
   20.1    -0.00000     0.97545     1 2px   0.67676     1 2py   0.40759     1 2px  -0.92429     1 2py  -0.89530     2 2px   0.67677
                                    2 2py   0.40767     2 2px  -0.92440     2 2py  -0.89542     4 1s   -0.99614     5 1s    0.99614
   21.1    -0.00000     1.09714     1 1s   -0.58677     1 1s    1.08296     1 2px   0.30027     1 2py   0.40791     1 2px  -0.35235
                                    1 2py  -0.41914     2 1s   -0.58703     2 1s    1.08362     2 2px  -0.30011     2 2py  -0.40821
                                    2 2px   0.35207     2 2py   0.41962     4 1s    0.68863     4 1s   -1.12387     5 1s    0.68896
                                    5 1s   -1.12447
   22.1    -0.00000     1.12846     1 2py   0.50422     1 2px  -0.31337     1 2py  -0.52904     2 2py   0.50395     2 2px  -0.31307
                                    2 2py  -0.52893     4 1s    0.79271     4 1s   -1.14377     5 1s   -0.79248     5 1s    1.14298
   23.1    -0.00000     1.15290     1 1s    0.68612     1 2px  -0.48434     1 2py   0.35959     1 2px   1.27355     1 2py  -0.81737
                                    2 1s   -0.68607     2 2px  -0.48428     2 2py   0.35939     2 2px   1.27359     2 2py  -0.81733
                                    3 1s   -0.62473     3 1s    1.30246     6 1s    0.62421     6 1s   -1.30204
   24.1    -0.00000     1.17986     1 1s    0.42174     1 1s   -0.93016     1 2px   0.25932     1 2pz   0.59217     2 1s    0.42233
                                    2 1s   -0.93196     2 2px  -0.25850     2 2pz  -0.59257     3 1s    0.84913     4 1s    0.34236
                                    5 1s    0.34298     6 1s    0.84941
   25.1    -0.00000     1.21069     1 1s   -1.27503     1 1s    2.21193     1 2py  -0.36491     1 2px  -0.59974     1 2py   0.66750
                                    1 2pz  -0.72576     2 1s   -1.27485     2 1s    2.21095     2 2py   0.36500     2 2px   0.60040
                                    2 2py  -0.66791     2 2pz   0.72543     3 1s   -1.41315     4 1s   -0.25417     4 1s   -0.28392
                                    5 1s   -0.25402     5 1s   -0.28384     6 1s   -1.41354
   26.1    -0.00000     1.26188     1 1s   -1.63196     1 1s    4.97149     1 2px   1.17708     1 2py  -0.73315     1 2pz  -1.10723
                                    2 1s    1.63191     2 1s   -4.97130     2 2px   1.17706     2 2py  -0.73316     2 2pz  -1.10709
                                    3 1s   -0.52039     4 1s   -0.69783     5 1s    0.69758     6 1s    0.52060
   27.1    -0.00000     1.69209     1 1s    0.61504     1 3d0   0.34123     1 3d2- -0.30322     1 3d2+ -0.32494     2 1s   -0.61501
                                    2 3d0  -0.34117     2 3d2-  0.30319     2 3d2+  0.32499
   28.1    -0.00000     1.93136     1 1s    0.27202     1 1s   -0.63979     1 2pz   0.32291     1 3d0   0.33503     1 3d1+  0.33720
                                    1 3d2+  0.35016     1 3d1-  0.34595     2 1s    0.27184     2 1s   -0.63896     2 2pz  -0.32267
                                    2 3d0   0.33503     2 3d1+  0.33738     2 3d2+  0.35022     2 3d1-  0.34613     3 1s    0.29188
                                    6 1s    0.29193
   29.1    -0.00000     1.93969     1 1s    1.02775     1 2pz  -0.25184     1 3d2- -0.30139     1 3d1+  0.41266     1 3d1-  0.38764
                                    2 1s   -1.02802     2 2pz  -0.25198     2 3d2-  0.30133     2 3d1+ -0.41249     2 3d1- -0.38748
                                    3 1s   -0.31975     6 1s    0.31988
   30.1    -0.00000     2.20796     1 1s    0.31168     1 1s   -1.44188     1 2px  -0.31746     1 2py   0.26031     1 2pz   0.36716
                                    1 3d0   0.57295     1 3d2+  0.36651     2 1s   -0.31155     2 1s    1.44180     2 2px  -0.31736
                                    2 2py   0.26032     2 2pz   0.36712     2 3d0  -0.57295     2 3d2+ -0.36661     3 1s    0.37906
                                    4 1s    0.32500     5 1s   -0.32508     6 1s   -0.37906
   31.1    -0.00000     2.23511     1 1s    0.51620     1 1s   -0.35084     1 2px   0.28285     1 2px  -0.30866     1 3d2-  0.25353
                                    1 3d1+  0.38991     1 3d2+ -0.38334     2 1s    0.51629     2 1s   -0.35128     2 2px  -0.28284
                                    2 2px   0.30881     2 3d2-  0.25353     2 3d1+  0.38995     2 3d2+ -0.38325
   32.1    -0.00000     2.33428     1 2py   0.38034     1 3d0   0.49821     1 3d2- -0.39691     1 3d1- -0.34485     2 2py  -0.38033
                                    2 3d0   0.49814     2 3d2- -0.39701     2 3d1- -0.34488     3 1s   -0.25558     4 1s    0.41878
                                    5 1s    0.41875     6 1s   -0.25565
   33.1    -0.00000     2.54916     1 1s   -0.57060     1 2px  -0.31506     1 2py   0.36944     1 3d2- -0.46684     1 3d1- -0.59494
                                    2 1s    0.57061     2 2px  -0.31494     2 2py   0.36955     2 3d2-  0.46665     2 3d1-  0.59506
                                    3 1s   -0.46424     4 1s    0.41954     5 1s   -0.41965     6 1s    0.46416
   34.1    -0.00000     2.63556     1 2py   0.34846     1 3d2-  0.37843     1 3d2+  0.54241     1 3d1- -0.52327     2 2py  -0.34831
                                    2 3d2-  0.37856     2 3d2+  0.54237     2 3d1- -0.52303     4 1s    0.37564     5 1s    0.37544
   35.1    -0.00000     2.76202     1 3d0   0.41750     1 3d2-  0.54570     1 3d1+ -0.49059     2 3d0   0.41752     2 3d2-  0.54578
                                    2 3d1+ -0.49066     3 1s    0.50266     6 1s    0.50280
   36.1    -0.00000     2.95258     1 1s   -1.78325     1 2px  -0.42044     1 2px  -0.91078     1 2py   0.26500     1 2pz   0.44625
                                    1 3d2-  0.37511     1 3d1+  0.67538     1 3d2+ -0.64616     2 1s    1.78326     2 2px  -0.42044
                                    2 2px  -0.91078     2 2py   0.26500     2 2pz   0.44626     2 3d2- -0.37516     2 3d1+ -0.67534
                                    2 3d2+  0.64614


 Natural orbital dump (state averaged) at molpro section  2140.2    (Orbital set 2)



 **********************************************************************************************************************************
 DATASETS  * FILE   NREC   LENGTH (MB)   RECORD NAMES
              1      20       31.86       500      610      700      900      950      970     1000      129      960     1100   
                                          VAR    BASINP    GEOM    SYMINP    ZMAT    AOBASIS   BASIS     P2S    ABASIS      S 
                                         1400     1410     1200     1210     1080     1600     1650     1300     1700     1380   
                                           T        V       H0       H01     AOSYM     SMH    MOLCAS    ERIS     OPER     JKOP   

              2       5        5.42       700     1000      520     2100     2140   
                                         GEOM     BASIS   MCVARS     RHF     MCSCF   

 PROGRAMS   *        TOTAL     MULTI    HF-SCF       INT
 CPU TIMES  *         0.87      0.34      0.14      0.29
 REAL TIME  *         1.56 SEC
 DISK USED  *        39.04 MB
 **********************************************************************************************************************************
 Molecular orbitals read from record     2140.2  Type=MCSCF/NATURAL (state averaged)
 Occupation numbers read from record     2140.2  Type=MCSCF/NATURAL (state averaged)
 Orbital energies read from record       2140.2  Type=MCSCF/NATURAL (state averaged)
 Redundancy group numbers read from rec  2140.2  Type=MCSCF/NATURAL (state averaged)

 MULTI/6-31G* energy=    -77.549040410749

           MULTI          HF-SCF
    -77.54904041    -77.85501314
 **********************************************************************************************************************************
 Molpro calculation terminated
