
 Primary working directories    : /scratch.local/johan406.molpro_temp/molpro.s1UfARjLWN
 Secondary working directories  : /scratch.local/johan406.molpro_temp/molpro.s1UfARjLWN
 Wavefunction directory         : /home/goodpast/johan406/wfu/
 Main file repository           : /scratch.local/johan406.molpro_temp/molpro.s1UfARjLWN/

 id        : roweumn

 Nodes     nprocs
 acn09        1

 Using customized tuning parameters: mindgm=1; mindgv=20; mindgc=4; mindgr=1; noblas=0; minvec=7
 default implementation of scratch files=df  


 Variables initialized (934), CPU time= 0.00 sec
                                                                                 !leave this line blank
 
 gprint, orbitals=30
 memory, 125., m
 symmetry, nosym
 nelect=16
 basis=6-31g*
 
 geometry={
 C -0.631 0.1438 0.3017
 C 0.6308 -0.1815 -0.356
 H -1.2975 0.8584 -0.1884
 H -0.8771 -0.892 -0.1435
 H 1.0562 0.7904 0.071
 H 1.2456 -0.9843 0.0611
 }
 
 hf
 {multi,
 closed 7
 occ 9
 wf,spin=0;STATE,3
 }
 
 Commands  initialized (763), CPU time= 0.01 sec, 617 directives.
 Default parameters read. Elapsed time= 0.08 sec

 Checking input...
 Passed
1


                                         ***  PROGRAM SYSTEM MOLPRO  ***
                                       Copyright, TTI GmbH Stuttgart, 2015
                                    Version 2019.2 linked Oct 25 2019 22:50:27


 **********************************************************************************************************************************
 LABEL *                                                                                 
  64 bit serial version                                                                  DATE: 07-Feb-23          TIME: 14:50:22  
 **********************************************************************************************************************************

 SHA1:             8dbd9ae1082e4ce945b0f27595c9eb2d4aa09004
 **********************************************************************************************************************************


 Variable memory set to  125000000 words,  buffer space 

 SETTING NELECT         =        16.00000000                                  
 SETTING BASIS          =    6-31G*
 ZSYMEL=NOSYM


Geometry recognized as XYZ



 Recomputing integrals since basis changed


 Using spherical harmonics

 Library entry C      S 6-31G                selected for orbital group  1
 Library entry C      P 6-31G                selected for orbital group  1
 Library entry C      D 6-31G*               selected for orbital group  1
 Library entry H      S 6-31G                selected for orbital group  2


 PROGRAM * SEWARD (Integral evaluation for generally contracted gaussian basis sets)     Author: Roland Lindh, 1990

 Geometry written to block  1 of record 700


 Point group  C1  



 ATOMIC COORDINATES

 NR  ATOM    CHARGE       X              Y              Z

   1  C       6.00   -1.192417185    0.271742617    0.570130372
   2  C       6.00    1.192039239   -0.342985292   -0.672742500
   3  H       1.00   -2.451919647    1.622140905   -0.356024402
   4  H       1.00   -1.657478784   -1.685635703   -0.271175699
   5  H       1.00    1.995928733    1.493639529    0.134170555
   6  H       1.00    2.353842861   -1.860057424    0.115462266

 Bond lengths in Bohr (Angstrom)

 1-2  2.758306693  1-3  2.065837519  1-4  2.180689818  2-5  2.161142690  2-6  2.067017722
     ( 1.459633043)     ( 1.093194136)     ( 1.153971356)     ( 1.143627461)     ( 1.093818673)

 Bond angles

  1-2-5   87.93232787   1-2-6  118.53102291   2-1-3  118.08104995   2-1-4   79.07515387

  3-1-4  106.48460439   5-2-6  105.80012383

 NUCLEAR CHARGE:                   16
 NUMBER OF PRIMITIVE AOS:          72
 NUMBER OF SYMMETRY AOS:           70
 NUMBER OF CONTRACTIONS:           36   (   36A   )
 NUMBER OF CORE ORBITALS:           2   (    2A   )
 NUMBER OF VALENCE ORBITALS:       12   (   12A   )


 NUCLEAR REPULSION ENERGY   32.34071368

 Eigenvalues of metric

         1 0.932E-02 0.275E-01 0.597E-01 0.644E-01 0.806E-01 0.218E+00 0.237E+00 0.272E+00


 Contracted 2-electron integrals neglected if value below      1.0D-11
 AO integral compression algorithm  1   Integral accuracy      1.0D-11

     1.573 MB (compressed) written to integral file ( 59.2%)


 NUMBER OF SORTED TWO-ELECTRON INTEGRALS:     222111.     BUFFER LENGTH:  32768
 NUMBER OF SEGMENTS:   1  SEGMENT LENGTH:     222111      RECORD LENGTH: 524288

 Memory used in sort:       0.78 MW

 SORT1 READ      284735. AND WROTE      212531. INTEGRALS IN      1 RECORDS. CPU TIME:     0.00 SEC, REAL TIME:     0.00 SEC
 SORT2 READ      212531. AND WROTE      222111. INTEGRALS IN      6 RECORDS. CPU TIME:     0.02 SEC, REAL TIME:     0.02 SEC

 FILE SIZES:   FILE 1:    31.7 MBYTE,  FILE 4:     4.2 MBYTE,   TOTAL:     35.9 MBYTE

 OPERATOR DM      FOR CENTER  0  COORDINATES:    0.000000    0.000000    0.000000


 **********************************************************************************************************************************
 DATASETS  * FILE   NREC   LENGTH (MB)   RECORD NAMES
              1      19       31.13       500      610      700      900      950      970     1000      129      960     1100   
                                          VAR    BASINP    GEOM    SYMINP    ZMAT    AOBASIS   BASIS     P2S    ABASIS      S 
                                         1400     1410     1200     1210     1080     1600     1650     1300     1700   
                                           T        V       H0       H01     AOSYM     SMH    MOLCAS    ERIS     OPER   

 PROGRAMS   *        TOTAL       INT
 CPU TIMES  *         0.28      0.17
 REAL TIME  *         0.44 SEC
 DISK USED  *        36.24 MB
 **********************************************************************************************************************************


 PROGRAM * RHF-SCF (CLOSED SHELL)       Authors: W. Meyer, H.-J. Werner


 NUMBER OF ELECTRONS:       8+    8-    SPACE SYMMETRY=1    SPIN SYMMETRY: Singlet 
 CONVERGENCE THRESHOLDS:    1.00E-05 (Density)    1.00E-07 (Energy)
 MAX. NUMBER OF ITERATIONS:       60
 INTERPOLATION TYPE:            DIIS
 INTERPOLATION STEPS:              2 (START)      1 (STEP)
 LEVEL SHIFTS:                  0.00 (CLOSED)  0.00 (OPEN) 



 Orbital guess generated from atomic densities. Full valence occupancy:    8

 Molecular orbital dump at record        2100.2

 Initial occupancy:   8

 ITERATION    DDIFF          GRAD             ENERGY        2-EL.EN.            DIPOLE MOMENTS         DIIS   ORB.
    1      0.000D+00      0.000D+00       -77.82608836    115.878419    0.04430   -0.05633   -0.07499    0    start
    2      0.000D+00      0.705D-02       -77.84409579    114.866009    0.01187    0.00482   -0.01345    1    diag
    3      0.762D-02      0.232D-02       -77.84617726    115.275764    0.04920   -0.01956   -0.06699    2    diag
    4      0.299D-02      0.938D-03       -77.84664243    115.162895    0.02427   -0.00043   -0.02800    3    diag
    5      0.164D-02      0.407D-03       -77.84674667    115.151202    0.03908   -0.00949   -0.04931    4    diag
    6      0.602D-03      0.234D-03       -77.84682559    115.160171    0.03604   -0.00739   -0.04392    5    diag
    7      0.691D-03      0.100D-03       -77.84685427    115.161114    0.03664   -0.00865   -0.04475    6    diag
    8      0.504D-03      0.312D-04       -77.84685676    115.162200    0.03647   -0.00879   -0.04464    7    diag
    9      0.154D-03      0.979D-05       -77.84685695    115.162409    0.03633   -0.00897   -0.04463    8    diag
   10      0.424D-04      0.292D-05       -77.84685696    115.162401    0.03627   -0.00898   -0.04461    9    orth
   11      0.943D-05      0.648D-06       -77.84685696    115.162401    0.03626   -0.00899   -0.04462    0    orth

 Final occupancy:   8

 !RHF STATE  1.1 Energy               -77.846856962378
 Nuclear energy                        32.34071368
 One-electron energy                 -167.76877105
 Two-electron energy                   57.58120041
 Virial quotient                       -1.00136370
 !RHF STATE  1.1 Dipole moment          0.03626077    -0.00898529    -0.04461571
 Dipole moment /Debye                   0.09215964    -0.02283683    -0.11339440

 ELECTRON ORBITALS
 =================

  Orbital  Occupation    Energy     Coefficients
    1.1     2.00000   -11.26388     2 1s    0.99436
    2.1     2.00000   -11.25705     1 1s    0.99436
    3.1     2.00000    -1.03749     1 1s    0.28045     2 1s    0.28536     2 1s    0.25259
    4.1     2.00000    -0.78356     1 1s   -0.29407     2 1s    0.29334
    5.1     2.00000    -0.62183     1 2py   0.30105     2 2py   0.31233
    6.1     2.00000    -0.56137     1 2px   0.30939     2 2px  -0.28961
    7.1     2.00000    -0.39235     1 2pz   0.31460     1 2pz   0.28577     2 2pz   0.29869     2 2pz   0.28052
    8.1     2.00000    -0.38564     1 2px   0.28163     2 2px  -0.25477     4 1s   -0.29920     5 1s   -0.27317
    9.1     0.00000     0.06293     1 1s   -0.40263     1 2pz  -0.32653     1 2pz  -0.46072     2 1s   -0.39427     2 2pz   0.33441
                                    2 2pz   0.47420
   10.1     0.00000     0.23057     1 1s   -0.99148     1 2px   0.46363     1 2py   0.44613     1 2pz   0.42088     2 1s   -1.18154
                                    2 2px  -0.48788     2 2py  -0.27575     2 2pz  -0.43148     3 1s    0.48221     4 1s    1.11784
                                    5 1s    1.04248     6 1s    0.65021
   11.1     0.00000     0.28190     1 1s   -1.62373     1 2py  -0.28320     1 2pz   0.52613     2 1s    1.49411     2 2py  -0.42086
                                    2 2pz   0.39390     3 1s    1.47593     6 1s   -1.40825
   12.1     0.00000     0.31235     1 1s   -0.90571     1 2px   0.43156     1 2py  -0.89492     1 2pz   0.50978     2 1s   -0.58005
                                    2 2px  -0.33290     2 2py   1.12043     2 2pz  -0.38019     3 1s    1.54318     5 1s   -0.63954
                                    6 1s    1.54202
   13.1     0.00000     0.33466     1 1s   -0.91024     1 2py   0.82819     2 1s    1.15396     2 2px   0.42098     2 2py   0.66873
                                    2 2pz   0.40727     4 1s    1.69432     5 1s   -1.66442
   14.1     0.00000     0.42381     1 1s    2.04091     1 2px   1.79731     1 2py  -0.60559     1 2pz  -0.77262     2 1s   -2.02531
                                    2 2px   1.77049     2 2py  -0.64952     2 2pz  -0.80866     3 1s    0.62499     6 1s   -0.61394
   15.1     0.00000     0.70351     1 2px  -0.55394     1 2px   0.92168     2 2px   0.54710     2 2px  -0.94408     4 1s   -0.49288
                                    5 1s   -0.35613
   16.1     0.00000     0.76031     1 1s   -0.25988     1 2py  -0.42895     1 2px  -0.67314     1 2py   0.85348     2 1s    0.34302
                                    2 2py  -0.33068     2 2px  -0.54754     2 2py   0.72206     3 1s   -0.50014     4 1s    0.26019
                                    6 1s    0.46572
   17.1     0.00000     0.78871     1 2py   0.56754     1 2pz   0.41199     1 2py  -1.17877     1 2pz  -0.40591     2 1s   -0.33276
                                    2 2py  -0.56640     2 2py   1.19989     4 1s   -0.32434
   18.1     0.00000     0.80057     1 2pz  -0.61434     1 2pz   0.57449     2 2pz  -0.80855     2 2py   0.41818     2 2pz   0.78439
   19.1     0.00000     0.86419     1 1s   -0.37402     1 2pz  -0.72433     1 2px   0.49175     1 2py  -0.51504     1 2pz   0.99103
                                    2 1s   -0.33557     2 2pz   0.64985     2 2px  -0.41481     2 2py   0.53529     2 2pz  -0.92625
   20.1     0.00000     0.97329     1 1s    0.25703     1 2px  -0.70704     1 2py  -0.36014     1 2px   1.07105     1 2py   0.70451
                                    2 1s   -0.25980     2 2px  -0.72297     2 2py  -0.38054     2 2px   1.24730     2 2py   0.82804
                                    4 1s    1.05962     5 1s   -1.02523
   21.1     0.00000     1.11103     1 1s   -0.53770     1 1s    0.76185     1 2py   0.46891     1 2px  -0.46780     1 2py  -0.41684
                                    2 1s   -0.73521     2 1s    1.56505     2 2px  -0.26237     2 2py  -0.35200     2 2py   0.42795
                                    2 2pz   0.26487     4 1s    0.77448     4 1s   -1.27549     5 1s    0.50540     5 1s   -1.07024
   22.1     0.00000     1.13408     1 1s   -0.36452     1 2px   0.42207     1 2py  -0.52881     1 2px  -0.73964     1 2py   0.83805
                                    2 2px   0.35230     2 2py  -0.67012     2 2px  -0.69563     2 2py   1.08736     3 1s    0.49205
                                    3 1s   -1.09377     4 1s   -0.25406     4 1s    0.65022     5 1s    0.37825     5 1s   -0.71647
                                    6 1s   -0.51603     6 1s    1.31573
   23.1     0.00000     1.17872     1 1s    0.37583     1 2pz  -0.26371     1 2px   0.70397     2 1s   -0.40920     2 2pz  -0.25501
                                    2 2px   0.76385     3 1s   -0.38177     3 1s    0.68522     4 1s   -0.59773     4 1s    0.79174
                                    5 1s    0.83755     5 1s   -1.02440     6 1s    0.39104     6 1s   -0.63680
   24.1     0.00000     1.18824     1 1s   -0.68243     1 1s    1.11785     1 2px   0.31342     1 2py  -0.32303     1 2px  -0.30596
                                    1 2py   0.33481     2 1s   -0.59094     2 1s    0.90960     2 2px  -0.28201     2 2py   0.28755
                                    2 2px   0.31544     2 2py  -0.27176     3 1s    0.78288     3 1s   -1.16246     6 1s    0.73404
                                    6 1s   -1.01854
   25.1     0.00000     1.25471     1 1s   -1.46988     1 1s    3.12316     1 2px  -0.30059     1 2py   0.35210     1 2pz  -1.24292
                                    2 1s   -0.86080     2 1s    1.06577     2 2px   0.72688     2 2py  -0.71229     2 2pz   0.68425
                                    3 1s   -0.40802     3 1s   -1.03103     4 1s   -0.51090     4 1s   -0.47081     5 1s   -0.25017
                                    5 1s   -0.28662     6 1s   -0.42712     6 1s   -0.72576
   26.1     0.00000     1.29125     1 1s    1.33846     1 1s   -4.57611     1 2px  -1.37910     1 2py   0.83115     1 2pz   0.97896
                                    2 1s   -1.77802     2 1s    5.37089     2 2px  -1.08238     2 2py   0.64009     2 2pz   1.39101
                                    4 1s    0.64868     5 1s   -0.40277     5 1s   -0.63668     6 1s   -0.64897
   27.1     0.00000     1.69863     1 1s    0.54864     1 3d0   0.39691     1 3d2- -0.31626     1 3d2+ -0.27902     2 1s   -0.49706
                                    2 3d0  -0.29463     2 3d2-  0.26252     2 3d2+  0.37376
   28.1     0.00000     1.92217     1 1s    0.36751     1 1s   -0.92230     1 2pz   0.43190     1 3d0   0.34550     1 3d1+  0.31466
                                    1 3d2+  0.35223     1 3d1-  0.31117     2 1s    0.26826     2 1s   -0.40845     2 2py   0.30009
                                    2 2pz  -0.26831     2 3d0   0.34807     2 3d1+  0.36119     2 3d2+  0.32978     2 3d1-  0.33370
                                    3 1s    0.26370     3 1s    0.26687     6 1s    0.29815
   29.1     0.00000     1.94108     1 1s   -0.31405     1 1s    1.37133     1 2px   0.32921     1 2pz  -0.36245     1 3d2- -0.28088
                                    1 3d1+  0.42398     1 3d1-  0.42737     2 1s    0.30394     2 1s   -1.36400     2 2px   0.30172
                                    2 2pz  -0.34835     2 3d2-  0.32687     2 3d1+ -0.35740     2 3d1- -0.34546     3 1s   -0.32348
                                    6 1s    0.33165
   30.1     0.00000     2.17453     1 1s    1.43905     1 2px   0.34092     1 2pz  -0.36992     1 3d0  -0.48536     1 3d2+ -0.40631
                                    2 1s    0.45309     2 1s   -1.69524     2 2px   0.37782     2 2py  -0.31748     2 2pz  -0.46843
                                    2 3d0   0.63038     2 3d2+  0.28878     3 1s   -0.33361     4 1s   -0.30116     5 1s    0.33269
                                    6 1s    0.33213
   31.1     0.00000     2.25285     1 1s   -0.57039     1 1s    0.71985     1 2px  -0.25732     1 2px   0.39015     1 3d0  -0.25095
                                    1 3d2- -0.36788     1 3d1+ -0.39018     1 3d2+  0.33337     2 1s   -0.38974     2 2px   0.25414
                                    2 3d1+ -0.36281     2 3d2+  0.44037
   32.1     0.00000     2.35136     1 2py   0.37432     1 3d0   0.54430     1 3d2- -0.33830     1 3d1- -0.37833     2 2py  -0.34543
                                    2 3d0   0.48669     2 3d2- -0.37710     2 3d1- -0.34446     3 1s   -0.28775     4 1s    0.41474
                                    5 1s    0.38617     6 1s   -0.26408
   33.1     0.00000     2.57641     1 1s   -0.27913     1 2px  -0.25238     1 3d2- -0.51181     1 3d1- -0.49083     2 1s    0.27810
                                    2 2py   0.38143     2 3d2-  0.44903     2 3d1-  0.67758     3 1s   -0.48639     4 1s    0.29508
                                    5 1s   -0.49922     6 1s    0.47094
   34.1     0.00000     2.64058     1 2py  -0.35136     1 3d2- -0.38645     1 3d2+ -0.54479     1 3d1-  0.60043     2 2py   0.26632
                                    2 3d2- -0.48886     2 3d2+ -0.48227     2 3d1-  0.39697     4 1s   -0.43074     5 1s   -0.25627
   35.1     0.00000     2.71865     1 3d0  -0.39327     1 3d2- -0.48335     1 3d1+  0.51750     1 3d1- -0.25342     2 3d0  -0.42112
                                    2 3d2- -0.50223     2 3d1+  0.47745     2 3d1- -0.26266     3 1s   -0.47873     6 1s   -0.46792
   36.1     0.00000     2.95917     1 1s   -1.72120     1 2px  -0.43566     1 2px  -0.87637     1 2pz   0.44039     1 3d2-  0.33562
                                    1 3d1+  0.69945     1 3d2+ -0.64078     2 1s    1.72827     2 2px  -0.43740     2 2px  -0.87783
                                    2 2pz   0.44212     2 3d2- -0.35701     2 3d1+ -0.69595     2 3d2+  0.64433


 HOMO      8.1    -0.385640 =     -10.4938eV
 LUMO      9.1     0.062926 =       1.7123eV
 LUMO-HOMO         0.448566 =      12.2061eV


 **********************************************************************************************************************************
 DATASETS  * FILE   NREC   LENGTH (MB)   RECORD NAMES
              1      19       31.13       500      610      700      900      950      970     1000      129      960     1100   
                                          VAR    BASINP    GEOM    SYMINP    ZMAT    AOBASIS   BASIS     P2S    ABASIS      S 
                                         1400     1410     1200     1210     1080     1600     1650     1300     1700   
                                           T        V       H0       H01     AOSYM     SMH    MOLCAS    ERIS     OPER   

              2       4        2.86       700     1000      520     2100   
                                         GEOM     BASIS   MCVARS     RHF  

 PROGRAMS   *        TOTAL    HF-SCF       INT
 CPU TIMES  *         0.39      0.10      0.17
 REAL TIME  *         0.65 SEC
 DISK USED  *        36.24 MB
 **********************************************************************************************************************************


 PROGRAM * MULTI (Direct Multiconfiguration SCF)       Authors: P.J. Knowles, H.-J. Werner (1984)


 Number of closed-shell orbitals:   7 (   7 )
 Number of active  orbitals:        2 (   2 )
 Number of external orbitals:      27 (  27 )

 State symmetry 1

 Number of electrons:     2    Spin symmetry=Singlet   Space symmetry=1
 Number of states:        3
 Number of CSFs:          3   (4 determinants, 4 intermediate states)

 Molecular orbitals read from record     2100.2  Type=RHF/CANONICAL (state 1.1)

 Wavefunction dump at record             2140.2

 Convergence thresholds  0.10E-01 (gradient)  0.10E-05 (energy)  0.10E-02 (step length)

 Weight factors for state symmetry  1:    0.33333   0.33333   0.33333

 Number of orbital rotations:      257   (    14 Core/Active    189 Core/Virtual   0 Active/Active     54 Active/Virtual)
 Total number of variables:        269

 Micro-Iterations solved by the two-step solver

 ITER. MIC  NCI  NEG     ENERGY(VAR)     ENERGY(PROJ)   ENERGY CHANGE     GRAD(0)  GRAD(ORB)   GRAD(CI)     STEP       TIME

   1   12    6    0     -77.69078820     -77.71098777   -0.02019957    0.16612825 0.00155447 0.00000000  0.15D+00      0.16
   2    7    5    0     -77.71063352     -77.71067155   -0.00003803    0.00911696 0.00001697 0.00000000  0.63D-02      0.26
   3    7    5    0     -77.71067163     -77.71067163   -0.00000000    0.00002657 0.00000000 0.00000000  0.35D-04      0.35

 ** WVFN ****  CONVERGENCE REACHED, FINAL GRADIENT:  0.46D-09



 Results for state 1.1
 =====================

 !MCSCF STATE  1.1 Energy             -77.840482651907
 Nuclear energy                        32.34071368
 Kinetic energy                        77.79278376
 One electron energy                 -167.83919131
 Two electron energy                   57.65799498
 Virial ratio                           2.00061315

 !MCSCF STATE  1.1 Dipole moment        0.04020979     0.01034714    -0.05602557
 Dipole moment /Debye                   0.10219640     0.02629807    -0.14239346

 Results for state 2.1
 =====================

 !MCSCF STATE  2.1 Energy             -77.738424957846
 Nuclear energy                        32.34071368
 Kinetic energy                        77.87136213
 One electron energy                 -167.54583040
 Two electron energy                   57.46669176
 Virial ratio                           1.99829286

 !MCSCF STATE  2.1 Dipole moment        0.00562447    -0.05352445    -0.02109160
 Dipole moment /Debye                   0.01429505    -0.13603667    -0.05360600

 Results for state 3.1
 =====================

 !MCSCF STATE  3.1 Energy             -77.553107287060
 Nuclear energy                        32.34071368
 Kinetic energy                        77.93626083
 One electron energy                 -167.30084864
 Two electron energy                   57.40702767
 Virial ratio                           1.99508376

 !MCSCF STATE  3.1 Dipole moment       -0.01956377    -0.09898041     0.01395188
 Dipole moment /Debye                  -0.04972288    -0.25156663     0.03545981

 State-averaged charge density matrix saved on record  2140.2 (density set 1)

 !MCSCF expec         <1.1|DMX|1.1>     0.040209790439 au =     0.102196399184 Debye
 !MCSCF trans         <2.1|DMX|1.1>     0.018848598918 au =     0.047905222039 Debye
 !MCSCF expec         <2.1|DMX|2.1>     0.005624472565 au =     0.014295046983 Debye
 !MCSCF trans         <3.1|DMX|1.1>     0.004422485284 au =     0.011240100148 Debye
 !MCSCF trans         <3.1|DMX|2.1>     0.023084778067 au =     0.058671810240 Debye
 !MCSCF expec         <3.1|DMX|3.1>    -0.019563766998 au =    -0.049722878927 Debye

 !MCSCF expec         <1.1|DMY|1.1>     0.010347135734 au =     0.026298073238 Debye
 !MCSCF trans         <2.1|DMY|1.1>     0.037090292192 au =     0.094267944829 Debye
 !MCSCF expec         <2.1|DMY|2.1>    -0.053524447905 au =    -0.136036666306 Debye
 !MCSCF trans         <3.1|DMY|1.1>     0.008294462827 au =     0.021081040831 Debye
 !MCSCF trans         <3.1|DMY|2.1>     0.045101126556 au =     0.114628121232 Debye
 !MCSCF expec         <3.1|DMY|3.1>    -0.098980410027 au =    -0.251566630516 Debye

 !MCSCF expec         <1.1|DMZ|1.1>    -0.056025566656 au =    -0.142393459702 Debye
 !MCSCF trans         <2.1|DMZ|1.1>     0.001598067345 au =     0.004061616004 Debye
 !MCSCF expec         <2.1|DMZ|2.1>    -0.021091602525 au =    -0.053605995146 Debye
 !MCSCF trans         <3.1|DMZ|1.1>    -0.003317254156 au =    -0.008431066818 Debye
 !MCSCF trans         <3.1|DMZ|2.1>    -0.000984206362 au =    -0.002501439206 Debye
 !MCSCF expec         <3.1|DMZ|3.1>     0.013951877744 au =     0.035459813436 Debye


 NATURAL ORBITALS (state averaged)
 =================================

  Orbital  Occupation    Energy     Coefficients
    1.1     2.00000   -11.25666     1 1s    0.99140
    2.1     2.00000   -11.25287     2 1s    0.99140
    3.1     2.00000    -1.05000     1 1s    0.27896     2 1s    0.27663
    4.1     2.00000    -0.78418     1 1s   -0.31762     2 1s    0.32036
    5.1     2.00000    -0.62449     1 2py   0.30117     2 2py   0.29806
    6.1     2.00000    -0.55940     1 2px   0.26953     2 2py   0.25694
    7.1     2.00000    -0.41947     1 2pz   0.32662     1 2pz   0.27822     2 2pz   0.32287     2 2pz   0.28256
    8.1     1.00000    -0.08696     1 1s   -0.26808     1 2pz  -0.40346     1 2pz  -0.42287     2 1s   -0.26793     2 2pz   0.40440
                                    2 2pz   0.43527
    9.1     1.00000    -0.22971     1 2px   0.31151     2 2px  -0.30273     4 1s   -0.30793     5 1s   -0.28389
   10.1    -0.00000     0.21860     1 1s   -1.04711     1 2px   0.45737     1 2py   0.46641     1 2pz   0.37809     2 1s   -1.14518
                                    2 2px  -0.48636     2 2py  -0.28497     2 2pz  -0.35981     3 1s    0.47645     4 1s    1.14807
                                    5 1s    1.03199     6 1s    0.59557
   11.1    -0.00000     0.28086     1 1s   -1.72016     1 2py  -0.25611     1 2pz   0.54059     2 1s    1.58993     2 2py  -0.31034
                                    2 2pz   0.41784     3 1s    1.49902     6 1s   -1.36374
   12.1    -0.00000     0.31382     1 1s   -1.14224     1 2px   0.39216     1 2py  -0.50016     1 2pz   0.51259     2 2py   0.29382
                                    2 2py   1.33248     3 1s    1.25783     4 1s    0.43906     5 1s   -1.16288     6 1s    1.49341
   13.1    -0.00000     0.32029     1 1s   -0.50609     1 2py   0.29307     1 2py   1.14467     2 1s    1.34544     2 2px   0.40799
                                    2 2py   0.31127     2 2pz   0.52545     3 1s   -0.88821     4 1s    1.63241     5 1s   -1.37257
                                    6 1s   -0.64134
   14.1    -0.00000     0.43021     1 1s    1.91086     1 2px   1.79870     1 2py  -0.49907     1 2pz  -0.72188     2 1s   -1.89187
                                    2 2px   1.79313     2 2py  -0.54952     2 2pz  -0.74790     3 1s    0.61777     6 1s   -0.62180
   15.1    -0.00000     0.70033     1 2px  -0.54371     1 2px   0.89058     2 2px   0.52743     2 2px  -0.92602     4 1s    0.25330
                                    4 1s   -0.54641     5 1s   -0.42103
   16.1    -0.00000     0.75726     1 1s   -0.36325     1 2py  -0.43742     1 2px  -0.73582     1 2py   0.91670     2 1s    0.46323
                                    2 2py  -0.30039     2 2px  -0.57882     2 2py   0.69088     3 1s   -0.50125     4 1s    0.28984
                                    6 1s    0.45178
   17.1    -0.00000     0.78743     1 2py   0.51563     1 2pz   0.43195     1 2py  -1.12797     1 2pz  -0.50887     2 1s   -0.35151
                                    2 2py  -0.55159     2 2py   1.17668     4 1s   -0.31991
   18.1    -0.00000     0.80131     1 1s   -0.34191     1 2pz  -0.62399     1 2pz   0.64386     2 1s    0.29055     2 2pz  -0.78314
                                    2 2py   0.48049     2 2pz   0.82760
   19.1    -0.00000     0.86232     1 1s   -0.32354     1 2px  -0.26231     1 2pz  -0.67518     1 2px   0.52741     1 2py  -0.51381
                                    1 2pz   1.02101     2 1s   -0.29826     2 2pz   0.65254     2 2px  -0.45479     2 2py   0.53765
                                    2 2pz  -1.00953     3 1s    0.27454     6 1s    0.26728
   20.1    -0.00000     0.98012     1 2px  -0.70453     1 2py  -0.36960     1 2px   0.99120     1 2py   0.72125     2 2px  -0.71895
                                    2 2py  -0.38441     2 2px   1.17126     2 2py   0.84576     4 1s    1.03051     5 1s   -0.98040
   21.1    -0.00000     1.08445     1 1s   -0.56791     1 1s    0.81971     1 2py   0.52968     1 2px  -0.44865     1 2py  -0.51632
                                    2 1s   -0.65610     2 1s    1.39099     2 2px  -0.29635     2 2py  -0.31038     2 2py   0.39427
                                    4 1s    0.83504     4 1s   -1.34578     5 1s    0.43170     5 1s   -0.91327
   22.1    -0.00000     1.12130     1 1s   -0.33253     1 2px   0.33171     1 2py  -0.48296     1 2px  -0.35966     1 2py   0.69580
                                    2 1s    0.40724     2 2py  -0.70337     2 2py   0.99183     3 1s   -0.63740     4 1s   -0.45199
                                    4 1s    0.86513     5 1s    0.77792     5 1s   -1.23672     6 1s    0.78204
   23.1    -0.00000     1.15772     1 1s    0.26799     1 2px  -0.34544     1 2px   1.01071     1 2py  -0.45200     2 1s   -0.41669
                                    2 2px  -0.41232     2 2px   1.06985     2 2py  -0.50588     3 1s   -0.60679     3 1s    1.15235
                                    4 1s   -0.37005     4 1s    0.34388     5 1s    0.55161     5 1s   -0.59807     6 1s    0.56315
                                    6 1s   -1.17989
   24.1    -0.00000     1.19263     1 1s   -0.64882     1 1s    1.10022     1 2px   0.28336     1 2py  -0.31958     1 2py   0.29040
                                    2 1s   -0.51670     2 1s    0.70765     2 2px  -0.28584     2 2py   0.31784     2 2px   0.33247
                                    2 2py  -0.30969     3 1s    0.77659     3 1s   -1.08118     6 1s    0.77802     6 1s   -1.02633
   25.1    -0.00000     1.24579     1 1s   -1.53166     1 1s    3.23689     1 2px  -0.32020     1 2py   0.36593     1 2pz  -1.24862
                                    2 1s   -0.88718     2 1s    1.10652     2 2px   0.74110     2 2py  -0.73181     2 2pz   0.67629
                                    3 1s   -0.38282     3 1s   -1.08304     4 1s   -0.46602     4 1s   -0.53672     5 1s   -0.31105
                                    6 1s   -0.41614     6 1s   -0.74523
   26.1    -0.00000     1.28547     1 1s    1.30689     1 1s   -4.51377     1 2px  -1.40100     1 2py   0.80072     1 2pz   0.95114
                                    2 1s   -1.82106     2 1s    5.43530     2 2px  -1.07807     2 2py   0.59960     2 2pz   1.38502
                                    4 1s    0.58605     5 1s   -0.39595     5 1s   -0.63217     6 1s   -0.69533
   27.1    -0.00000     1.69363     1 1s    0.57820     1 3d0   0.39143     1 3d2- -0.32266     1 3d2+ -0.28316     2 1s   -0.52084
                                    2 3d0  -0.28811     2 3d2-  0.26518     2 3d2+  0.37323
   28.1    -0.00000     1.91945     1 1s    0.33359     1 1s   -0.81223     1 2pz   0.39915     1 3d0   0.34490     1 3d1+  0.34370
                                    1 3d2+  0.37892     1 3d1-  0.34370     2 1s    0.27800     2 1s   -0.48835     2 2py   0.29052
                                    2 2pz  -0.28476     2 3d0   0.34654     2 3d1+  0.32580     2 3d2+  0.32041     2 3d1-  0.30404
                                    3 1s    0.25933     6 1s    0.29589
   29.1    -0.00000     1.93793     1 1s   -0.33344     1 1s    1.40283     1 2px   0.30842     1 2pz  -0.38386     1 3d2- -0.28117
                                    1 3d1+  0.40167     1 3d1-  0.40336     2 1s    0.27485     2 1s   -1.29523     2 2px   0.30680
                                    2 2pz  -0.31849     2 3d2-  0.33178     2 3d1+ -0.38730     2 3d1- -0.36630     3 1s   -0.34326
                                    6 1s    0.31814
   30.1    -0.00000     2.17523     1 1s    1.41372     1 2px   0.33603     1 2pz  -0.35745     1 3d0  -0.48707     1 3d2+ -0.40883
                                    2 1s    0.45996     2 1s   -1.68537     2 2px   0.36873     2 2py  -0.31261     2 2pz  -0.46590
                                    2 3d0   0.63378     2 3d2+  0.29204     3 1s   -0.32664     4 1s   -0.29850     5 1s    0.32379
                                    6 1s    0.33573
   31.1    -0.00000     2.24833     1 1s   -0.56631     1 1s    0.73794     1 2px  -0.26242     1 2px   0.38599     1 3d2- -0.38060
                                    1 3d1+ -0.39647     1 3d2+  0.33500     2 1s   -0.38023     2 2px   0.26054     2 3d2- -0.26153
                                    2 3d1+ -0.37004     2 3d2+  0.43550
   32.1    -0.00000     2.34558     1 2py   0.39228     1 3d0   0.54385     1 3d2- -0.33532     1 3d1- -0.39359     2 2py  -0.35870
                                    2 3d0   0.48703     2 3d2- -0.36735     2 3d1- -0.35571     3 1s   -0.30465     4 1s    0.40537
                                    5 1s    0.37146     6 1s   -0.27399
   33.1    -0.00000     2.57129     1 1s   -0.26590     1 3d2- -0.51833     1 3d1- -0.48541     2 1s    0.26767     2 2py   0.38656
                                    2 3d2-  0.44542     2 3d1-  0.68388     3 1s   -0.49047     4 1s    0.28361     5 1s   -0.49158
                                    6 1s    0.47111
   34.1    -0.00000     2.63253     1 2py  -0.35667     1 3d2- -0.38595     1 3d2+ -0.53985     1 3d1-  0.60354     2 1s    0.25432
                                    2 2py   0.26930     2 3d2- -0.50204     2 3d2+ -0.47671     2 3d1-  0.39467     4 1s   -0.42051
   35.1    -0.00000     2.72377     1 3d0  -0.40149     1 3d2- -0.46830     1 3d1+  0.51925     1 3d1- -0.25000     2 3d0  -0.42969
                                    2 3d2- -0.49448     2 3d1+  0.48465     2 3d1- -0.26722     3 1s   -0.47230     6 1s   -0.46982
   36.1    -0.00000     2.95525     1 1s   -1.74976     1 2px  -0.42960     1 2px  -0.88838     1 2py   0.25336     1 2pz   0.44779
                                    1 3d2-  0.33363     1 3d1+  0.70132     1 3d2+ -0.63575     2 1s    1.75758     2 2px  -0.43092
                                    2 2px  -0.88915     2 2pz   0.44995     2 3d2- -0.35492     2 3d1+ -0.69970     2 3d2+  0.64383


 Natural orbital dump (state averaged) at molpro section  2140.2    (Orbital set 2)



 **********************************************************************************************************************************
 DATASETS  * FILE   NREC   LENGTH (MB)   RECORD NAMES
              1      20       31.86       500      610      700      900      950      970     1000      129      960     1100   
                                          VAR    BASINP    GEOM    SYMINP    ZMAT    AOBASIS   BASIS     P2S    ABASIS      S 
                                         1400     1410     1200     1210     1080     1600     1650     1300     1700     1380   
                                           T        V       H0       H01     AOSYM     SMH    MOLCAS    ERIS     OPER     JKOP   

              2       5        5.42       700     1000      520     2100     2140   
                                         GEOM     BASIS   MCVARS     RHF     MCSCF   

 PROGRAMS   *        TOTAL     MULTI    HF-SCF       INT
 CPU TIMES  *         0.79      0.41      0.10      0.17
 REAL TIME  *         1.26 SEC
 DISK USED  *        39.04 MB
 **********************************************************************************************************************************
 Molecular orbitals read from record     2140.2  Type=MCSCF/NATURAL (state averaged)
 Occupation numbers read from record     2140.2  Type=MCSCF/NATURAL (state averaged)
 Orbital energies read from record       2140.2  Type=MCSCF/NATURAL (state averaged)
 Redundancy group numbers read from rec  2140.2  Type=MCSCF/NATURAL (state averaged)

 MULTI/6-31G* energy=    -77.553107287060

           MULTI          HF-SCF
    -77.55310729    -77.84685696
 **********************************************************************************************************************************
 Molpro calculation terminated
