
 Primary working directories    : /scratch.local/johan406.molpro_temp/molpro.EsmdgcMyyp
 Secondary working directories  : /scratch.local/johan406.molpro_temp/molpro.EsmdgcMyyp
 Wavefunction directory         : /home/goodpast/johan406/wfu/
 Main file repository           : /scratch.local/johan406.molpro_temp/molpro.EsmdgcMyyp/

 id        : roweumn

 Nodes     nprocs
 acn09        1

 Using customized tuning parameters: mindgm=1; mindgv=20; mindgc=4; mindgr=1; noblas=0; minvec=7
 default implementation of scratch files=df  


 Variables initialized (934), CPU time= 0.00 sec
                                                                                 !leave this line blank
 
 gprint, orbitals=30
 memory, 125., m
 symmetry, nosym
 nelect=16
 basis=6-31g*
 
 geometry={
 C -0.6361 0.1345 0.2955
 C 0.6258 -0.1908 -0.3622
 H -1.2127 0.9652 -0.1182
 H -0.9062 -0.8886 -0.1454
 H 1.0271 0.7939 0.069
 H 1.3304 -0.8775 0.1313
 }
 
 hf
 {multi,
 closed 7
 occ 9
 wf,spin=0;STATE,3
 }
 
 Commands  initialized (763), CPU time= 0.01 sec, 617 directives.
 Default parameters read. Elapsed time= 0.07 sec

 Checking input...
 Passed
1


                                         ***  PROGRAM SYSTEM MOLPRO  ***
                                       Copyright, TTI GmbH Stuttgart, 2015
                                    Version 2019.2 linked Oct 25 2019 22:50:27


 **********************************************************************************************************************************
 LABEL *                                                                                 
  64 bit serial version                                                                  DATE: 07-Feb-23          TIME: 15:20:12  
 **********************************************************************************************************************************

 SHA1:             8dbd9ae1082e4ce945b0f27595c9eb2d4aa09004
 **********************************************************************************************************************************


 Variable memory set to  125000000 words,  buffer space 

 SETTING NELECT         =        16.00000000                                  
 SETTING BASIS          =    6-31G*
 ZSYMEL=NOSYM


Geometry recognized as XYZ



 Recomputing integrals since basis changed


 Using spherical harmonics

 Library entry C      S 6-31G                selected for orbital group  1
 Library entry C      P 6-31G                selected for orbital group  1
 Library entry C      D 6-31G*               selected for orbital group  1
 Library entry H      S 6-31G                selected for orbital group  2


 PROGRAM * SEWARD (Integral evaluation for generally contracted gaussian basis sets)     Author: Roland Lindh, 1990

 Geometry written to block  1 of record 700


 Point group  C1  



 ATOMIC COORDINATES

 NR  ATOM    CHARGE       X              Y              Z

   1  C       6.00   -1.202054788    0.254168164    0.558414070
   2  C       6.00    1.182590609   -0.360559745   -0.684458802
   3  H       1.00   -2.291670871    1.823963655   -0.223365628
   4  H       1.00   -1.712469814   -1.679210634   -0.274766179
   5  H       1.00    1.940937703    1.500253570    0.130391103
   6  H       1.00    2.514091636   -1.658234674    0.248121040

 Bond lengths in Bohr (Angstrom)

 1-2  2.758470055  1-3  2.064630861  1-4  2.166256310  2-5  2.168339659  2-6  2.080038551
     ( 1.459719490)     ( 1.092555600)     ( 1.146333472)     ( 1.147435933)     ( 1.100708999)

 Bond angles

  1-2-5   86.66207866   1-2-6  119.36706746   2-1-3  117.06907037   2-1-4   80.29938771

  3-1-4  114.11717159   5-2-6   98.22296136

 NUCLEAR CHARGE:                   16
 NUMBER OF PRIMITIVE AOS:          72
 NUMBER OF SYMMETRY AOS:           70
 NUMBER OF CONTRACTIONS:           36   (   36A   )
 NUMBER OF CORE ORBITALS:           2   (    2A   )
 NUMBER OF VALENCE ORBITALS:       12   (   12A   )


 NUCLEAR REPULSION ENERGY   32.33014856

 Eigenvalues of metric

         1 0.927E-02 0.278E-01 0.601E-01 0.631E-01 0.814E-01 0.219E+00 0.237E+00 0.273E+00


 Contracted 2-electron integrals neglected if value below      1.0D-11
 AO integral compression algorithm  1   Integral accuracy      1.0D-11

     1.573 MB (compressed) written to integral file ( 59.2%)


 NUMBER OF SORTED TWO-ELECTRON INTEGRALS:     222111.     BUFFER LENGTH:  32768
 NUMBER OF SEGMENTS:   1  SEGMENT LENGTH:     222111      RECORD LENGTH: 524288

 Memory used in sort:       0.78 MW

 SORT1 READ      284735. AND WROTE      212531. INTEGRALS IN      1 RECORDS. CPU TIME:     0.00 SEC, REAL TIME:     0.00 SEC
 SORT2 READ      212531. AND WROTE      222111. INTEGRALS IN      6 RECORDS. CPU TIME:     0.03 SEC, REAL TIME:     0.02 SEC

 FILE SIZES:   FILE 1:    31.7 MBYTE,  FILE 4:     4.2 MBYTE,   TOTAL:     35.9 MBYTE

 OPERATOR DM      FOR CENTER  0  COORDINATES:    0.000000    0.000000    0.000000


 **********************************************************************************************************************************
 DATASETS  * FILE   NREC   LENGTH (MB)   RECORD NAMES
              1      19       31.13       500      610      700      900      950      970     1000      129      960     1100   
                                          VAR    BASINP    GEOM    SYMINP    ZMAT    AOBASIS   BASIS     P2S    ABASIS      S 
                                         1400     1410     1200     1210     1080     1600     1650     1300     1700   
                                           T        V       H0       H01     AOSYM     SMH    MOLCAS    ERIS     OPER   

 PROGRAMS   *        TOTAL       INT
 CPU TIMES  *         0.29      0.18
 REAL TIME  *         0.55 SEC
 DISK USED  *        36.24 MB
 **********************************************************************************************************************************


 PROGRAM * RHF-SCF (CLOSED SHELL)       Authors: W. Meyer, H.-J. Werner


 NUMBER OF ELECTRONS:       8+    8-    SPACE SYMMETRY=1    SPIN SYMMETRY: Singlet 
 CONVERGENCE THRESHOLDS:    1.00E-05 (Density)    1.00E-07 (Energy)
 MAX. NUMBER OF ITERATIONS:       60
 INTERPOLATION TYPE:            DIIS
 INTERPOLATION STEPS:              2 (START)      1 (STEP)
 LEVEL SHIFTS:                  0.00 (CLOSED)  0.00 (OPEN) 



 Orbital guess generated from atomic densities. Full valence occupancy:    8

 Molecular orbital dump at record        2100.2

 Initial occupancy:   8

 ITERATION    DDIFF          GRAD             ENERGY        2-EL.EN.            DIPOLE MOMENTS         DIIS   ORB.
    1      0.000D+00      0.000D+00       -77.82376270    115.871042    0.04653    0.01992    0.03038    0    start
    2      0.000D+00      0.703D-02       -77.84176829    114.848116   -0.00108    0.02652    0.04698    1    diag
    3      0.755D-02      0.228D-02       -77.84385741    115.267406   -0.00328    0.02893    0.05068    2    diag
    4      0.296D-02      0.829D-03       -77.84430450    115.137816   -0.01209    0.02953    0.05454    3    diag
    5      0.161D-02      0.293D-03       -77.84443944    115.145402   -0.01372    0.02953    0.05529    4    diag
    6      0.979D-03      0.130D-03       -77.84448050    115.147108   -0.01644    0.03072    0.05916    5    diag
    7      0.518D-03      0.663D-04       -77.84448827    115.147787   -0.01429    0.02932    0.05628    6    diag
    8      0.222D-03      0.332D-04       -77.84449002    115.148711   -0.01466    0.02977    0.05735    7    diag
    9      0.122D-03      0.922D-05       -77.84449020    115.148923   -0.01443    0.02968    0.05716    8    diag
   10      0.411D-04      0.285D-05       -77.84449021    115.148900   -0.01435    0.02970    0.05713    9    orth
   11      0.889D-05      0.696D-06       -77.84449021    115.148905   -0.01434    0.02970    0.05714    0    orth

 Final occupancy:   8

 !RHF STATE  1.1 Energy               -77.844490210676
 Nuclear energy                        32.33014856
 One-electron energy                 -167.74909128
 Two-electron energy                   57.57445251
 Virial quotient                       -1.00140277
 !RHF STATE  1.1 Dipole moment         -0.01434226     0.02970253     0.05713835
 Dipole moment /Debye                  -0.03645200     0.07549136     0.14522170

 ELECTRON ORBITALS
 =================

  Orbital  Occupation    Energy     Coefficients
    1.1     2.00000   -11.26396     1 1s    0.99468
    2.1     2.00000   -11.25647     2 1s    0.99470
    3.1     2.00000    -1.03730     1 1s    0.28567     2 1s    0.28011     2 1s    0.25029
    4.1     2.00000    -0.78322     1 1s   -0.29148     2 1s    0.29694
    5.1     2.00000    -0.62626     1 2py   0.35814
    6.1     2.00000    -0.55491     1 2px   0.30473     2 2px  -0.28278     2 2py   0.27543
    7.1     2.00000    -0.39204     1 2pz   0.30622     1 2pz   0.27795     2 2pz   0.30171     2 2pz   0.28503
    8.1     2.00000    -0.38594     1 2px   0.29185     4 1s   -0.27909     5 1s   -0.28972
    9.1     0.00000     0.06319     1 1s    0.37963     1 2pz   0.33999     1 2pz   0.48292     2 1s    0.42316     2 2pz  -0.31972
                                    2 2pz  -0.44945
   10.1     0.00000     0.22937     1 1s   -1.17495     1 2px   0.48468     1 2py   0.31343     1 2pz   0.45371     2 1s   -0.96398
                                    2 2px  -0.45018     2 2py  -0.41563     2 2pz  -0.38204     3 1s    0.70359     4 1s    1.07631
                                    5 1s    1.06611     6 1s    0.39172
   11.1     0.00000     0.28039     1 1s    1.33002     1 2py   0.32897     1 2pz  -0.30808     2 1s   -1.78109     2 2py   0.33568
                                    2 2pz  -0.61083     3 1s   -1.19097     6 1s    1.64555
   12.1     0.00000     0.31246     1 1s   -0.72197     1 2py  -0.25348     1 2px   0.33511     1 2py  -1.22421     1 2pz   0.40713
                                    2 1s   -0.70753     2 2px  -0.44056     2 2py   0.76551     2 2pz  -0.46341     3 1s    1.72630
                                    4 1s   -0.72549     6 1s    1.31710
   13.1     0.00000     0.33486     1 1s    1.11824     1 2px  -0.29418     1 2py  -0.54728     1 2pz  -0.35876     2 1s   -0.89988
                                    2 2px  -0.29443     2 2py  -0.92349     3 1s   -0.25174     4 1s   -1.60521     5 1s    1.73076
   14.1     0.00000     0.42301     1 1s    2.10522     1 2px   1.75085     1 2py  -0.65002     1 2pz  -0.82530     2 1s   -1.99825
                                    2 2px   1.80021     2 2py  -0.61630     2 2pz  -0.76446     3 1s    0.54498     4 1s   -0.27641
                                    6 1s   -0.66890
   15.1     0.00000     0.70251     1 2px  -0.58960     1 2px   0.88980     2 2px   0.50572     2 2pz  -0.25997     2 2px  -0.95768
                                    4 1s   -0.46669     5 1s   -0.39493     6 1s    0.28052
   16.1     0.00000     0.76196     1 1s   -0.32464     1 2py  -0.28679     1 2px  -0.52450     1 2py   0.67648     2 1s    0.27553
                                    2 2px   0.26845     2 2py  -0.45453     2 2px  -0.68858     2 2py   0.86006     3 1s   -0.44550
                                    5 1s   -0.29208     6 1s    0.51659
   17.1     0.00000     0.79029     1 2py  -0.61971     1 2pz  -0.49289     1 2py   1.37832     1 2pz   0.50635     2 1s    0.34719
                                    2 2py   0.46954     2 2py  -0.93749     4 1s    0.35875
   18.1     0.00000     0.80055     1 2pz  -0.66489     1 2py  -0.37804     1 2pz   0.65066     2 2pz  -0.72282     2 2py   0.49719
                                    2 2pz   0.67623
   19.1     0.00000     0.86528     1 1s   -0.34098     1 2px  -0.28679     1 2pz  -0.63928     1 2px   0.49010     1 2py  -0.59079
                                    1 2pz   0.90244     2 1s   -0.36945     2 2pz   0.72803     2 2px  -0.42336     2 2py   0.49609
                                    2 2pz  -1.00173
   20.1     0.00000     0.97301     1 2px   0.67623     1 2py   0.35957     1 2px  -1.04183     1 2py  -0.75093     2 1s   -0.29823
                                    2 1s    0.35519     2 2px   0.74807     2 2py   0.37581     2 2px  -1.20472     2 2py  -0.80397
                                    4 1s   -1.11659     5 1s    0.95650
   21.1     0.00000     1.10761     1 1s   -0.53441     1 1s    0.62651     1 2px   0.42249     1 2px  -0.78197     2 1s   -0.52241
                                    2 1s    1.30188     2 2py  -0.60374     2 2py   0.86306     3 1s   -0.66699     4 1s    0.59567
                                    4 1s   -0.80381     5 1s    0.58566     5 1s   -1.21132     6 1s   -0.36348     6 1s    0.66261
   22.1     0.00000     1.13821     1 2py   0.66055     1 2py  -0.92203     2 1s   -0.33566     2 1s    0.69866     2 2px  -0.46335
                                    2 2py   0.43482     2 2px   0.46623     2 2py  -0.59451     3 1s    0.75929     4 1s    0.76513
                                    4 1s   -1.20315     5 1s    0.34646     6 1s    0.50100     6 1s   -1.06353
   23.1     0.00000     1.15847     1 1s    0.28215     1 1s   -1.32536     1 2px   0.30729     1 2px  -0.84329     1 2py   0.39009
                                    1 2pz   0.47930     2 1s    0.35128     2 2px  -1.13068     3 1s    0.92180     3 1s   -0.90203
                                    4 1s    0.39678     5 1s   -0.53099     5 1s    0.95281     6 1s    0.47984
   24.1     0.00000     1.19378     1 1s   -0.57395     1 1s    1.07776     1 2py  -0.41340     1 2py   0.43681     1 2pz  -0.25767
                                    2 1s   -1.01741     2 1s    1.51301     2 2px  -0.32009     2 2pz  -0.30830     2 2px   0.64451
                                    2 2py  -0.25972     2 2pz   0.40765     3 1s    0.43982     3 1s   -0.87417     4 1s   -0.40382
                                    4 1s    0.32471     5 1s    0.31430     5 1s   -0.59943     6 1s    0.69495     6 1s   -1.32739
   25.1     0.00000     1.22984     1 1s   -1.95077     1 1s    4.52816     1 2pz   0.26743     1 2px   0.28502     1 2pz  -1.34633
                                    2 1s   -1.50277     2 2px   0.95180     2 2py  -0.82705     3 1s   -1.15110     4 1s   -0.91049
                                    5 1s   -0.44989     5 1s    0.43379     6 1s   -0.33162
   26.1     0.00000     1.33113     1 1s    0.57550     1 1s   -2.86436     1 2px  -1.34231     1 2py   0.90682     1 2pz   0.37874
                                    2 1s   -1.82439     2 1s    5.20550     2 2px  -0.60383     2 2py   0.41442     2 2pz   1.60620
                                    4 1s    0.27841     5 1s   -0.63011     5 1s   -0.63845     6 1s   -0.45065     6 1s   -0.76826
   27.1     0.00000     1.70084     1 1s    0.60710     1 3d0   0.40166     1 3d2- -0.31538     2 1s   -0.37845     2 3d0  -0.26075
                                    2 3d2-  0.31482     2 3d2+  0.39469
   28.1     0.00000     1.91096     1 2px   0.31378     1 2py  -0.26169     1 3d1+  0.44847     1 3d2+  0.35944     1 3d1-  0.33736
                                    2 1s    0.44454     2 1s   -1.20046     2 2pz  -0.50348     2 3d0   0.48791     2 3d2+  0.27086
                                    2 3d1-  0.25451     3 1s    0.28219     6 1s    0.35747     6 1s    0.27271
   29.1     0.00000     1.95140     1 1s    0.29605     1 1s   -1.32052     1 2px  -0.34073     1 2pz   0.32296     1 3d2-  0.29942
                                    1 3d1+ -0.29626     1 3d1- -0.25714     2 1s   -0.31669     2 1s    1.37070     2 2px  -0.26477
                                    2 2pz   0.37612     2 3d2- -0.25817     2 3d1+  0.46604     2 3d2+  0.30301     2 3d1-  0.48968
                                    3 1s    0.31655     6 1s   -0.31003
   30.1     0.00000     2.18875     1 1s    0.41141     1 1s   -1.71761     1 2px  -0.41115     1 2pz   0.46622     1 3d0   0.67828
                                    1 3d2+  0.39956     2 1s   -0.26235     2 1s    1.49140     2 2px  -0.33607     2 2py   0.31353
                                    2 2pz   0.39477     2 3d0  -0.41234     2 3d2+ -0.30386     3 1s    0.38362     4 1s    0.40816
                                    6 1s   -0.30762
   31.1     0.00000     2.25070     1 1s    0.50836     1 1s   -0.40216     1 2px   0.26147     1 2px  -0.31015     1 3d2-  0.33542
                                    1 3d1+  0.36859     1 3d2+ -0.41040     2 1s    0.46454     2 2px  -0.25932     2 2px   0.29127
                                    2 3d2-  0.27577     2 3d1+  0.40390     2 3d2+ -0.36567
   32.1     0.00000     2.34810     1 1s    0.26481     1 2py   0.37859     1 3d0   0.40167     1 3d2- -0.35909     1 3d1- -0.38502
                                    2 1s   -0.32343     2 2px   0.27537     2 2py  -0.36556     2 3d0   0.59648     2 3d2- -0.36275
                                    2 3d1- -0.35694     3 1s   -0.33201     4 1s    0.35442     5 1s    0.44283
   33.1     0.00000     2.56340     1 1s    0.28835     1 2py  -0.42394     1 3d2-  0.41823     1 3d1-  0.72105     2 3d2- -0.51640
                                    2 3d1- -0.45910     3 1s    0.51565     4 1s   -0.46133     5 1s    0.35236     6 1s   -0.41939
   34.1     0.00000     2.64404     1 2py  -0.28442     1 3d2- -0.53095     1 3d2+ -0.53563     1 3d1-  0.41036     2 1s    0.26168
                                    2 2py   0.33013     2 3d2- -0.35164     2 3d2+ -0.50221     2 3d1-  0.57116     4 1s   -0.32128
                                    5 1s   -0.38390
   35.1     0.00000     2.71432     1 3d0  -0.44479     1 3d2- -0.44221     1 3d1+  0.44767     2 3d0  -0.37997     2 3d2- -0.51042
                                    2 3d1+  0.55268     2 3d1- -0.28515     3 1s   -0.41490     6 1s   -0.50868
   36.1     0.00000     2.96007     1 1s   -1.73209     1 2px  -0.43754     1 2px  -0.86573     1 2pz   0.44724     1 3d2-  0.32986
                                    1 3d1+  0.69825     1 3d2+ -0.64444     2 1s    1.70186     2 2px  -0.43421     2 2px  -0.88385
                                    2 2pz   0.43098     2 3d2- -0.36077     2 3d1+ -0.69483     2 3d2+  0.64498


 HOMO      8.1    -0.385936 =     -10.5019eV
 LUMO      9.1     0.063193 =       1.7196eV
 LUMO-HOMO         0.449129 =      12.2214eV


 **********************************************************************************************************************************
 DATASETS  * FILE   NREC   LENGTH (MB)   RECORD NAMES
              1      19       31.13       500      610      700      900      950      970     1000      129      960     1100   
                                          VAR    BASINP    GEOM    SYMINP    ZMAT    AOBASIS   BASIS     P2S    ABASIS      S 
                                         1400     1410     1200     1210     1080     1600     1650     1300     1700   
                                           T        V       H0       H01     AOSYM     SMH    MOLCAS    ERIS     OPER   

              2       4        2.86       700     1000      520     2100   
                                         GEOM     BASIS   MCVARS     RHF  

 PROGRAMS   *        TOTAL    HF-SCF       INT
 CPU TIMES  *         0.38      0.09      0.18
 REAL TIME  *         0.77 SEC
 DISK USED  *        36.24 MB
 **********************************************************************************************************************************


 PROGRAM * MULTI (Direct Multiconfiguration SCF)       Authors: P.J. Knowles, H.-J. Werner (1984)


 Number of closed-shell orbitals:   7 (   7 )
 Number of active  orbitals:        2 (   2 )
 Number of external orbitals:      27 (  27 )

 State symmetry 1

 Number of electrons:     2    Spin symmetry=Singlet   Space symmetry=1
 Number of states:        3
 Number of CSFs:          3   (4 determinants, 4 intermediate states)

 Molecular orbitals read from record     2100.2  Type=RHF/CANONICAL (state 1.1)

 Wavefunction dump at record             2140.2

 Convergence thresholds  0.10E-01 (gradient)  0.10E-05 (energy)  0.10E-02 (step length)

 Weight factors for state symmetry  1:    0.33333   0.33333   0.33333

 Number of orbital rotations:      257   (    14 Core/Active    189 Core/Virtual   0 Active/Active     54 Active/Virtual)
 Total number of variables:        269

 Micro-Iterations solved by the two-step solver

 ITER. MIC  NCI  NEG     ENERGY(VAR)     ENERGY(PROJ)   ENERGY CHANGE     GRAD(0)  GRAD(ORB)   GRAD(CI)     STEP       TIME

   1   12    6    0     -77.68747665     -77.70814829   -0.02067164    0.16686257 0.00157153 0.00000000  0.15D+00      0.14
   2    7    5    0     -77.70777392     -77.70781513   -0.00004122    0.00951945 0.00001677 0.00000000  0.63D-02      0.23
   3    7    5    0     -77.70781522     -77.70781522   -0.00000000    0.00002815 0.00000000 0.00000000  0.34D-04      0.32

 ** WVFN ****  CONVERGENCE REACHED, FINAL GRADIENT:  0.49D-09



 Results for state 1.1
 =====================

 !MCSCF STATE  1.1 Energy             -77.838154394610
 Nuclear energy                        32.33014856
 Kinetic energy                        77.78963587
 One electron energy                 -167.82186814
 Two electron energy                   57.65356519
 Virial ratio                           2.00062371

 !MCSCF STATE  1.1 Dipole moment       -0.03801094     0.03941233     0.04845744
 Dipole moment /Debye                  -0.09660783     0.10016959     0.12315847

 Results for state 2.1
 =====================

 !MCSCF STATE  2.1 Energy             -77.735320175736
 Nuclear energy                        32.33014856
 Kinetic energy                        77.86741198
 One electron energy                 -167.52362253
 Two electron energy                   57.45815380
 Virial ratio                           1.99830363

 !MCSCF STATE  2.1 Dipole moment        0.01087504     0.04217365     0.05102787
 Dipole moment /Debye                   0.02763977     0.10718772     0.12969142

 Results for state 3.1
 =====================

 !MCSCF STATE  3.1 Energy             -77.549971081051
 Nuclear energy                        32.33014856
 Kinetic energy                        77.93105945
 One electron energy                 -167.27165972
 Two electron energy                   57.39154008
 Virial ratio                           1.99510993

 !MCSCF STATE  3.1 Dipole moment        0.04232635     0.04157004     0.05249639
 Dipole moment /Debye                   0.10757579     0.10565358     0.13342377

 State-averaged charge density matrix saved on record  2140.2 (density set 1)

 !MCSCF expec         <1.1|DMX|1.1>    -0.038010935065 au =    -0.096607832342 Debye
 !MCSCF trans         <2.1|DMX|1.1>     0.035799990044 au =     0.090988538695 Debye
 !MCSCF expec         <2.1|DMX|2.1>     0.010875035791 au =     0.027639773465 Debye
 !MCSCF trans         <3.1|DMX|1.1>    -0.006761550136 au =    -0.017185020594 Debye
 !MCSCF trans         <3.1|DMX|2.1>     0.042538836750 au =     0.108115856706 Debye
 !MCSCF expec         <3.1|DMX|3.1>     0.042326346109 au =     0.107575794744 Debye

 !MCSCF expec         <1.1|DMY|1.1>     0.039412330973 au =     0.100169592153 Debye
 !MCSCF trans         <2.1|DMY|1.1>     0.007168276605 au =     0.018218748454 Debye
 !MCSCF expec         <2.1|DMY|2.1>     0.042173654477 au =     0.107187716746 Debye
 !MCSCF trans         <3.1|DMY|1.1>    -0.000666586009 au =    -0.001694181669 Debye
 !MCSCF trans         <3.1|DMY|2.1>     0.007974918845 au =     0.020268894237 Debye
 !MCSCF expec         <3.1|DMY|3.1>     0.041570037531 au =     0.105653575987 Debye

 !MCSCF expec         <1.1|DMZ|1.1>     0.048457442739 au =     0.123158467318 Debye
 !MCSCF trans         <2.1|DMZ|1.1>     0.002282775058 au =     0.005801855433 Debye
 !MCSCF expec         <2.1|DMZ|2.1>     0.051027870933 au =     0.129691416206 Debye
 !MCSCF trans         <3.1|DMZ|1.1>    -0.000377671651 au =    -0.000959882715 Debye
 !MCSCF trans         <3.1|DMZ|2.1>     0.002670250235 au =     0.006786654591 Debye
 !MCSCF expec         <3.1|DMZ|3.1>     0.052496389126 au =     0.133423772674 Debye


 NATURAL ORBITALS (state averaged)
 =================================

  Orbital  Occupation    Energy     Coefficients
    1.1     2.00000   -11.25669     1 1s    0.99103
    2.1     2.00000   -11.25304     2 1s    0.99106
    3.1     2.00000    -1.04988     1 1s    0.27944     2 1s    0.27632
    4.1     2.00000    -0.78436     1 1s   -0.31731     2 1s    0.32006
    5.1     2.00000    -0.62881     1 2py   0.35213
    6.1     2.00000    -0.55292     1 2px   0.25689     2 2py   0.30289
    7.1     2.00000    -0.41920     1 2pz   0.31868     1 2pz   0.27270     2 2pz   0.32941     2 2pz   0.28701
    8.1     1.00000    -0.08682     1 2pz   0.41759     1 2pz   0.44078     2 1s    0.29261     2 2pz  -0.38951     2 2pz  -0.41450
    9.1     1.00000    -0.22997     1 2px   0.32331     2 2px  -0.29311     4 1s   -0.29220     5 1s   -0.29802
   10.1    -0.00000     0.21754     1 1s   -1.15449     1 2px   0.47889     1 2py   0.33265     1 2pz   0.38777     2 1s   -1.01033
                                    2 2px  -0.45530     2 2py  -0.42625     2 2pz  -0.33864     3 1s    0.64657     4 1s    1.07335
                                    5 1s    1.09218     6 1s    0.39669
   11.1    -0.00000     0.27887     1 1s    1.42374     1 2pz  -0.33657     2 1s   -1.87303     2 2py   0.28397     2 2pz  -0.62149
                                    3 1s   -1.15525     5 1s    0.32495     6 1s    1.64615
   12.1    -0.00000     0.31354     1 1s   -0.30356     1 2py  -0.30933     1 2px   0.25537     1 2py  -1.38450     2 1s   -0.98341
                                    2 2px  -0.43719     2 2py   0.30598     2 2pz  -0.48506     3 1s    1.62549     4 1s   -1.25946
                                    5 1s    0.54100     6 1s    1.01615
   13.1    -0.00000     0.32106     1 1s    1.37414     1 2px  -0.30330     1 2pz  -0.49969     2 1s   -0.51785     2 2py  -0.30520
                                    2 2py  -1.20713     3 1s   -0.76932     4 1s   -1.26008     5 1s    1.62713     6 1s   -0.85482
   14.1    -0.00000     0.42903     1 1s    1.96787     1 2px   1.76185     1 2py  -0.54572     1 2pz  -0.76395     2 1s   -1.86591
                                    2 2px   0.25188     2 2px   1.81497     2 2py  -0.50870     2 2pz  -0.71207     3 1s    0.54179
                                    6 1s   -0.67072
   15.1    -0.00000     0.69936     1 2px  -0.57400     1 2px   0.85135     2 2px   0.49094     2 2pz  -0.25062     2 2px  -0.94908
                                    4 1s    0.25934     4 1s   -0.52596     5 1s   -0.45021     6 1s    0.28967
   16.1    -0.00000     0.75876     1 1s   -0.42687     1 2py  -0.27489     1 2px  -0.56093     1 2py   0.67660     2 1s    0.37928
                                    2 2px   0.27106     2 2py  -0.44508     2 2px  -0.74167     2 2py   0.88824     3 1s   -0.43595
                                    5 1s   -0.31188     6 1s    0.51705
   17.1    -0.00000     0.78957     1 2py  -0.59251     1 2pz  -0.48630     1 2px  -0.27309     1 2py   1.37216     1 2pz   0.59535
                                    2 1s    0.39473     2 2py   0.44745     2 2py  -0.89977     4 1s    0.36506
   18.1    -0.00000     0.80076     1 1s   -0.37633     1 2pz  -0.66858     1 2py  -0.37535     1 2pz   0.70665     2 1s    0.25455
                                    2 2pz  -0.71322     2 2py   0.50805     2 2pz   0.73776
   19.1    -0.00000     0.86356     1 1s   -0.29964     1 2px  -0.30149     1 2pz  -0.60495     1 2px   0.52389     1 2py  -0.60195
                                    1 2pz   0.94360     2 1s   -0.32667     2 2pz   0.71195     2 2px  -0.46413     2 2py   0.49170
                                    2 2pz  -1.06611     3 1s    0.27759     6 1s    0.28253
   20.1    -0.00000     0.97948     1 2px   0.67033     1 2py   0.35855     1 2px  -0.95804     1 2py  -0.75819     2 1s   -0.29152
                                    2 1s    0.26989     2 2px   0.74569     2 2py   0.38656     2 2px  -1.11595     2 2py  -0.83187
                                    4 1s   -1.06434     5 1s    0.92705
   21.1    -0.00000     1.08534     1 1s   -0.52601     1 1s    0.65508     1 2px   0.40171     1 2py   0.25711     1 2px  -0.69878
                                    2 1s   -0.60907     2 1s    1.39651     2 2py  -0.53347     2 2py   0.73957     3 1s   -0.39586
                                    4 1s    0.68745     4 1s   -0.99459     5 1s    0.60532     5 1s   -1.16772     6 1s    0.39553
   22.1    -0.00000     1.11651     1 2py   0.54942     1 2py  -0.75491     2 2py   0.55054     2 2py  -0.60236     3 1s    0.39630
                                    4 1s    0.81691     4 1s   -1.13307     5 1s   -0.57315     5 1s    1.05936     6 1s    0.34070
                                    6 1s   -0.56481
   23.1    -0.00000     1.15157     1 1s   -1.16330     1 2px   0.37611     1 2py  -0.41241     1 2px  -0.93831     1 2py   0.69588
                                    1 2pz   0.40128     2 1s    0.50677     2 2px   0.43852     2 2px  -1.33835     2 2py   0.56265
                                    3 1s    0.83228     3 1s   -1.13194     4 1s    0.26127     5 1s   -0.36703     5 1s    0.60138
                                    6 1s   -0.31734     6 1s    1.19148
   24.1    -0.00000     1.19165     1 2py  -0.36681     1 2px  -0.29327     1 2py   0.37721     2 1s   -0.92359     2 1s    1.74512
                                    2 2px  -0.31918     2 2pz   0.30230     3 1s    0.63874     3 1s   -0.69079     4 1s    0.37467
                                    5 1s   -0.32753     6 1s    0.82652     6 1s   -1.20033
   25.1    -0.00000     1.22178     1 1s   -2.03567     1 1s    4.60901     1 2pz  -1.34361     2 1s   -0.90200     2 2px   1.06410
                                    2 2py  -0.79726     3 1s   -1.35830     4 1s   -0.76237     5 1s   -0.33045     6 1s   -0.51278
   26.1    -0.00000     1.32143     1 1s    0.63528     1 1s   -2.99762     1 2px  -1.36553     1 2py   0.89763     1 2pz   0.41089
                                    2 1s   -1.86411     2 1s    5.31055     2 2px  -0.63337     2 2py   0.42432     2 2pz   1.60768
                                    4 1s    0.27947     5 1s   -0.58987     5 1s   -0.67987     6 1s   -0.44315     6 1s   -0.77386
   27.1    -0.00000     1.69549     1 1s    0.63338     1 3d0   0.39421     1 3d2- -0.31790     2 1s   -0.40473     2 3d0  -0.25622
                                    2 3d2-  0.31925     2 3d2+  0.39673
   28.1    -0.00000     1.90882     1 2px   0.30529     1 2py  -0.26073     1 3d1+  0.44094     1 3d2+  0.36551     1 3d1-  0.33133
                                    2 1s    0.42646     2 1s   -1.14934     2 2pz  -0.48528     2 3d0   0.48746     2 3d2+  0.28206
                                    2 3d1-  0.26226     3 1s    0.28053     6 1s    0.35108     6 1s    0.26695
   29.1    -0.00000     1.94764     1 1s    0.28596     1 1s   -1.28827     1 2px  -0.33405     1 2pz   0.31197     1 3d2-  0.29911
                                    1 3d1+ -0.30637     1 3d1- -0.26126     2 1s   -0.31692     2 1s    1.35920     2 2px  -0.25483
                                    2 2pz   0.37508     2 3d2- -0.25812     2 3d1+  0.46522     2 3d2+  0.29937     2 3d1-  0.48537
                                    3 1s    0.31725     6 1s   -0.31618
   30.1    -0.00000     2.18902     1 1s    0.39921     1 1s   -1.69040     1 2px  -0.39730     1 2pz   0.45387     1 3d0   0.67642
                                    1 3d2+  0.41395     2 1s   -0.27993     2 1s    1.48815     2 2px  -0.33728     2 2py   0.31855
                                    2 2pz   0.39412     2 3d0  -0.41982     2 3d2- -0.25035     2 3d2+ -0.29427     3 1s    0.38065
                                    4 1s    0.40675     6 1s   -0.30710
   31.1    -0.00000     2.24603     1 1s    0.51784     1 1s   -0.46566     1 2px   0.26749     1 2px  -0.31669     1 3d2-  0.34916
                                    1 3d1+  0.38509     1 3d2+ -0.39383     2 1s    0.44801     2 2px  -0.26668     2 2px   0.27136
                                    2 3d2-  0.28229     2 3d1+  0.40645     2 3d2+ -0.37685
   32.1    -0.00000     2.34196     1 2py   0.39247     1 3d0   0.39952     1 3d2- -0.34631     1 3d1- -0.39127     2 1s   -0.32928
                                    2 2px   0.29042     2 2py  -0.38124     2 3d0   0.59890     2 3d2- -0.36268     2 3d1- -0.37441
                                    3 1s   -0.33954     4 1s    0.33954     5 1s    0.43256
   33.1    -0.00000     2.55859     1 1s    0.27228     1 2py  -0.42408     1 3d2-  0.42344     1 3d1-  0.71949     2 3d2- -0.51801
                                    2 3d1- -0.46452     3 1s    0.51914     4 1s   -0.44910     5 1s    0.34621     6 1s   -0.42539
   34.1    -0.00000     2.63577     1 2py  -0.29480     1 3d2- -0.53351     1 3d2+ -0.53164     1 3d1-  0.41886     2 1s    0.25213
                                    2 2py   0.33247     2 3d2- -0.36115     2 3d2+ -0.49776     2 3d1-  0.56821     4 1s   -0.31879
                                    5 1s   -0.36981
   35.1    -0.00000     2.71940     1 3d0  -0.45229     1 3d2- -0.43538     1 3d1+  0.45273     2 3d0  -0.38827     2 3d2- -0.49543
                                    2 3d1+  0.55712     2 3d1- -0.28237     3 1s   -0.41609     6 1s   -0.50389
   36.1    -0.00000     2.95585     1 1s   -1.76269     1 2px  -0.43142     1 2px  -0.87830     1 2py   0.25261     1 2pz   0.45539
                                    1 3d2-  0.32726     1 3d1+  0.70286     1 3d2+ -0.64189     2 1s    1.73171     2 2px  -0.42783
                                    2 2px  -0.89520     2 2pz   0.43875     2 3d2- -0.35933     2 3d1+ -0.69558     2 3d2+  0.64226


 Natural orbital dump (state averaged) at molpro section  2140.2    (Orbital set 2)



 **********************************************************************************************************************************
 DATASETS  * FILE   NREC   LENGTH (MB)   RECORD NAMES
              1      20       31.86       500      610      700      900      950      970     1000      129      960     1100   
                                          VAR    BASINP    GEOM    SYMINP    ZMAT    AOBASIS   BASIS     P2S    ABASIS      S 
                                         1400     1410     1200     1210     1080     1600     1650     1300     1700     1380   
                                           T        V       H0       H01     AOSYM     SMH    MOLCAS    ERIS     OPER     JKOP   

              2       5        5.42       700     1000      520     2100     2140   
                                         GEOM     BASIS   MCVARS     RHF     MCSCF   

 PROGRAMS   *        TOTAL     MULTI    HF-SCF       INT
 CPU TIMES  *         0.76      0.38      0.09      0.18
 REAL TIME  *         1.38 SEC
 DISK USED  *        39.04 MB
 **********************************************************************************************************************************
 Molecular orbitals read from record     2140.2  Type=MCSCF/NATURAL (state averaged)
 Occupation numbers read from record     2140.2  Type=MCSCF/NATURAL (state averaged)
 Orbital energies read from record       2140.2  Type=MCSCF/NATURAL (state averaged)
 Redundancy group numbers read from rec  2140.2  Type=MCSCF/NATURAL (state averaged)

 MULTI/6-31G* energy=    -77.549971081051

           MULTI          HF-SCF
    -77.54997108    -77.84449021
 **********************************************************************************************************************************
 Molpro calculation terminated
