
 Primary working directories    : /scratch.local/johan406.molpro_temp/molpro.WKmp15mHLt
 Secondary working directories  : /scratch.local/johan406.molpro_temp/molpro.WKmp15mHLt
 Wavefunction directory         : /home/goodpast/johan406/wfu/
 Main file repository           : /scratch.local/johan406.molpro_temp/molpro.WKmp15mHLt/

 id        : roweumn

 Nodes     nprocs
 acn09        1

 Using customized tuning parameters: mindgm=1; mindgv=20; mindgc=4; mindgr=1; noblas=0; minvec=7
 default implementation of scratch files=df  


 Variables initialized (934), CPU time= 0.00 sec
                                                                                 !leave this line blank
 
 gprint, orbitals=30
 memory, 125., m
 symmetry, nosym
 nelect=16
 basis=6-31g*
 
 geometry={
 C -0.6382 0.1338 0.2947
 C 0.6236 -0.1915 -0.3629
 H -1.2005 0.9807 -0.1099
 H -0.8936 -0.8936 -0.1472
 H 1.0397 0.7888 0.0672
 H 1.3427 -0.8621 0.1396
 }
 
 hf
 {multi,
 closed 7
 occ 9
 wf,spin=0;STATE,3
 }
 
 Commands  initialized (763), CPU time= 0.00 sec, 617 directives.
 Default parameters read. Elapsed time= 0.08 sec

 Checking input...
 Passed
1


                                         ***  PROGRAM SYSTEM MOLPRO  ***
                                       Copyright, TTI GmbH Stuttgart, 2015
                                    Version 2019.2 linked Oct 25 2019 22:50:27


 **********************************************************************************************************************************
 LABEL *                                                                                 
  64 bit serial version                                                                  DATE: 07-Feb-23          TIME: 15:20:51  
 **********************************************************************************************************************************

 SHA1:             8dbd9ae1082e4ce945b0f27595c9eb2d4aa09004
 **********************************************************************************************************************************


 Variable memory set to  125000000 words,  buffer space 

 SETTING NELECT         =        16.00000000                                  
 SETTING BASIS          =    6-31G*
 ZSYMEL=NOSYM


Geometry recognized as XYZ



 Recomputing integrals since basis changed


 Using spherical harmonics

 Library entry C      S 6-31G                selected for orbital group  1
 Library entry C      P 6-31G                selected for orbital group  1
 Library entry C      D 6-31G*               selected for orbital group  1
 Library entry H      S 6-31G                selected for orbital group  2


 PROGRAM * SEWARD (Integral evaluation for generally contracted gaussian basis sets)     Author: Roland Lindh, 1990

 Geometry written to block  1 of record 700


 Point group  C1  



 ATOMIC COORDINATES

 NR  ATOM    CHARGE       X              Y              Z

   1  C       6.00   -1.206023213    0.252845355    0.556902289
   2  C       6.00    1.178433211   -0.361882553   -0.685781611
   3  H       1.00   -2.268616213    1.853254410   -0.207680901
   4  H       1.00   -1.688659265   -1.688659265   -0.278167686
   5  H       1.00    1.964748252    1.490615967    0.126989596
   6  H       1.00    2.537335267   -1.629132892    0.263805767

 Bond lengths in Bohr (Angstrom)

 1-2  2.758221549  1-3  2.067607429  1-4  2.167883671  2-5  2.170400687  2-6  2.086685028
     ( 1.459587986)     ( 1.094130733)     ( 1.147194635)     ( 1.148526582)     ( 1.104226163)

 Bond angles

  1-2-5   87.37793329   1-2-6  119.55785297   2-1-3  116.75576596   2-1-4   79.59039808

  3-1-4  115.87136519   5-2-6   96.43081575

 NUCLEAR CHARGE:                   16
 NUMBER OF PRIMITIVE AOS:          72
 NUMBER OF SYMMETRY AOS:           70
 NUMBER OF CONTRACTIONS:           36   (   36A   )
 NUMBER OF CORE ORBITALS:           2   (    2A   )
 NUMBER OF VALENCE ORBITALS:       12   (   12A   )


 NUCLEAR REPULSION ENERGY   32.31335533

 Eigenvalues of metric

         1 0.928E-02 0.281E-01 0.602E-01 0.626E-01 0.820E-01 0.220E+00 0.237E+00 0.273E+00


 Contracted 2-electron integrals neglected if value below      1.0D-11
 AO integral compression algorithm  1   Integral accuracy      1.0D-11

     1.573 MB (compressed) written to integral file ( 59.2%)


 NUMBER OF SORTED TWO-ELECTRON INTEGRALS:     222111.     BUFFER LENGTH:  32768
 NUMBER OF SEGMENTS:   1  SEGMENT LENGTH:     222111      RECORD LENGTH: 524288

 Memory used in sort:       0.78 MW

 SORT1 READ      284735. AND WROTE      212531. INTEGRALS IN      1 RECORDS. CPU TIME:     0.01 SEC, REAL TIME:     0.00 SEC
 SORT2 READ      212531. AND WROTE      222111. INTEGRALS IN      6 RECORDS. CPU TIME:     0.02 SEC, REAL TIME:     0.02 SEC

 FILE SIZES:   FILE 1:    31.7 MBYTE,  FILE 4:     4.2 MBYTE,   TOTAL:     35.9 MBYTE

 OPERATOR DM      FOR CENTER  0  COORDINATES:    0.000000    0.000000    0.000000


 **********************************************************************************************************************************
 DATASETS  * FILE   NREC   LENGTH (MB)   RECORD NAMES
              1      19       31.13       500      610      700      900      950      970     1000      129      960     1100   
                                          VAR    BASINP    GEOM    SYMINP    ZMAT    AOBASIS   BASIS     P2S    ABASIS      S 
                                         1400     1410     1200     1210     1080     1600     1650     1300     1700   
                                           T        V       H0       H01     AOSYM     SMH    MOLCAS    ERIS     OPER   

 PROGRAMS   *        TOTAL       INT
 CPU TIMES  *         0.28      0.18
 REAL TIME  *         0.55 SEC
 DISK USED  *        36.24 MB
 **********************************************************************************************************************************


 PROGRAM * RHF-SCF (CLOSED SHELL)       Authors: W. Meyer, H.-J. Werner


 NUMBER OF ELECTRONS:       8+    8-    SPACE SYMMETRY=1    SPIN SYMMETRY: Singlet 
 CONVERGENCE THRESHOLDS:    1.00E-05 (Density)    1.00E-07 (Energy)
 MAX. NUMBER OF ITERATIONS:       60
 INTERPOLATION TYPE:            DIIS
 INTERPOLATION STEPS:              2 (START)      1 (STEP)
 LEVEL SHIFTS:                  0.00 (CLOSED)  0.00 (OPEN) 



 Orbital guess generated from atomic densities. Full valence occupancy:    8

 Molecular orbital dump at record        2100.2

 Initial occupancy:   8

 ITERATION    DDIFF          GRAD             ENERGY        2-EL.EN.            DIPOLE MOMENTS         DIIS   ORB.
    1      0.000D+00      0.000D+00       -77.82176184    115.839517    0.05778    0.02477    0.03754    0    start
    2      0.000D+00      0.702D-02       -77.83977407    114.815392   -0.00090    0.03264    0.05753    1    diag
    3      0.756D-02      0.228D-02       -77.84186785    115.235807   -0.00365    0.03570    0.06219    2    diag
    4      0.297D-02      0.830D-03       -77.84231601    115.105744   -0.01444    0.03639    0.06679    3    diag
    5      0.162D-02      0.292D-03       -77.84244886    115.113340   -0.01654    0.03646    0.06783    4    diag
    6      0.976D-03      0.130D-03       -77.84248813    115.115070   -0.01954    0.03773    0.07207    5    diag
    7      0.492D-03      0.695D-04       -77.84249675    115.115695   -0.01737    0.03628    0.06920    6    diag
    8      0.235D-03      0.340D-04       -77.84249864    115.116653   -0.01764    0.03671    0.07024    7    diag
    9      0.127D-03      0.970D-05       -77.84249884    115.116880   -0.01738    0.03661    0.07005    8    diag
   10      0.438D-04      0.306D-05       -77.84249885    115.116860   -0.01728    0.03663    0.07001    9    orth
   11      0.986D-05      0.770D-06       -77.84249885    115.116865   -0.01727    0.03663    0.07002    0    orth

 Final occupancy:   8

 !RHF STATE  1.1 Energy               -77.842498851361
 Nuclear energy                        32.31335533
 One-electron energy                 -167.71428645
 Two-electron energy                   57.55843227
 Virial quotient                       -1.00148984
 !RHF STATE  1.1 Dipole moment         -0.01727185     0.03663496     0.07001626
 Dipole moment /Debye                  -0.04389778     0.09311068     0.17795192

 ELECTRON ORBITALS
 =================

  Orbital  Occupation    Energy     Coefficients
    1.1     2.00000   -11.26515     1 1s    0.99520
    2.1     2.00000   -11.25602     2 1s    0.99523
    3.1     2.00000    -1.03741     1 1s    0.28623     2 1s    0.27946     2 1s    0.25056
    4.1     2.00000    -0.78266     1 1s   -0.29162     2 1s    0.29824
    5.1     2.00000    -0.62811     1 2py   0.36396
    6.1     2.00000    -0.55194     1 2px   0.30521     2 2px  -0.27971     2 2py   0.28308
    7.1     2.00000    -0.39211     1 2pz   0.30401     1 2pz   0.27531     2 2pz   0.30159     2 2pz   0.28557
    8.1     2.00000    -0.38532     1 2px   0.29334     4 1s   -0.27751     5 1s   -0.29161
    9.1     0.00000     0.06317     1 1s    0.37612     1 2pz   0.34193     1 2pz   0.48556     2 1s    0.42991     2 2pz  -0.31703
                                    2 2pz  -0.44435
   10.1     0.00000     0.22829     1 1s   -1.18708     1 2px   0.48152     1 2py   0.30131     1 2pz   0.45486     2 1s   -0.92424
                                    2 2px  -0.43764     2 2py  -0.42455     2 2pz  -0.36564     3 1s    0.72703     4 1s    1.07086
                                    5 1s    1.05515     6 1s    0.34273
   11.1     0.00000     0.27947     1 1s    1.27534     1 2py   0.31981     1 2pz  -0.27432     2 1s   -1.82068     2 2py   0.32049
                                    2 2pz  -0.64141     3 1s   -1.13157     6 1s    1.67665
   12.1     0.00000     0.31213     1 1s   -0.70910     1 2py  -0.26290     1 2px   0.32007     1 2py  -1.26078     1 2pz   0.39349
                                    2 1s   -0.68574     2 2px  -0.44582     2 2py   0.71105     2 2pz  -0.46006     3 1s    1.75058
                                    4 1s   -0.78621     6 1s    1.25717
   13.1     0.00000     0.33461     1 1s    1.11705     1 2px  -0.29700     1 2py  -0.49958     1 2pz  -0.36094     2 1s   -0.85908
                                    2 2py  -0.25709     2 2px  -0.30060     2 2py  -0.94970     3 1s   -0.29191     4 1s   -1.57949
                                    5 1s    1.73070
   14.1     0.00000     0.42282     1 1s    2.12766     1 2px   1.74343     1 2py  -0.65266     1 2pz  -0.83464     2 1s   -1.99768
                                    2 2px   1.80302     2 2py  -0.61321     2 2pz  -0.76069     3 1s    0.52115     4 1s   -0.29252
                                    6 1s   -0.67264
   15.1     0.00000     0.70243     1 2px  -0.59711     1 2px   0.87871     2 2px   0.49608     2 2pz  -0.26898     2 2px  -0.96336
                                    4 1s   -0.47615     5 1s   -0.38862     6 1s    0.28992
   16.1     0.00000     0.76369     1 1s   -0.32378     1 2py  -0.25963     1 2px  -0.49997     1 2py   0.63131     2 1s    0.26235
                                    2 2px   0.27698     2 2py  -0.47450     2 2px  -0.69794     2 2py   0.87797     3 1s   -0.43393
                                    5 1s   -0.30248     6 1s    0.52190
   17.1     0.00000     0.79082     1 2py  -0.61369     1 2pz  -0.55011     1 2py   1.38385     1 2pz   0.57494     2 1s    0.36720
                                    2 2py   0.42444     2 2py  -0.83796     4 1s    0.37133
   18.1     0.00000     0.80097     1 2pz  -0.62968     1 2py  -0.51206     1 2pz   0.61333     2 2py  -0.28065     2 2pz  -0.71181
                                    2 2py   0.57658     2 2pz   0.66027
   19.1     0.00000     0.86557     1 1s   -0.33875     1 2px  -0.29832     1 2pz  -0.62830     1 2px   0.50000     1 2py  -0.60550
                                    1 2pz   0.88720     2 1s   -0.37232     2 2pz   0.73519     2 2px  -0.41499     2 2py   0.48792
                                    2 2pz  -1.00801
   20.1     0.00000     0.97257     1 2px   0.66527     1 2py   0.35605     1 2px  -1.00874     1 2py  -0.74717     2 1s   -0.32079
                                    2 1s    0.37228     2 2px   0.75394     2 2py   0.37623     2 2px  -1.20781     2 2py  -0.81241
                                    4 1s   -1.12818     5 1s    0.93365
   21.1     0.00000     1.10267     1 1s   -0.47973     1 1s    0.45538     1 2px   0.43974     1 2px  -0.84058     2 1s   -0.48881
                                    2 1s    1.31268     2 2py  -0.59263     2 2px  -0.32715     2 2py   0.89039     3 1s    0.27332
                                    3 1s   -0.71398     4 1s    0.62532     4 1s   -0.78651     5 1s    0.54754     5 1s   -1.14135
                                    6 1s   -0.35363     6 1s    0.71648
   22.1     0.00000     1.13507     1 1s   -0.33634     1 2py   0.57504     1 2py  -0.80028     2 1s    0.77064     2 2px  -0.40250
                                    2 2py   0.47102     2 2py  -0.51019     3 1s    0.54170     4 1s    0.82505     4 1s   -1.13290
                                    5 1s   -0.28131     5 1s    0.58533     6 1s    0.54479     6 1s   -0.92010
   23.1     0.00000     1.15337     1 1s    0.44729     1 1s   -1.57146     1 2px   0.29954     1 2py  -0.39973     1 2px  -0.80880
                                    1 2py   0.57262     1 2pz   0.53285     2 1s    0.47410     2 2px   0.29952     2 2px  -1.26483
                                    2 2py   0.30161     3 1s    0.92052     3 1s   -0.95096     4 1s    0.35880     5 1s   -0.48165
                                    5 1s    0.92093     6 1s    0.71666
   24.1     0.00000     1.19280     1 1s   -0.66148     1 1s    1.24029     1 2py  -0.42886     1 2py   0.46644     1 2pz  -0.30842
                                    2 1s   -1.02799     2 1s    1.51260     2 2px  -0.31371     2 2pz  -0.30574     2 2px   0.66542
                                    2 2py  -0.27174     2 2pz   0.42997     3 1s    0.44933     3 1s   -0.95265     4 1s   -0.40837
                                    4 1s    0.28657     5 1s    0.28134     5 1s   -0.58098     6 1s    0.65887     6 1s   -1.32054
   25.1     0.00000     1.22408     1 1s   -1.91316     1 1s    4.42805     1 2pz   0.27325     1 2px   0.31095     1 2pz  -1.28783
                                    2 1s    0.34354     2 1s   -1.66550     2 2px   0.89416     2 2py  -0.80969     3 1s   -1.11960
                                    4 1s   -0.94746     5 1s   -0.48179     5 1s    0.52054     6 1s   -0.33545
   26.1     0.00000     1.34299     1 1s    0.54850     1 1s   -2.79966     1 2px  -1.33710     1 2py   0.89912     1 2pz   0.35732
                                    2 1s   -1.79253     2 1s    5.14306     2 2px  -0.56126     2 2py   0.43110     2 2pz   1.60879
                                    4 1s    0.26669     5 1s   -0.65812     5 1s   -0.62296     6 1s   -0.47213     6 1s   -0.75035
   27.1     0.00000     1.70345     1 1s    0.58733     1 3d0   0.40758     1 3d2- -0.32495     2 1s   -0.31173     2 3d2-  0.32232
                                    2 3d2+  0.40707
   28.1     0.00000     1.90755     1 2px   0.32283     1 2py  -0.26740     1 3d1+  0.45161     1 3d2+  0.35431     1 3d1-  0.32253
                                    2 1s    0.45538     2 1s   -1.23892     2 2pz  -0.51742     2 3d0   0.50861     2 3d2+  0.26047
                                    2 3d1-  0.26253     3 1s    0.28213     6 1s    0.36868     6 1s    0.26977
   29.1     0.00000     1.95649     1 1s    0.28132     1 1s   -1.29382     1 2px  -0.35815     1 2pz   0.30103     1 3d2-  0.29895
                                    1 3d1+ -0.29682     2 1s   -0.34378     2 1s    1.43060     2 2pz   0.40732     2 3d1+  0.46651
                                    2 3d2+  0.31750     2 3d1-  0.49536     3 1s    0.30475     6 1s   -0.32341
   30.1     0.00000     2.19201     1 1s    0.42243     1 1s   -1.71643     1 2px  -0.41561     1 2pz   0.46650     1 3d0   0.69596
                                    1 3d2+  0.40610     2 1s    1.44487     2 2px  -0.32245     2 2py   0.31840     2 2pz   0.38141
                                    2 3d0  -0.37401     2 3d2- -0.26584     2 3d2+ -0.29365     3 1s    0.38677     4 1s    0.42298
                                    6 1s   -0.29664
   31.1     0.00000     2.25091     1 1s    0.50983     1 1s   -0.41901     1 2px   0.26122     1 2px  -0.31449     1 3d2-  0.34477
                                    1 3d1+  0.36433     1 3d2+ -0.41495     2 1s    0.45451     2 2px  -0.25862     2 2px   0.29103
                                    2 3d2-  0.27081     2 3d1+  0.40833     2 3d2+ -0.35921
   32.1     0.00000     2.34744     1 1s    0.32679     1 2py   0.38487     1 3d0   0.37222     1 3d2- -0.35529     1 3d1- -0.39231
                                    2 1s   -0.39489     2 2px   0.29229     2 2py  -0.36833     2 3d0   0.61085     2 3d2- -0.35911
                                    2 3d1- -0.35708     3 1s   -0.34648     4 1s    0.34464     5 1s    0.45201
   33.1     0.00000     2.55420     1 1s    0.28587     1 2py  -0.44667     1 3d2-  0.40656     1 3d1-  0.73688     2 3d2- -0.51747
                                    2 3d1- -0.43919     3 1s    0.51579     4 1s   -0.46302     5 1s    0.34812     6 1s   -0.40116
   34.1     0.00000     2.64375     1 2py  -0.28093     1 3d2- -0.53991     1 3d2+ -0.54169     1 3d1-  0.39992     2 1s    0.26659
                                    2 2py   0.32677     2 3d2- -0.33835     2 3d2+ -0.49863     2 3d1-  0.57509     4 1s   -0.31974
                                    5 1s   -0.38136
   35.1     0.00000     2.71096     1 3d0  -0.45355     1 3d2- -0.43355     1 3d1+  0.43978     2 3d0  -0.37702     2 3d2- -0.51297
                                    2 3d1+  0.56411     2 3d1- -0.27986     3 1s   -0.40043     6 1s   -0.51065
   36.1     0.00000     2.96022     1 1s   -1.73431     1 2px  -0.43809     1 2px  -0.86410     1 2pz   0.44864     1 3d2-  0.32639
                                    1 3d1+  0.69822     1 3d2+ -0.64478     2 1s    1.69765     2 2px  -0.43404     2 2px  -0.88634
                                    2 2pz   0.42890     2 3d2- -0.36301     2 3d1+ -0.69502     2 3d2+  0.64475


 HOMO      8.1    -0.385319 =     -10.4851eV
 LUMO      9.1     0.063165 =       1.7188eV
 LUMO-HOMO         0.448485 =      12.2039eV


 **********************************************************************************************************************************
 DATASETS  * FILE   NREC   LENGTH (MB)   RECORD NAMES
              1      19       31.13       500      610      700      900      950      970     1000      129      960     1100   
                                          VAR    BASINP    GEOM    SYMINP    ZMAT    AOBASIS   BASIS     P2S    ABASIS      S 
                                         1400     1410     1200     1210     1080     1600     1650     1300     1700   
                                           T        V       H0       H01     AOSYM     SMH    MOLCAS    ERIS     OPER   

              2       4        2.86       700     1000      520     2100   
                                         GEOM     BASIS   MCVARS     RHF  

 PROGRAMS   *        TOTAL    HF-SCF       INT
 CPU TIMES  *         0.39      0.11      0.18
 REAL TIME  *         0.68 SEC
 DISK USED  *        36.24 MB
 **********************************************************************************************************************************


 PROGRAM * MULTI (Direct Multiconfiguration SCF)       Authors: P.J. Knowles, H.-J. Werner (1984)


 Number of closed-shell orbitals:   7 (   7 )
 Number of active  orbitals:        2 (   2 )
 Number of external orbitals:      27 (  27 )

 State symmetry 1

 Number of electrons:     2    Spin symmetry=Singlet   Space symmetry=1
 Number of states:        3
 Number of CSFs:          3   (4 determinants, 4 intermediate states)

 Molecular orbitals read from record     2100.2  Type=RHF/CANONICAL (state 1.1)

 Wavefunction dump at record             2140.2

 Convergence thresholds  0.10E-01 (gradient)  0.10E-05 (energy)  0.10E-02 (step length)

 Weight factors for state symmetry  1:    0.33333   0.33333   0.33333

 Number of orbital rotations:      257   (    14 Core/Active    189 Core/Virtual   0 Active/Active     54 Active/Virtual)
 Total number of variables:        269

 Micro-Iterations solved by the two-step solver

 ITER. MIC  NCI  NEG     ENERGY(VAR)     ENERGY(PROJ)   ENERGY CHANGE     GRAD(0)  GRAD(ORB)   GRAD(CI)     STEP       TIME

   1   12    6    0     -77.68563022     -77.70647353   -0.02084331    0.16684429 0.00151549 0.00000000  0.15D+00      0.16
   2    7    5    0     -77.70608610     -77.70613035   -0.00004425    0.00990829 0.00001748 0.00000000  0.64D-02      0.26
   3    7    5    0     -77.70613045     -77.70613045   -0.00000000    0.00003006 0.00000000 0.00000000  0.37D-04      0.36

 ** WVFN ****  CONVERGENCE REACHED, FINAL GRADIENT:  0.56D-09



 Results for state 1.1
 =====================

 !MCSCF STATE  1.1 Energy             -77.836187204694
 Nuclear energy                        32.31335533
 Kinetic energy                        77.78002679
 One electron energy                 -167.78513281
 Two electron energy                   57.63559028
 Virial ratio                           2.00072204

 !MCSCF STATE  1.1 Dipole moment       -0.04627441     0.04855099     0.05937422
 Dipole moment /Debye                  -0.11761012     0.12339622     0.15090434

 Results for state 2.1
 =====================

 !MCSCF STATE  2.1 Energy             -77.733540278862
 Nuclear energy                        32.31335533
 Kinetic energy                        77.85874581
 One electron energy                 -167.49024617
 Two electron energy                   57.44335057
 Virial ratio                           1.99839189

 !MCSCF STATE  2.1 Dipole moment        0.01372539     0.05196895     0.06246690
 Dipole moment /Debye                   0.03488418     0.13208325     0.15876463

 Results for state 3.1
 =====================

 !MCSCF STATE  3.1 Energy             -77.548663857499
 Nuclear energy                        32.31335533
 Kinetic energy                        77.92336948
 One electron energy                 -167.24136385
 Two electron energy                   57.37934467
 Virial ratio                           1.99519136

 !MCSCF STATE  3.1 Dipole moment        0.05248817     0.05128436     0.06393363
 Dipole moment /Debye                   0.13340288     0.13034331     0.16249243

 State-averaged charge density matrix saved on record  2140.2 (density set 1)

 !MCSCF expec         <1.1|DMX|1.1>    -0.046274412054 au =    -0.117610120188 Debye
 !MCSCF trans         <2.1|DMX|1.1>     0.043342760021 au =     0.110159092014 Debye
 !MCSCF expec         <2.1|DMX|2.1>     0.013725391582 au =     0.034884180736 Debye
 !MCSCF trans         <3.1|DMX|1.1>    -0.008302684862 au =    -0.021101937791 Debye
 !MCSCF trans         <3.1|DMX|2.1>     0.051602653875 au =     0.131152273035 Debye
 !MCSCF expec         <3.1|DMX|3.1>     0.052488167709 au =     0.133402877285 Debye

 !MCSCF expec         <1.1|DMY|1.1>     0.048550986631 au =     0.123396216602 Debye
 !MCSCF trans         <2.1|DMY|1.1>     0.008691477075 au =     0.022090084303 Debye
 !MCSCF expec         <2.1|DMY|2.1>     0.051968953044 au =     0.132083251679 Debye
 !MCSCF trans         <3.1|DMY|1.1>    -0.000818286654 au =    -0.002079740995 Debye
 !MCSCF trans         <3.1|DMY|2.1>     0.009679177325 au =     0.024600403505 Debye
 !MCSCF expec         <3.1|DMY|3.1>     0.051284362382 au =     0.130343309744 Debye

 !MCSCF expec         <1.1|DMZ|1.1>     0.059374224354 au =     0.150904341133 Debye
 !MCSCF trans         <2.1|DMZ|1.1>     0.003376923302 au =     0.008582720725 Debye
 !MCSCF expec         <2.1|DMZ|2.1>     0.062466902491 au =     0.158764630032 Debye
 !MCSCF trans         <3.1|DMZ|1.1>    -0.000491381821 au =    -0.001248886209 Debye
 !MCSCF trans         <3.1|DMZ|2.1>     0.003897662306 au =     0.009906220563 Debye
 !MCSCF expec         <3.1|DMZ|3.1>     0.063933626727 au =     0.162492427017 Debye


 NATURAL ORBITALS (state averaged)
 =================================

  Orbital  Occupation    Energy     Coefficients
    1.1     2.00000   -11.25735     1 1s    0.99260
    2.1     2.00000   -11.25298     2 1s    0.99263
    3.1     2.00000    -1.04990     1 1s    0.27973     2 1s    0.27598
    4.1     2.00000    -0.78393     1 1s   -0.31739     2 1s    0.32068
    5.1     2.00000    -0.63047     1 2py   0.35807
    6.1     2.00000    -0.54973     1 2px   0.25540     2 2py   0.31130
    7.1     2.00000    -0.41912     1 2pz   0.31692     1 2pz   0.27070     2 2pz   0.33021     2 2pz   0.28816
    8.1     1.00000    -0.08678     1 2pz   0.42027     1 2pz   0.44286     2 1s    0.29947     2 2pz  -0.38588     2 2pz  -0.41046
    9.1     1.00000    -0.22960     1 2px   0.32561     2 2px  -0.28875     4 1s   -0.29179     5 1s   -0.29928
   10.1    -0.00000     0.21655     1 1s   -1.16177     1 2px   0.47617     1 2py   0.32136     1 2pz   0.38819     2 1s   -0.98033
                                    2 2px  -0.44608     2 2py  -0.43433     2 2pz  -0.32653     3 1s    0.66609     4 1s    1.06554
                                    5 1s    1.08554     6 1s    0.35749
   11.1    -0.00000     0.27769     1 1s    1.37085     1 2pz  -0.30618     2 1s   -1.91161     2 2py   0.26997     2 2pz  -0.65038
                                    3 1s   -1.09026     5 1s    0.36653     6 1s    1.67714
   12.1    -0.00000     0.31284     1 1s   -0.26894     1 2py  -0.31519     1 2py  -1.40450     2 1s   -0.94063     2 2px  -0.43558
                                    2 2pz  -0.47048     3 1s    1.62274     4 1s   -1.32883     5 1s    0.60567     6 1s    0.91468
   13.1    -0.00000     0.32139     1 1s    1.38175     1 2px  -0.30864     1 2pz  -0.50206     2 1s   -0.47028     2 2py  -0.30681
                                    2 2py  -1.21155     3 1s   -0.85217     4 1s   -1.19645     5 1s    1.59370     6 1s   -0.88329
   14.1    -0.00000     0.42877     1 1s    1.99182     1 2px   1.75448     1 2py  -0.54903     1 2pz  -0.77286     2 1s   -1.86780
                                    2 2px   0.25424     2 2px   1.81882     2 2py  -0.50558     2 2pz  -0.70973     3 1s    0.51668
                                    6 1s   -0.67449
   15.1    -0.00000     0.69940     1 2px  -0.58122     1 2px   0.83685     2 2px   0.48144     2 2pz  -0.26069     2 2px  -0.95813
                                    4 1s    0.26177     4 1s   -0.53582     5 1s   -0.44353     6 1s    0.30096
   16.1    -0.00000     0.76036     1 1s   -0.42196     1 2px  -0.53273     1 2py   0.62902     2 1s    0.36344     2 2px   0.28030
                                    2 2py  -0.46448     2 2px  -0.74986     2 2py   0.90649     3 1s   -0.42284     5 1s   -0.32335
                                    6 1s    0.52277
   17.1    -0.00000     0.79016     1 2py  -0.58512     1 2pz  -0.54289     1 2px  -0.29622     1 2py   1.37735     1 2pz   0.67009
                                    2 1s    0.43714     2 2py   0.40491     2 2py  -0.79793     4 1s    0.37725
   18.1    -0.00000     0.80128     1 1s   -0.35991     1 2py   0.25138     1 2pz  -0.63536     1 2py  -0.51342     1 2pz   0.66367
                                    2 2py  -0.25455     2 2pz  -0.70150     2 2py   0.58267     2 2pz   0.72039     3 1s    0.25085
   19.1    -0.00000     0.86393     1 1s   -0.29799     1 2px  -0.31337     1 2pz  -0.59226     1 2px   0.53350     1 2py  -0.61675
                                    1 2pz   0.92522     2 1s   -0.32973     2 2pz   0.72064     2 2px  -0.45683     2 2py   0.48042
                                    2 2pz  -1.07347     3 1s    0.27935     6 1s    0.28370
   20.1    -0.00000     0.97891     1 2px   0.65794     1 2py   0.35234     1 2px  -0.92189     1 2py  -0.75068     2 1s   -0.31406
                                    2 1s    0.28412     2 2px   0.75140     2 2py   0.38759     2 2px  -1.11499     2 2py  -0.84240
                                    4 1s   -1.06974     5 1s    0.90475
   21.1    -0.00000     1.08135     1 1s   -0.47922     1 1s    0.49944     1 2px   0.42449     1 2px  -0.76965     2 1s   -0.58367
                                    2 1s    1.42111     2 2py  -0.52723     2 2py   0.77076     3 1s   -0.44831     4 1s    0.71452
                                    4 1s   -0.98763     5 1s    0.57098     5 1s   -1.10623     6 1s    0.45859
   22.1    -0.00000     1.11205     1 1s   -0.46852     1 2py   0.50346     1 2py  -0.70345     2 2py   0.55734     2 2py  -0.56406
                                    3 1s    0.32625     4 1s    0.79847     4 1s   -1.05921     5 1s   -0.58958     5 1s    1.13376
                                    6 1s    0.36746     6 1s   -0.50961
   23.1    -0.00000     1.14942     1 1s    0.34649     1 1s   -1.31922     1 2px   0.35886     1 2py  -0.46592     1 2px  -0.88501
                                    1 2py   0.73911     1 2pz   0.44388     2 1s    0.53697     2 1s   -0.29112     2 2px   0.46955
                                    2 2px  -1.36710     2 2py   0.57161     3 1s    0.82122     3 1s   -1.09015     4 1s    0.43576
                                    5 1s   -0.32833     5 1s    0.58768     6 1s   -0.30493     6 1s    1.21228
   24.1    -0.00000     1.18985     1 1s   -0.45376     1 2py  -0.37287     1 2px  -0.31214     1 2py   0.38911     2 1s   -0.97103
                                    2 1s    1.87715     2 2px  -0.31419     2 2pz   0.33709     3 1s    0.61130     3 1s   -0.62894
                                    4 1s    0.44025     5 1s    0.25197     5 1s   -0.37948     6 1s    0.81493     6 1s   -1.18990
   25.1    -0.00000     1.21554     1 1s   -2.03508     1 1s    4.56305     1 2py   0.26249     1 2pz  -1.29713     2 1s   -0.92319
                                    2 2px   1.04590     2 2py  -0.78269     3 1s   -1.40339     4 1s   -0.75826     5 1s   -0.33791
                                    6 1s   -0.51487
   26.1    -0.00000     1.33274     1 1s    0.60576     1 1s   -2.92819     1 2px  -1.36204     1 2py   0.89401     1 2pz   0.38673
                                    2 1s   -1.83470     2 1s    5.25325     2 2px  -0.58904     2 2py   0.44272     2 2pz   1.61470
                                    4 1s    0.27049     5 1s   -0.61844     5 1s   -0.66838     6 1s   -0.46789     6 1s   -0.75516
   27.1    -0.00000     1.69809     1 1s    0.61291     1 3d0   0.39998     1 3d2- -0.32696     2 1s   -0.33682     2 3d2-  0.32674
                                    2 3d2+  0.40921
   28.1    -0.00000     1.90561     1 2px   0.31307     1 2py  -0.26587     1 3d1+  0.44422     1 3d2+  0.36024     1 3d1-  0.31658
                                    2 1s    0.43662     2 1s   -1.18480     2 2pz  -0.49782     2 3d0   0.50862     2 3d2+  0.27184
                                    2 3d1-  0.27043     3 1s    0.28021     6 1s    0.36177     6 1s    0.26355
   29.1    -0.00000     1.95251     1 1s    0.27200     1 1s   -1.26323     1 2px  -0.35151     1 2pz   0.29072     1 3d2-  0.29914
                                    1 3d1+ -0.30672     2 1s   -0.34369     2 1s    1.41938     2 2pz   0.40608     2 3d1+  0.46599
                                    2 3d2+  0.31336     2 3d1-  0.49130     3 1s    0.30566     6 1s   -0.32942
   30.1    -0.00000     2.19232     1 1s    0.40565     1 1s   -1.68430     1 2px  -0.39900     1 2pz   0.45235     1 3d0   0.69260
                                    1 3d2+  0.42379     2 1s   -0.26248     2 1s    1.44261     2 2px  -0.32546     2 2py   0.32413
                                    2 2pz   0.38173     2 3d0  -0.38232     2 3d2- -0.27243     2 3d2+ -0.28063     3 1s    0.38311
                                    4 1s    0.42283     6 1s   -0.29587
   31.1    -0.00000     2.24624     1 1s    0.52365     1 1s   -0.49855     1 2px   0.26726     1 2px  -0.32532     1 3d2-  0.35750
                                    1 3d1+  0.38323     1 3d2+ -0.39393     2 1s    0.43559     2 2px  -0.26643     2 2px   0.26851
                                    2 3d2-  0.27432     2 3d1+  0.40967     2 3d2+ -0.37339
   32.1    -0.00000     2.34126     1 1s    0.30823     1 2py   0.39752     1 3d0   0.36933     1 3d2- -0.34048     1 3d1- -0.39614
                                    2 1s   -0.39893     2 2px   0.30736     2 2py  -0.38383     2 3d0   0.61390     2 3d2- -0.36025
                                    2 3d1- -0.37541     3 1s   -0.35231     4 1s    0.32841     5 1s    0.44206
   33.1    -0.00000     2.54965     1 1s    0.26901     1 2py  -0.44722     1 3d2-  0.41271     1 3d1-  0.73545     2 3d2- -0.51854
                                    2 3d1- -0.44501     3 1s    0.51990     4 1s   -0.45081     5 1s    0.34170     6 1s   -0.40750
   34.1    -0.00000     2.63553     1 2py  -0.29209     1 3d2- -0.54252     1 3d2+ -0.53786     1 3d1-  0.40939     2 1s    0.25511
                                    2 2py   0.32842     2 3d2- -0.34905     2 3d2+ -0.49402     2 3d1-  0.57113     4 1s   -0.31811
                                    5 1s   -0.36623
   35.1    -0.00000     2.71615     1 3d0  -0.46107     1 3d2- -0.42688     1 3d1+  0.44474     2 3d0  -0.38530     2 3d2- -0.49694
                                    2 3d1+  0.56851     2 3d1- -0.27745     3 1s   -0.40203     6 1s   -0.50557
   36.1    -0.00000     2.95610     1 1s   -1.76493     1 2px  -0.43201     1 2px  -0.87671     1 2py   0.25349     1 2pz   0.45681
                                    1 3d2-  0.32378     1 3d1+  0.70316     1 3d2+ -0.64228     2 1s    1.72733     2 2px  -0.42764
                                    2 2px  -0.89746     2 2pz   0.43660     2 3d2- -0.36175     2 3d1+ -0.69527     2 3d2+  0.64206


 Natural orbital dump (state averaged) at molpro section  2140.2    (Orbital set 2)



 **********************************************************************************************************************************
 DATASETS  * FILE   NREC   LENGTH (MB)   RECORD NAMES
              1      20       31.86       500      610      700      900      950      970     1000      129      960     1100   
                                          VAR    BASINP    GEOM    SYMINP    ZMAT    AOBASIS   BASIS     P2S    ABASIS      S 
                                         1400     1410     1200     1210     1080     1600     1650     1300     1700     1380   
                                           T        V       H0       H01     AOSYM     SMH    MOLCAS    ERIS     OPER     JKOP   

              2       5        5.42       700     1000      520     2100     2140   
                                         GEOM     BASIS   MCVARS     RHF     MCSCF   

 PROGRAMS   *        TOTAL     MULTI    HF-SCF       INT
 CPU TIMES  *         0.79      0.40      0.11      0.18
 REAL TIME  *         1.11 SEC
 DISK USED  *        39.04 MB
 **********************************************************************************************************************************
 Molecular orbitals read from record     2140.2  Type=MCSCF/NATURAL (state averaged)
 Occupation numbers read from record     2140.2  Type=MCSCF/NATURAL (state averaged)
 Orbital energies read from record       2140.2  Type=MCSCF/NATURAL (state averaged)
 Redundancy group numbers read from rec  2140.2  Type=MCSCF/NATURAL (state averaged)

 MULTI/6-31G* energy=    -77.548663857499

           MULTI          HF-SCF
    -77.54866386    -77.84249885
 **********************************************************************************************************************************
 Molpro calculation terminated
