
 Primary working directories    : /scratch.local/johan406.molpro_temp/molpro.oTO150kY3A
 Secondary working directories  : /scratch.local/johan406.molpro_temp/molpro.oTO150kY3A
 Wavefunction directory         : /home/goodpast/johan406/wfu/
 Main file repository           : /scratch.local/johan406.molpro_temp/molpro.oTO150kY3A/

 id        : roweumn

 Nodes     nprocs
 acn09        1

 Using customized tuning parameters: mindgm=1; mindgv=20; mindgc=4; mindgr=1; noblas=0; minvec=7
 default implementation of scratch files=df  


 Variables initialized (934), CPU time= 0.01 sec
                                                                                 !leave this line blank
 
 gprint, orbitals=30
 memory, 125., m
 symmetry, nosym
 nelect=16
 basis=6-31g*
 
 geometry={
 C -0.645 0.1315 0.2925
 C 0.6169 -0.1937 -0.3652
 H -1.1624 1.0289 -0.0841
 H -0.8544 -0.9093 -0.1528
 H 1.0789 0.7732 0.0616
 H 1.3807 -0.8139 0.1653
 }
 
 hf
 {multi,
 closed 7
 occ 9
 wf,spin=0;STATE,3
 }
 
 Commands  initialized (763), CPU time= 0.01 sec, 617 directives.
 Default parameters read. Elapsed time= 0.07 sec

 Checking input...
 Passed
1


                                         ***  PROGRAM SYSTEM MOLPRO  ***
                                       Copyright, TTI GmbH Stuttgart, 2015
                                    Version 2019.2 linked Oct 25 2019 22:50:27


 **********************************************************************************************************************************
 LABEL *                                                                                 
  64 bit serial version                                                                  DATE: 07-Feb-23          TIME: 15:22:59  
 **********************************************************************************************************************************

 SHA1:             8dbd9ae1082e4ce945b0f27595c9eb2d4aa09004
 **********************************************************************************************************************************


 Variable memory set to  125000000 words,  buffer space 

 SETTING NELECT         =        16.00000000                                  
 SETTING BASIS          =    6-31G*
 ZSYMEL=NOSYM


Geometry recognized as XYZ



 Recomputing integrals since basis changed


 Using spherical harmonics

 Library entry C      S 6-31G                selected for orbital group  1
 Library entry C      P 6-31G                selected for orbital group  1
 Library entry C      D 6-31G*               selected for orbital group  1
 Library entry H      S 6-31G                selected for orbital group  2


 PROGRAM * SEWARD (Integral evaluation for generally contracted gaussian basis sets)     Author: Roland Lindh, 1990

 Geometry written to block  1 of record 700


 Point group  C1  



 ATOMIC COORDINATES

 NR  ATOM    CHARGE       X              Y              Z

   1  C       6.00   -1.218873350    0.248498985    0.552744891
   2  C       6.00    1.165772046   -0.366039950   -0.690127981
   3  H       1.00   -2.196617647    1.944339210   -0.158925967
   4  H       1.00   -1.614582001   -1.718327965   -0.288750152
   5  H       1.00    2.038825516    1.461136240    0.116407129
   6  H       1.00    2.609144860   -1.538048093    0.312371728

 Bond lengths in Bohr (Angstrom)

 1-2  2.758427949  1-3  2.082866627  1-4  2.175570614  2-5  2.179746332  2-6  2.112329007
     ( 1.459697208)     ( 1.102205553)     ( 1.151262390)     ( 1.153472085)     ( 1.117796372)

 Bond angles

  1-2-5   89.58672986   1-2-6  120.03229292   2-1-3  115.67405805   2-1-4   77.38212637

  3-1-4  121.23334185   5-2-6   90.90560870

 NUCLEAR CHARGE:                   16
 NUMBER OF PRIMITIVE AOS:          72
 NUMBER OF SYMMETRY AOS:           70
 NUMBER OF CONTRACTIONS:           36   (   36A   )
 NUMBER OF CORE ORBITALS:           2   (    2A   )
 NUMBER OF VALENCE ORBITALS:       12   (   12A   )


 NUCLEAR REPULSION ENERGY   32.23446288

 Eigenvalues of metric

         1 0.932E-02 0.292E-01 0.600E-01 0.616E-01 0.841E-01 0.223E+00 0.237E+00 0.273E+00


 Contracted 2-electron integrals neglected if value below      1.0D-11
 AO integral compression algorithm  1   Integral accuracy      1.0D-11

     1.573 MB (compressed) written to integral file ( 59.1%)


 NUMBER OF SORTED TWO-ELECTRON INTEGRALS:     222111.     BUFFER LENGTH:  32768
 NUMBER OF SEGMENTS:   1  SEGMENT LENGTH:     222111      RECORD LENGTH: 524288

 Memory used in sort:       0.78 MW

 SORT1 READ      284735. AND WROTE      212531. INTEGRALS IN      1 RECORDS. CPU TIME:     0.00 SEC, REAL TIME:     0.00 SEC
 SORT2 READ      212531. AND WROTE      222111. INTEGRALS IN      6 RECORDS. CPU TIME:     0.02 SEC, REAL TIME:     0.02 SEC

 FILE SIZES:   FILE 1:    31.7 MBYTE,  FILE 4:     4.2 MBYTE,   TOTAL:     35.9 MBYTE

 OPERATOR DM      FOR CENTER  0  COORDINATES:    0.000000    0.000000    0.000000


 **********************************************************************************************************************************
 DATASETS  * FILE   NREC   LENGTH (MB)   RECORD NAMES
              1      19       31.13       500      610      700      900      950      970     1000      129      960     1100   
                                          VAR    BASINP    GEOM    SYMINP    ZMAT    AOBASIS   BASIS     P2S    ABASIS      S 
                                         1400     1410     1200     1210     1080     1600     1650     1300     1700   
                                           T        V       H0       H01     AOSYM     SMH    MOLCAS    ERIS     OPER   

 PROGRAMS   *        TOTAL       INT
 CPU TIMES  *         0.28      0.18
 REAL TIME  *         0.57 SEC
 DISK USED  *        36.24 MB
 **********************************************************************************************************************************


 PROGRAM * RHF-SCF (CLOSED SHELL)       Authors: W. Meyer, H.-J. Werner


 NUMBER OF ELECTRONS:       8+    8-    SPACE SYMMETRY=1    SPIN SYMMETRY: Singlet 
 CONVERGENCE THRESHOLDS:    1.00E-05 (Density)    1.00E-07 (Energy)
 MAX. NUMBER OF ITERATIONS:       60
 INTERPOLATION TYPE:            DIIS
 INTERPOLATION STEPS:              2 (START)      1 (STEP)
 LEVEL SHIFTS:                  0.00 (CLOSED)  0.00 (OPEN) 



 Orbital guess generated from atomic densities. Full valence occupancy:    8

 Molecular orbital dump at record        2100.2

 Initial occupancy:   8

 ITERATION    DDIFF          GRAD             ENERGY        2-EL.EN.            DIPOLE MOMENTS         DIIS   ORB.
    1      0.000D+00      0.000D+00       -77.81274009    115.689450    0.09618    0.04189    0.06086    0    start
    2      0.000D+00      0.700D-02       -77.83079199    114.661408    0.00193    0.05206    0.08970    1    diag
    3      0.760D-02      0.229D-02       -77.83291049    115.086485   -0.00293    0.05774    0.09820    2    diag
    4      0.299D-02      0.835D-03       -77.83336531    114.954218   -0.01966    0.05836    0.10431    3    diag
    5      0.164D-02      0.290D-03       -77.83349093    114.962074   -0.02386    0.05905    0.10709    4    diag
    6      0.969D-03      0.125D-03       -77.83352683    114.963783   -0.02690    0.05996    0.11114    5    diag
    7      0.468D-03      0.645D-04       -77.83353521    114.964347   -0.02491    0.05863    0.10879    6    diag
    8      0.235D-03      0.368D-04       -77.83353710    114.965292   -0.02523    0.05911    0.11009    7    diag
    9      0.119D-03      0.113D-04       -77.83353738    114.965565   -0.02481    0.05895    0.10981    8    diag
   10      0.543D-04      0.375D-05       -77.83353740    114.965554   -0.02465    0.05898    0.10975    9    orth
   11      0.133D-04      0.100D-05       -77.83353740    114.965550   -0.02460    0.05898    0.10973    9    diag
   12      0.306D-05      0.290D-06       -77.83353740    114.965552   -0.02460    0.05898    0.10973    0    orth

 Final occupancy:   8

 !RHF STATE  1.1 Energy               -77.833537402522
 Nuclear energy                        32.23446288
 One-electron energy                 -167.55077614
 Two-electron energy                   57.48277585
 Virial quotient                       -1.00186828
 !RHF STATE  1.1 Dipole moment         -0.02460024     0.05898470     0.10973217
 Dipole moment /Debye                  -0.06252348     0.14991433     0.27889310

 ELECTRON ORBITALS
 =================

  Orbital  Occupation    Energy     Coefficients
    1.1     2.00000   -11.26931     1 1s    0.99584
    2.1     2.00000   -11.25514     2 1s    0.99587
    3.1     2.00000    -1.03772     1 1s    0.28771     2 1s    0.27751     2 1s    0.25126
    4.1     2.00000    -0.78036     1 1s   -0.29303     2 1s    0.30276
    5.1     2.00000    -0.63436     1 2py   0.37442
    6.1     2.00000    -0.54080     1 2px   0.30814     2 2px  -0.27412     2 2py   0.29423
    7.1     2.00000    -0.39225     1 2pz   0.29593     1 2pz   0.26714     2 2pz   0.30572     2 2pz   0.29014
    8.1     2.00000    -0.38268     1 2px  -0.29382     4 1s    0.27288     5 1s    0.30086
    9.1     0.00000     0.06288     1 1s    0.36598     1 2pz   0.34757     1 2pz   0.49239     2 1s    0.45314     2 2pz  -0.30810
                                    2 2pz  -0.42646
   10.1     0.00000     0.22325     1 1s   -1.21409     1 2px   0.46372     1 2py   0.26244     1 2pz   0.45121     2 1s   -0.78030
                                    2 2px  -0.38560     2 2py  -0.44292     2 2pz  -0.30349     3 1s    0.78821     4 1s    1.04748
                                    5 1s    1.00441
   11.1     0.00000     0.27587     1 1s    1.10832     1 2py   0.29546     2 1s   -1.91697     2 2px  -0.30287     2 2py   0.25212
                                    2 2pz  -0.72512     3 1s   -0.95429     5 1s    0.35954     6 1s    1.73562
   12.1     0.00000     0.31071     1 1s   -0.66275     1 2py  -0.28648     1 2px   0.27524     1 2py  -1.34855     1 2pz   0.34826
                                    2 1s   -0.59741     2 2px  -0.45183     2 2py   0.56023     2 2pz  -0.44014     3 1s    1.79884
                                    4 1s   -0.94839     6 1s    1.07749
   13.1     0.00000     0.33334     1 1s    1.07606     1 2px  -0.30528     1 2py  -0.36600     1 2pz  -0.35222     2 1s   -0.72720
                                    2 2py  -0.27647     2 2px  -0.33102     2 2py  -1.00582     3 1s   -0.38226     4 1s   -1.49921
                                    5 1s    1.71797     6 1s   -0.32306
   14.1     0.00000     0.42193     1 1s    2.20032     1 2px   1.71686     1 2py  -0.65533     1 2pz  -0.86384     2 1s   -2.00149
                                    2 2px   1.80555     2 2py  -0.60621     2 2pz  -0.75115     3 1s    0.43727     4 1s   -0.34458
                                    6 1s   -0.67534
   15.1     0.00000     0.70224     1 2px  -0.61723     1 2px   0.84066     2 2px   0.46853     2 2pz  -0.29559     2 2px  -0.98000
                                    4 1s   -0.50490     5 1s   -0.36966     6 1s    0.31308
   16.1     0.00000     0.77039     1 1s   -0.30131     1 2px  -0.40562     1 2py   0.40016     2 2px   0.29654     2 2py  -0.54168
                                    2 2px  -0.70483     2 2py   0.94034     3 1s   -0.38462     5 1s   -0.32835     6 1s    0.52608
   17.1     0.00000     0.79317     1 2py   0.54325     1 2pz   0.71330     1 2px   0.29104     1 2py  -1.29092     1 2pz  -0.77919
                                    2 1s   -0.40785     2 2py   0.41253     4 1s   -0.38773
   18.1     0.00000     0.80343     1 2py  -0.44098     1 2pz   0.45584     1 2py   0.98341     1 2pz  -0.41504     2 2py   0.38473
                                    2 2pz   0.65026     2 2py  -0.76257     2 2pz  -0.58822     3 1s   -0.30265
   19.1     0.00000     0.86666     1 1s   -0.33431     1 2px  -0.33617     1 2pz  -0.59549     1 2px   0.53834     1 2py  -0.66054
                                    1 2pz   0.83507     2 1s   -0.37829     2 2pz   0.75137     2 2px  -0.38127     2 2py   0.46304
                                    2 2pz  -1.02036     3 1s    0.25219
   20.1     0.00000     0.97033     1 2px   0.62508     1 2py   0.34093     1 2px  -0.88501     1 2py  -0.73468     2 1s   -0.38094
                                    2 1s    0.39803     2 2px   0.76937     2 2py   0.37596     2 2px  -1.19520     2 2py  -0.84084
                                    4 1s   -1.14705     5 1s    0.85504
   21.1     0.00000     1.08180     1 2px   0.48416     1 2px  -1.03469     1 2pz   0.25576     2 1s   -0.39277     2 1s    1.38941
                                    2 2py  -0.46191     2 2px  -0.67990     2 2py   0.85036     3 1s    0.46422     3 1s   -0.74066
                                    4 1s    0.76996     4 1s   -0.84836     5 1s    0.38761     5 1s   -0.76171     6 1s    0.73129
   22.1     0.00000     1.11353     1 1s    0.50708     1 1s   -1.38722     1 2py   0.37134     1 2px  -0.30213     1 2py  -0.62149
                                    1 2pz   0.42702     2 1s    0.48719     2 2py   0.59412     2 2px  -0.43805     2 2py  -0.53674
                                    3 1s    0.31364     3 1s    0.40150     4 1s    0.58353     4 1s   -0.66578     5 1s   -0.49595
                                    5 1s    1.15545     6 1s    0.63861     6 1s   -0.74568
   23.1     0.00000     1.14910     1 1s    0.55940     1 1s   -1.48361     1 2py  -0.56100     1 2px  -0.55031     1 2py   0.72919
                                    1 2pz   0.47544     2 1s    0.68568     2 1s   -0.77735     2 2px   0.48009     2 2px  -1.24677
                                    2 2py   0.34061     2 2pz  -0.30477     3 1s    0.73828     3 1s   -0.85777     4 1s   -0.30648
                                    4 1s    0.87559     5 1s   -0.36652     5 1s    0.80212     6 1s    1.00690
   24.1     0.00000     1.18577     1 1s   -0.93411     1 1s    1.77134     1 2py  -0.47365     1 2py   0.53491     1 2pz  -0.44935
                                    2 1s   -0.95266     2 1s    1.28411     2 2px  -0.28528     2 2pz  -0.27692     2 2px   0.70867
                                    2 2py  -0.32688     2 2pz   0.42587     3 1s    0.51368     3 1s   -1.19490     4 1s   -0.39713
                                    5 1s   -0.42912     6 1s    0.55333     6 1s   -1.24318
   25.1     0.00000     1.20945     1 1s   -1.71897     1 1s    3.98032     1 2pz   0.26902     1 2px   0.39308     1 2pz  -1.10280
                                    2 1s    0.60705     2 1s   -2.01619     2 2py   0.25551     2 2px   0.73162     2 2py  -0.75230
                                    2 2pz  -0.26119     3 1s   -0.90784     4 1s   -1.01376     5 1s   -0.55093     5 1s    0.71152
                                    6 1s   -0.36662
   26.1     0.00000     1.37331     1 1s    0.53964     1 1s   -2.76343     1 2px  -1.33448     1 2py   0.86668     1 2pz   0.34702
                                    2 1s   -1.71013     2 1s    4.98759     2 2px  -0.47402     2 2py   0.51226     2 2pz   1.60264
                                    4 1s    0.26353     5 1s   -0.70713     5 1s   -0.58878     6 1s   -0.50226     6 1s   -0.68670
   27.1     0.00000     1.71456     1 1s    0.49189     1 3d0   0.41020     1 3d2- -0.36600     1 3d1-  0.26828     2 3d2-  0.34858
                                    2 3d2+  0.43365
   28.1     0.00000     1.89545     1 2px   0.33017     1 2py  -0.27221     1 3d1+  0.44783     1 3d2+  0.33500     1 3d1-  0.26913
                                    2 1s    0.46797     2 1s   -1.27260     2 2pz  -0.53507     2 3d0   0.55846     2 3d1-  0.30213
                                    3 1s    0.27492     6 1s    0.38606     6 1s    0.25288
   29.1     0.00000     1.97850     1 1s   -1.24588     1 2px  -0.42444     1 3d2-  0.29140     1 3d1+ -0.31434     2 1s   -0.45693
                                    2 1s    1.69112     2 2pz   0.53503     2 3d1+  0.45993     2 3d2+  0.36553     2 3d1-  0.49594
                                    3 1s    0.26874     5 1s   -0.27461     6 1s   -0.38508
   30.1     0.00000     2.20479     1 1s    0.45023     1 1s   -1.67724     1 2px  -0.42551     1 2pz   0.45721     1 3d0   0.73484
                                    1 3d1+  0.26111     1 3d2+  0.41531     2 1s    1.27967     2 2px  -0.27181     2 2py   0.32394
                                    2 2pz   0.33601     2 3d0  -0.25085     2 3d2- -0.31950     2 3d2+ -0.26877     3 1s    0.38595
                                    4 1s    0.46464     6 1s   -0.26295
   31.1     0.00000     2.25071     1 1s    0.51046     1 1s   -0.47241     1 2px   0.25903     1 2px  -0.33050     1 3d2-  0.38003
                                    1 3d1+  0.34888     1 3d2+ -0.42877     2 1s    0.41131     2 2px  -0.25482     2 2px   0.29071
                                    2 3d2-  0.25743     2 3d1+  0.42323     2 3d2+ -0.33457
   32.1     0.00000     2.34433     1 1s    0.51428     1 2py   0.41249     1 3d0   0.27094     1 3d2- -0.33717     1 3d1- -0.42184
                                    2 1s    0.25641     2 1s   -0.62083     2 2px   0.34102     2 2py  -0.38177     2 3d0   0.64504
                                    2 3d2- -0.33896     2 3d1- -0.36030     3 1s   -0.39699     4 1s    0.31338     5 1s    0.47479
   33.1     0.00000     2.51753     1 1s    0.28313     1 2py  -0.50319     1 3d2-  0.36966     1 3d1-  0.76499     2 3d2- -0.51894
                                    2 3d1- -0.40088     3 1s    0.50460     4 1s   -0.44780     5 1s    0.35548     6 1s   -0.34459
   34.1     0.00000     2.64064     1 2py  -0.28202     1 3d2- -0.55236     1 3d2+ -0.56249     1 3d1-  0.38855     2 1s    0.26266
                                    2 2py   0.31122     2 3d2- -0.30957     2 3d2+ -0.48781     2 3d1-  0.57380     4 1s   -0.32710
                                    5 1s   -0.36156
   35.1     0.00000     2.69672     1 3d0  -0.47833     1 3d2- -0.40904     1 3d1+  0.42340     2 3d0  -0.37568     2 3d2- -0.51292
                                    2 3d1+  0.59484     3 1s   -0.35501     6 1s   -0.50643
   36.1     0.00000     2.96031     1 1s   -1.73879     1 2px  -0.43880     1 2px  -0.85911     1 2pz   0.45237     1 3d2-  0.31697
                                    1 3d1+  0.69667     1 3d2+ -0.64660     2 1s    1.68367     2 2px  -0.43263     2 2px  -0.89414
                                    2 2pz   0.42258     2 3d2- -0.36704     2 3d1+ -0.69743     2 3d2+  0.64237


 HOMO      8.1    -0.382675 =     -10.4131eV
 LUMO      9.1     0.062880 =       1.7111eV
 LUMO-HOMO         0.445556 =      12.1242eV


 **********************************************************************************************************************************
 DATASETS  * FILE   NREC   LENGTH (MB)   RECORD NAMES
              1      19       31.13       500      610      700      900      950      970     1000      129      960     1100   
                                          VAR    BASINP    GEOM    SYMINP    ZMAT    AOBASIS   BASIS     P2S    ABASIS      S 
                                         1400     1410     1200     1210     1080     1600     1650     1300     1700   
                                           T        V       H0       H01     AOSYM     SMH    MOLCAS    ERIS     OPER   

              2       4        2.86       700     1000      520     2100   
                                         GEOM     BASIS   MCVARS     RHF  

 PROGRAMS   *        TOTAL    HF-SCF       INT
 CPU TIMES  *         0.39      0.10      0.18
 REAL TIME  *         0.90 SEC
 DISK USED  *        36.24 MB
 **********************************************************************************************************************************


 PROGRAM * MULTI (Direct Multiconfiguration SCF)       Authors: P.J. Knowles, H.-J. Werner (1984)


 Number of closed-shell orbitals:   7 (   7 )
 Number of active  orbitals:        2 (   2 )
 Number of external orbitals:      27 (  27 )

 State symmetry 1

 Number of electrons:     2    Spin symmetry=Singlet   Space symmetry=1
 Number of states:        3
 Number of CSFs:          3   (4 determinants, 4 intermediate states)

 Molecular orbitals read from record     2100.2  Type=RHF/CANONICAL (state 1.1)

 Wavefunction dump at record             2140.2

 Convergence thresholds  0.10E-01 (gradient)  0.10E-05 (energy)  0.10E-02 (step length)

 Weight factors for state symmetry  1:    0.33333   0.33333   0.33333

 Number of orbital rotations:      257   (    14 Core/Active    189 Core/Virtual   0 Active/Active     54 Active/Virtual)
 Total number of variables:        269

 Micro-Iterations solved by the two-step solver

 ITER. MIC  NCI  NEG     ENERGY(VAR)     ENERGY(PROJ)   ENERGY CHANGE     GRAD(0)  GRAD(ORB)   GRAD(CI)     STEP       TIME

   1   12    6    0     -77.67819530     -77.69903250   -0.02083720    0.16701343 0.00161047 0.00000000  0.15D+00      0.15
   2    7    5    0     -77.69867750     -77.69871530   -0.00003780    0.00912984 0.00001376 0.00000000  0.61D-02      0.25
   3    7    5    0     -77.69871537     -77.69871537   -0.00000000    0.00002550 0.00000000 0.00000000  0.33D-04      0.34

 ** WVFN ****  CONVERGENCE REACHED, FINAL GRADIENT:  0.41D-09



 Results for state 1.1
 =====================

 !MCSCF STATE  1.1 Energy             -77.827323474536
 Nuclear energy                        32.23446288
 Kinetic energy                        77.73791705
 One electron energy                 -167.61316638
 Two electron energy                   57.55138003
 Virial ratio                           2.00115010

 !MCSCF STATE  1.1 Dipole moment       -0.07027035     0.07774414     0.09297302
 Dipole moment /Debye                  -0.17859771     0.19759295     0.23629837

 Results for state 2.1
 =====================

 !MCSCF STATE  2.1 Energy             -77.725702525071
 Nuclear energy                        32.23446288
 Kinetic energy                        77.82071471
 One electron energy                 -167.33308881
 Two electron energy                   57.37292340
 Virial ratio                           1.99877909

 !MCSCF STATE  2.1 Dipole moment        0.02460862     0.08357985     0.09747925
 Dipole moment /Debye                   0.06254477     0.21242488     0.24775132

 Results for state 3.1
 =====================

 !MCSCF STATE  3.1 Energy             -77.543120123829
 Nuclear energy                        32.23446288
 Kinetic energy                        77.88956004
 One electron energy                 -167.09764614
 Two electron energy                   57.32006313
 Virial ratio                           1.99555216

 !MCSCF STATE  3.1 Dipole moment        0.08713016     0.08303806     0.09751285
 Dipole moment /Debye                   0.22144826     0.21104788     0.24783671

 State-averaged charge density matrix saved on record  2140.2 (density set 1)

 !MCSCF expec         <1.1|DMX|1.1>    -0.070270345630 au =    -0.178597705047 Debye
 !MCSCF trans         <2.1|DMX|1.1>    -0.064420881982 au =    -0.163730825229 Debye
 !MCSCF expec         <2.1|DMX|2.1>     0.024608618181 au =     0.062544771797 Debye
 !MCSCF trans         <3.1|DMX|1.1>    -0.013155207369 au =    -0.033435011944 Debye
 !MCSCF trans         <3.1|DMX|2.1>    -0.077399372093 au =    -0.196716696123 Debye
 !MCSCF expec         <3.1|DMX|3.1>     0.087130156298 au =     0.221448262643 Debye

 !MCSCF expec         <1.1|DMY|1.1>     0.077744138068 au =     0.197592946431 Debye
 !MCSCF trans         <2.1|DMY|1.1>    -0.013208946314 au =    -0.033571593773 Debye
 !MCSCF expec         <2.1|DMY|2.1>     0.083579852436 au =     0.212424881353 Debye
 !MCSCF trans         <3.1|DMY|1.1>    -0.001328239367 au =    -0.003375826611 Debye
 !MCSCF trans         <3.1|DMY|2.1>    -0.014791040403 au =    -0.037592612466 Debye
 !MCSCF expec         <3.1|DMY|3.1>     0.083038063396 au =     0.211047881166 Debye

 !MCSCF expec         <1.1|DMZ|1.1>     0.092973021452 au =     0.236298371861 Debye
 !MCSCF trans         <2.1|DMZ|1.1>    -0.009247173564 au =    -0.023502431387 Debye
 !MCSCF expec         <2.1|DMZ|2.1>     0.097479254508 au =     0.247751323672 Debye
 !MCSCF trans         <3.1|DMZ|1.1>    -0.000972167266 au =    -0.002470840881 Debye
 !MCSCF trans         <3.1|DMZ|2.1>    -0.010388092427 au =    -0.026402167951 Debye
 !MCSCF expec         <3.1|DMZ|3.1>     0.097512850221 au =     0.247836709866 Debye


 NATURAL ORBITALS (state averaged)
 =================================

  Orbital  Occupation    Energy     Coefficients
    1.1     2.00000   -11.25975     1 1s    0.99454
    2.1     2.00000   -11.25335     2 1s    0.99458
    3.1     2.00000    -1.04985     1 1s    0.28039     2 1s    0.27505     2 1s    0.25030
    4.1     2.00000    -0.78223     1 1s   -0.31808     2 1s    0.32249
    5.1     2.00000    -0.63593     1 2py   0.36826
    6.1     2.00000    -0.53762     1 2px   0.25152     2 2py   0.32652
    7.1     2.00000    -0.41870     1 2pz   0.31046     1 2pz   0.26406     2 2pz   0.33237     2 2pz   0.29103
    8.1     1.00000    -0.08678     1 2pz   0.42795     1 2pz   0.44832     2 1s    0.32342     2 2pz  -0.37404     2 2pz  -0.39610
    9.1     1.00000    -0.22790     1 2px  -0.33131     2 2px   0.27414     4 1s    0.29010     5 1s    0.30434
   10.1    -0.00000     0.21198     1 1s   -1.17849     1 2px   0.46102     1 2py   0.28524     1 2pz   0.38469     2 1s   -0.86594
                                    2 2px  -0.40682     2 2py  -0.45173     2 2pz  -0.27874     3 1s    0.71936     4 1s    1.03665
                                    5 1s    1.04946
   11.1    -0.00000     0.27295     1 1s    1.21015     2 1s   -2.00072     2 2px  -0.32535     2 2pz  -0.72799     3 1s   -0.89933
                                    5 1s    0.50439     6 1s    1.73203
   12.1    -0.00000     0.31066     1 2py  -0.32530     1 2py  -1.44064     2 1s   -0.76859     2 2px  -0.42758     2 2pz  -0.41444
                                    3 1s    1.62747     4 1s   -1.46331     5 1s    0.68820     6 1s    0.66282
   13.1    -0.00000     0.32177     1 1s    1.35168     1 2px  -0.31165     1 2pz  -0.48361     2 1s   -0.37548     2 2py  -0.30877
                                    2 2py  -1.19558     3 1s   -0.99074     4 1s   -1.06311     5 1s    1.52144     6 1s   -0.90243
   14.1    -0.00000     0.42760     1 1s    2.07206     1 2px   1.72853     1 2py  -0.55420     1 2pz  -0.80164     2 1s   -1.88176
                                    2 2px   0.25961     2 2px   1.82549     2 2py  -0.49897     2 2pz  -0.70504     3 1s    0.42789
                                    6 1s   -0.67676
   15.1    -0.00000     0.69974     1 2px  -0.59999     1 2px   0.78843     2 2px   0.45485     2 2pz  -0.29069     2 2px  -0.98541
                                    4 1s    0.27043     4 1s   -0.56558     5 1s   -0.42354     6 1s    0.32943
   16.1    -0.00000     0.76658     1 1s   -0.37723     1 2px  -0.42774     1 2py   0.40945     2 1s    0.28173     2 2px   0.30188
                                    2 2py  -0.52750     2 2px  -0.74763     2 2py   0.96218     3 1s   -0.37157     5 1s   -0.35331
                                    6 1s    0.52941
   17.1    -0.00000     0.79266     1 1s    0.31409     1 2py   0.50860     1 2pz   0.70931     1 2px   0.36148     1 2py  -1.27245
                                    1 2pz  -0.89158     2 1s   -0.54349     2 2py   0.38624     4 1s   -0.38906
   18.1    -0.00000     0.80417     1 2py  -0.44533     1 2pz   0.46961     1 2py   0.99229     1 2pz  -0.43909     2 2py   0.34976
                                    2 2pz   0.64034     2 2py  -0.74704     2 2pz  -0.64311     3 1s   -0.31814
   19.1    -0.00000     0.86534     1 1s   -0.29585     1 2px  -0.35255     1 2pz  -0.55575     1 2px   0.57177     1 2py  -0.67033
                                    1 2pz   0.86405     2 1s   -0.33667     2 2pz   0.74011     2 2px  -0.42643     2 2py   0.44501
                                    2 2pz  -1.08641     3 1s    0.29105     6 1s    0.28657
   20.1    -0.00000     0.97599     1 1s    0.29241     1 2px   0.60997     1 2py   0.32495     1 2px  -0.78113     1 2py  -0.72107
                                    2 1s   -0.37189     2 1s    0.29283     2 2px   0.76516     2 2py   0.38870     2 2px  -1.08252
                                    2 2py  -0.87794     4 1s   -1.05876     5 1s    0.82580
   21.1    -0.00000     1.06370     1 1s   -0.28318     1 2px   0.48971     1 2px  -0.98731     2 1s   -0.48485     2 1s    1.45709
                                    2 2py  -0.42510     2 2px  -0.54830     2 2py   0.75016     3 1s    0.33851     3 1s   -0.52870
                                    4 1s    0.81752     4 1s   -1.04714     5 1s    0.42289     5 1s   -0.75836     6 1s    0.55764
   22.1    -0.00000     1.09466     1 1s    0.36853     1 1s   -1.03172     1 2py   0.39231     1 2px  -0.27288     1 2py  -0.64451
                                    1 2pz   0.30268     2 1s    0.26519     2 2py   0.64105     2 2px  -0.50685     2 2py  -0.63572
                                    3 1s    0.29944     3 1s    0.31474     4 1s    0.58942     4 1s   -0.77128     5 1s   -0.64895
                                    5 1s    1.40401     6 1s    0.46653     6 1s   -0.51876
   23.1    -0.00000     1.14471     1 1s    0.48459     1 1s   -1.40059     1 2px   0.28602     1 2py  -0.52808     1 2px  -0.68610
                                    1 2py   0.75459     1 2pz   0.45891     2 1s    0.67155     2 1s   -0.67611     2 2px   0.54340
                                    2 2px  -1.35581     2 2py   0.50804     2 2pz  -0.27465     3 1s    0.72046     3 1s   -0.93248
                                    4 1s    0.72082     5 1s   -0.27876     5 1s    0.60794     6 1s   -0.33043     6 1s    1.26333
   24.1    -0.00000     1.18221     1 1s    0.29251     1 1s   -1.05255     1 2py  -0.39882     1 2px  -0.38760     1 2py   0.42359
                                    1 2pz   0.35867     2 1s   -1.02495     2 1s    2.09836     2 2px  -0.26527     2 2pz   0.39107
                                    3 1s    0.56584     3 1s   -0.49723     4 1s   -0.34845     4 1s    0.62625     5 1s    0.31478
                                    5 1s   -0.45990     6 1s    0.75467     6 1s   -1.06375
   25.1    -0.00000     1.19886     1 1s   -1.96960     1 1s    4.27688     1 2py  -0.27982     1 2py   0.34571     1 2pz  -1.14347
                                    2 1s   -0.78499     2 2py   0.25222     2 2px   0.99392     2 2py  -0.72926     3 1s    0.25610
                                    3 1s   -1.47943     4 1s   -0.69454     5 1s   -0.34431     6 1s   -0.57734
   26.1    -0.00000     1.36193     1 1s    0.59359     1 1s   -2.88738     1 2px  -1.36448     1 2py   0.86910     1 2pz   0.37173
                                    2 1s   -1.75376     2 1s    5.10432     2 2px  -0.50005     2 2py   0.52842     2 2pz   1.61713
                                    4 1s    0.27304     5 1s   -0.67191     5 1s   -0.63801     6 1s   -0.50555     6 1s   -0.68715
   27.1    -0.00000     1.70926     1 1s    0.51409     1 3d0   0.40257     1 3d2- -0.36626     1 3d1-  0.26641     2 3d2-  0.35302
                                    2 3d2+  0.43647
   28.1    -0.00000     1.89411     1 2px   0.31703     1 2py  -0.26896     1 3d1+  0.44091     1 3d2+  0.34004     1 3d1-  0.26392
                                    2 1s    0.44748     2 1s   -1.21164     2 2pz  -0.51173     2 3d0   0.55962     2 3d1-  0.30954
                                    3 1s    0.27190     6 1s    0.37773
   29.1    -0.00000     1.97374     1 1s   -1.21917     1 2px  -0.41721     1 3d2-  0.29301     1 3d1+ -0.32288     2 1s   -0.45467
                                    2 1s    1.67745     2 2pz   0.53184     2 3d1+  0.46089     2 3d2+  0.35994     2 3d1-  0.49306
                                    3 1s    0.26965     5 1s   -0.26947     6 1s   -0.38992
   30.1    -0.00000     2.20530     1 1s    0.41214     1 1s   -1.61896     1 2px  -0.39462     1 2pz   0.43475     1 3d0   0.72405
                                    1 3d2+  0.44768     2 1s    1.27388     2 2px  -0.28287     2 2py   0.33190     2 2pz   0.33770
                                    2 3d0  -0.26181     2 3d2- -0.33976     3 1s    0.37835     4 1s    0.47065     6 1s   -0.25896
   31.1    -0.00000     2.24608     1 1s    0.54357     1 1s   -0.61853     1 2px   0.26547     1 2px  -0.35980     1 3d2-  0.38526
                                    1 3d1+  0.37841     1 3d2+ -0.38812     2 1s    0.38543     2 2px  -0.26522     2 2px   0.25916
                                    2 3d1+  0.42079     2 3d2+ -0.36032
   32.1    -0.00000     2.33812     1 1s    0.49904     1 2py   0.41798     1 3d0   0.26454     1 3d2- -0.31501     1 3d1- -0.41447
                                    2 1s    0.27480     2 1s   -0.61999     2 2px   0.35571     2 2py  -0.39677     2 3d0   0.65051
                                    2 3d2- -0.34470     2 3d1- -0.38147     3 1s   -0.39612     4 1s    0.29080     5 1s    0.46690
   33.1    -0.00000     2.51386     1 1s    0.26018     1 2py  -0.50664     1 3d2-  0.38010     1 3d1-  0.76604     2 3d2- -0.51647
                                    2 3d1- -0.40553     3 1s    0.51263     4 1s   -0.43764     5 1s    0.34475     6 1s   -0.35098
   34.1    -0.00000     2.63279     1 2py  -0.29473     1 3d2- -0.55674     1 3d2+ -0.55888     1 3d1-  0.39970     2 2py   0.31084
                                    2 3d2- -0.32497     2 3d2+ -0.48170     2 3d1-  0.56651     4 1s   -0.32704     5 1s   -0.34328
   35.1    -0.00000     2.70231     1 3d0  -0.48622     1 3d2- -0.40076     1 3d1+  0.42783     2 3d0  -0.38359     2 3d2- -0.49354
                                    2 3d1+  0.59917     3 1s   -0.35679     6 1s   -0.50119
   36.1    -0.00000     2.95659     1 1s   -1.76946     1 2px  -0.43286     1 2px  -0.87175     1 2py   0.25560     1 2pz   0.46059
                                    1 3d2-  0.31450     1 3d1+  0.70249     1 3d2+ -0.64429     2 1s    1.71276     2 2px  -0.42620
                                    2 2px  -0.90451     2 2pz   0.43009     2 3d2- -0.36624     2 3d1+ -0.69618     2 3d2+  0.63984


 Natural orbital dump (state averaged) at molpro section  2140.2    (Orbital set 2)



 **********************************************************************************************************************************
 DATASETS  * FILE   NREC   LENGTH (MB)   RECORD NAMES
              1      20       31.86       500      610      700      900      950      970     1000      129      960     1100   
                                          VAR    BASINP    GEOM    SYMINP    ZMAT    AOBASIS   BASIS     P2S    ABASIS      S 
                                         1400     1410     1200     1210     1080     1600     1650     1300     1700     1380   
                                           T        V       H0       H01     AOSYM     SMH    MOLCAS    ERIS     OPER     JKOP   

              2       5        5.42       700     1000      520     2100     2140   
                                         GEOM     BASIS   MCVARS     RHF     MCSCF   

 PROGRAMS   *        TOTAL     MULTI    HF-SCF       INT
 CPU TIMES  *         0.78      0.39      0.10      0.18
 REAL TIME  *         1.52 SEC
 DISK USED  *        39.04 MB
 **********************************************************************************************************************************
 Molecular orbitals read from record     2140.2  Type=MCSCF/NATURAL (state averaged)
 Occupation numbers read from record     2140.2  Type=MCSCF/NATURAL (state averaged)
 Orbital energies read from record       2140.2  Type=MCSCF/NATURAL (state averaged)
 Redundancy group numbers read from rec  2140.2  Type=MCSCF/NATURAL (state averaged)

 MULTI/6-31G* energy=    -77.543120123829

           MULTI          HF-SCF
    -77.54312012    -77.83353740
 **********************************************************************************************************************************
 Molpro calculation terminated
