
 Primary working directories    : /scratch.local/johan406.molpro_temp/molpro.H6u0a0Whjj
 Secondary working directories  : /scratch.local/johan406.molpro_temp/molpro.H6u0a0Whjj
 Wavefunction directory         : /home/goodpast/johan406/wfu/
 Main file repository           : /scratch.local/johan406.molpro_temp/molpro.H6u0a0Whjj/

 id        : roweumn

 Nodes     nprocs
 acn09        1

 Using customized tuning parameters: mindgm=1; mindgv=20; mindgc=4; mindgr=1; noblas=0; minvec=7
 default implementation of scratch files=df  


 Variables initialized (934), CPU time= 0.01 sec
                                                                                 !leave this line blank
 
 gprint, orbitals=30
 memory, 125., m
 symmetry, nosym
 nelect=16
 basis=6-31g*
 
 geometry={
 C -0.6488 0.1303 0.2912
 C 0.613 -0.195 -0.3665
 H -1.1406 1.0564 -0.0694
 H -0.832 -0.9183 -0.156
 H 1.1013 0.7642 0.0584
 H 1.4025 -0.7864 0.1801
 }
 
 hf
 {multi,
 closed 7
 occ 9
 wf,spin=0;STATE,3
 }
 
 Commands  initialized (763), CPU time= 0.01 sec, 617 directives.
 Default parameters read. Elapsed time= 0.09 sec

 Checking input...
 Passed
1


                                         ***  PROGRAM SYSTEM MOLPRO  ***
                                       Copyright, TTI GmbH Stuttgart, 2015
                                    Version 2019.2 linked Oct 25 2019 22:50:27


 **********************************************************************************************************************************
 LABEL *                                                                                 
  64 bit serial version                                                                  DATE: 07-Feb-23          TIME: 15:24:29  
 **********************************************************************************************************************************

 SHA1:             8dbd9ae1082e4ce945b0f27595c9eb2d4aa09004
 **********************************************************************************************************************************


 Variable memory set to  125000000 words,  buffer space 

 SETTING NELECT         =        16.00000000                                  
 SETTING BASIS          =    6-31G*
 ZSYMEL=NOSYM


Geometry recognized as XYZ



 Recomputing integrals since basis changed


 Using spherical harmonics

 Library entry C      S 6-31G                selected for orbital group  1
 Library entry C      P 6-31G                selected for orbital group  1
 Library entry C      D 6-31G*               selected for orbital group  1
 Library entry H      S 6-31G                selected for orbital group  2


 PROGRAM * SEWARD (Integral evaluation for generally contracted gaussian basis sets)     Author: Roland Lindh, 1990

 Geometry written to block  1 of record 700


 Point group  C1  



 ATOMIC COORDINATES

 NR  ATOM    CHARGE       X              Y              Z

   1  C       6.00   -1.226054310    0.246231314    0.550288247
   2  C       6.00    1.158402114   -0.368496594   -0.692584625
   3  H       1.00   -2.155421618    1.996306678   -0.131146993
   4  H       1.00   -1.572252136   -1.735335500   -0.294797275
   5  H       1.00    2.081155381    1.444128704    0.110360006
   6  H       1.00    2.650340890   -1.486080624    0.340339675

 Bond lengths in Bohr (Angstrom)

 1-2  2.758306693  1-3  2.095433454  1-4  2.181886687  2-5  2.186733670  2-6  2.131151797
     ( 1.459633043)     ( 1.108855631)     ( 1.154604712)     ( 1.157169625)     ( 1.127756964)

 Bond angles

  1-2-5   90.83629101   1-2-6  120.24220957   2-1-3  115.02460461   2-1-4   76.12748669

  3-1-4  124.20653053   5-2-6   87.78260151

 NUCLEAR CHARGE:                   16
 NUMBER OF PRIMITIVE AOS:          72
 NUMBER OF SYMMETRY AOS:           70
 NUMBER OF CONTRACTIONS:           36   (   36A   )
 NUMBER OF CORE ORBITALS:           2   (    2A   )
 NUMBER OF VALENCE ORBITALS:       12   (   12A   )


 NUCLEAR REPULSION ENERGY   32.17610141

 Eigenvalues of metric

         1 0.936E-02 0.300E-01 0.588E-01 0.622E-01 0.855E-01 0.225E+00 0.237E+00 0.273E+00


 Contracted 2-electron integrals neglected if value below      1.0D-11
 AO integral compression algorithm  1   Integral accuracy      1.0D-11

     1.573 MB (compressed) written to integral file ( 59.1%)


 NUMBER OF SORTED TWO-ELECTRON INTEGRALS:     222111.     BUFFER LENGTH:  32768
 NUMBER OF SEGMENTS:   1  SEGMENT LENGTH:     222111      RECORD LENGTH: 524288

 Memory used in sort:       0.78 MW

 SORT1 READ      284735. AND WROTE      212531. INTEGRALS IN      1 RECORDS. CPU TIME:     0.00 SEC, REAL TIME:     0.01 SEC
 SORT2 READ      212531. AND WROTE      222111. INTEGRALS IN      6 RECORDS. CPU TIME:     0.02 SEC, REAL TIME:     0.02 SEC

 FILE SIZES:   FILE 1:    31.7 MBYTE,  FILE 4:     4.2 MBYTE,   TOTAL:     35.9 MBYTE

 OPERATOR DM      FOR CENTER  0  COORDINATES:    0.000000    0.000000    0.000000


 **********************************************************************************************************************************
 DATASETS  * FILE   NREC   LENGTH (MB)   RECORD NAMES
              1      19       31.13       500      610      700      900      950      970     1000      129      960     1100   
                                          VAR    BASINP    GEOM    SYMINP    ZMAT    AOBASIS   BASIS     P2S    ABASIS      S 
                                         1400     1410     1200     1210     1080     1600     1650     1300     1700   
                                           T        V       H0       H01     AOSYM     SMH    MOLCAS    ERIS     OPER   

 PROGRAMS   *        TOTAL       INT
 CPU TIMES  *         0.31      0.19
 REAL TIME  *         0.52 SEC
 DISK USED  *        36.24 MB
 **********************************************************************************************************************************


 PROGRAM * RHF-SCF (CLOSED SHELL)       Authors: W. Meyer, H.-J. Werner


 NUMBER OF ELECTRONS:       8+    8-    SPACE SYMMETRY=1    SPIN SYMMETRY: Singlet 
 CONVERGENCE THRESHOLDS:    1.00E-05 (Density)    1.00E-07 (Energy)
 MAX. NUMBER OF ITERATIONS:       60
 INTERPOLATION TYPE:            DIIS
 INTERPOLATION STEPS:              2 (START)      1 (STEP)
 LEVEL SHIFTS:                  0.00 (CLOSED)  0.00 (OPEN) 



 Orbital guess generated from atomic densities. Full valence occupancy:    8

 Molecular orbital dump at record        2100.2

 Initial occupancy:   8

 ITERATION    DDIFF          GRAD             ENERGY        2-EL.EN.            DIPOLE MOMENTS         DIIS   ORB.
    1      0.000D+00      0.000D+00       -77.80570819    115.579737    0.12158    0.05308    0.07518    0    start
    2      0.000D+00      0.699D-02       -77.82380710    114.546290    0.00541    0.06363    0.10778    1    diag
    3      0.765D-02      0.230D-02       -77.82594800    114.975824   -0.00074    0.07123    0.11893    2    diag
    4      0.302D-02      0.840D-03       -77.82640968    114.841722   -0.02090    0.07166    0.12546    3    diag
    5      0.167D-02      0.288D-03       -77.82653045    114.849857   -0.02663    0.07292    0.12961    4    diag
    6      0.967D-03      0.121D-03       -77.82656450    114.851398   -0.02925    0.07330    0.13281    5    diag
    7      0.466D-03      0.565D-04       -77.82657241    114.852212   -0.02765    0.07234    0.13144    6    diag
    8      0.245D-03      0.331D-04       -77.82657361    114.852963   -0.02810    0.07283    0.13278    7    diag
    9      0.843D-04      0.121D-04       -77.82657395    114.853227   -0.02752    0.07258    0.13235    8    diag
   10      0.591D-04      0.420D-05       -77.82657397    114.853225   -0.02735    0.07261    0.13229    9    orth
   11      0.153D-04      0.113D-05       -77.82657398    114.853221   -0.02729    0.07261    0.13226    9    diag
   12      0.358D-05      0.320D-06       -77.82657398    114.853223   -0.02729    0.07262    0.13227    0    orth

 Final occupancy:   8

 !RHF STATE  1.1 Energy               -77.826573976022
 Nuclear energy                        32.17610141
 One-electron energy                 -167.42928671
 Two-electron energy                   57.42661132
 Virial quotient                       -1.00214479
 !RHF STATE  1.1 Dipole moment         -0.02728886     0.07262097     0.13226525
 Dipole moment /Debye                  -0.06935682     0.18457200     0.33616271

 ELECTRON ORBITALS
 =================

  Orbital  Occupation    Energy     Coefficients
    1.1     2.00000   -11.27193     1 1s    0.99598
    2.1     2.00000   -11.25497     2 1s    0.99601
    3.1     2.00000    -1.03800     1 1s    0.28840     2 1s    0.27647     2 1s    0.25151
    4.1     2.00000    -0.77863     1 1s   -0.29440     2 1s    0.30558
    5.1     2.00000    -0.63787     1 2py   0.37715
    6.1     2.00000    -0.53373     1 2px   0.31137     2 2px  -0.27344     2 2py   0.29455
    7.1     2.00000    -0.39230     1 2pz   0.29069     1 2pz   0.26241     2 2pz   0.31029     2 2pz   0.29400
    8.1     2.00000    -0.38061     1 2px  -0.29119     2 2py   0.25435     4 1s    0.26983     5 1s    0.30810
    9.1     0.00000     0.06267     1 1s    0.36042     1 2pz   0.35051     1 2pz   0.49558     2 1s    0.46799     2 2pz  -0.30253
                                    2 2pz  -0.41492
   10.1     0.00000     0.21921     1 1s   -1.22192     1 2px   0.44908     1 2pz   0.44417     2 1s   -0.68864     2 2px  -0.34796
                                    2 2py  -0.44523     2 2pz  -0.26198     3 1s    0.81524     4 1s    1.03013     5 1s    0.96470
   11.1     0.00000     0.27333     1 1s    1.01510     1 2px   0.28386     1 2py   0.28523     2 1s   -1.94912     2 2px  -0.36310
                                    2 2pz  -0.76327     3 1s   -0.85928     5 1s    0.43707     6 1s    1.74330
   12.1     0.00000     0.30969     1 1s   -0.63610     1 2py  -0.29687     1 2px   0.25183     1 2py  -1.38361     1 2pz   0.32272
                                    2 1s   -0.53519     2 2px  -0.44875     2 2py   0.48927     2 2pz  -0.42409     3 1s    1.81241
                                    4 1s   -1.02232     6 1s    0.98273
   13.1     0.00000     0.33226     1 1s    1.03267     1 2px  -0.30813     1 2py  -0.30336     1 2pz  -0.33891     2 1s   -0.65439
                                    2 2py  -0.28529     2 2px  -0.35460     2 2py  -1.02376     3 1s   -0.40912     4 1s   -1.45740
                                    5 1s    1.70653     6 1s   -0.36628
   14.1     0.00000     0.42149     1 1s    2.24393     1 2px   1.70208     1 2py  -0.65341     1 2pz  -0.88038     2 1s   -2.01025
                                    2 2px   1.80459     2 2py  -0.60371     2 2pz  -0.74789     3 1s    0.38564     4 1s   -0.37239
                                    6 1s   -0.67078
   15.1     0.00000     0.70212     1 2px  -0.62645     1 2px   0.81835     2 2px   0.45479     2 2pz  -0.30957     2 2px  -0.98827
                                    2 2pz   0.25190     4 1s   -0.52070     5 1s   -0.35936     6 1s    0.32155
   16.1     0.00000     0.77447     1 1s   -0.26525     1 2pz   0.31153     1 2px  -0.33142     2 2px   0.29738     2 2py  -0.57142
                                    2 2px  -0.68335     2 2py   0.95977     3 1s   -0.34282     5 1s   -0.32893     6 1s    0.50848
   17.1     0.00000     0.79525     1 2py  -0.45134     1 2pz  -0.76721     1 2px  -0.32172     1 2py   1.12177     1 2pz   0.85497
                                    2 1s    0.40306     2 2pz  -0.29158     2 2pz   0.28503     4 1s    0.36836
   18.1     0.00000     0.80595     1 2py  -0.55425     1 2pz   0.31327     1 2py   1.26515     2 2py   0.40300     2 2pz   0.59365
                                    2 2px  -0.27273     2 2py  -0.78907     2 2pz  -0.53122     3 1s   -0.28043     3 1s   -0.35944
   19.1     0.00000     0.86744     1 1s   -0.33427     1 1s    0.27171     1 2px  -0.35897     1 2pz  -0.57786     1 2px   0.56618
                                    1 2py  -0.70089     1 2pz   0.80136     2 1s   -0.37955     2 2pz   0.75573     2 2px  -0.35531
                                    2 2py   0.44982     2 2pz  -1.02184     3 1s    0.26675
   20.1     0.00000     0.96857     1 1s    0.29336     1 2px   0.59598     1 2py   0.32859     1 2px  -0.79662     1 2py  -0.72540
                                    2 1s   -0.40651     2 1s    0.38794     2 2px   0.77510     2 2py   0.37574     2 2px  -1.16766
                                    2 2py  -0.86079     4 1s   -1.14197     5 1s    0.80664
   21.1     0.00000     1.06616     1 1s   -0.56298     1 2px   0.49861     1 2px  -1.11442     1 2pz   0.36616     2 1s   -0.34788
                                    2 1s    1.40274     2 2py  -0.35953     2 2px  -0.86363     2 2py   0.75705     3 1s    0.53365
                                    3 1s   -0.69676     4 1s    0.81579     4 1s   -0.91099     5 1s    0.30225     5 1s   -0.51056
                                    6 1s    0.67725
   22.1     0.00000     1.10204     1 1s    0.60156     1 1s   -1.45368     1 2py   0.36004     1 2py  -0.67196     1 2pz   0.40890
                                    2 1s    0.33172     2 2py   0.65332     2 2px  -0.42650     2 2py  -0.65989     3 1s    0.51659
                                    4 1s    0.42371     4 1s   -0.54147     5 1s   -0.52571     5 1s    1.28360     6 1s    0.67878
                                    6 1s   -0.84136
   23.1     0.00000     1.14749     1 1s    0.57212     1 1s   -1.41798     1 2py  -0.53787     1 2px  -0.46427     1 2py   0.67434
                                    1 2pz   0.45709     2 1s    0.77690     2 1s   -1.00358     2 2px   0.51208     2 2px  -1.23764
                                    2 2py   0.28121     2 2pz  -0.35525     3 1s    0.67761     3 1s   -0.76584     4 1s   -0.35303
                                    4 1s    0.89072     5 1s   -0.37373     5 1s    0.85584     6 1s    1.03970
   24.1     0.00000     1.17945     1 1s   -1.04714     1 1s    1.99476     1 2py  -0.49631     1 2py   0.56159     1 2pz  -0.49720
                                    2 1s   -0.86431     2 1s    1.07468     2 2px  -0.26171     2 2pz  -0.25209     2 2px   0.70305
                                    2 2py  -0.35387     2 2pz   0.39119     3 1s    0.55925     3 1s   -1.30142     4 1s   -0.38716
                                    5 1s   -0.30975     6 1s    0.49786     6 1s   -1.16676
   25.1     0.00000     1.20213     1 1s   -1.60430     1 1s    3.73422     1 2pz   0.26047     1 2px   0.44313     1 2pz  -1.01807
                                    2 1s    0.69667     2 1s   -2.11271     2 2py   0.25749     2 2px   0.68471     2 2py  -0.72859
                                    2 2pz  -0.30927     3 1s   -0.75277     4 1s    0.29068     4 1s   -1.03769     5 1s   -0.56767
                                    5 1s    0.76010     6 1s   -0.37898
   26.1     0.00000     1.38451     1 1s    0.55985     1 1s   -2.79477     1 2px  -1.34179     1 2py   0.84353     1 2pz   0.35904
                                    2 1s   -1.67025     2 1s    4.90612     2 2px  -0.44728     2 2py   0.56547     2 2pz   1.58969
                                    4 1s    0.26964     5 1s   -0.71706     5 1s   -0.57060     6 1s   -0.50439     6 1s   -0.64291
   27.1     0.00000     1.72218     1 1s    0.42969     1 3d0   0.40042     1 3d2- -0.39464     1 3d1-  0.28417     2 3d2-  0.36228
                                    2 3d2+  0.43894
   28.1     0.00000     1.88773     1 2px   0.32480     1 2py  -0.26891     1 3d1+  0.44092     1 3d2+  0.32324     2 1s    0.46404
                                    2 1s   -1.25078     2 2pz  -0.53163     2 3d0   0.57621     2 3d1-  0.32714     3 1s    0.26628
                                    6 1s    0.38813
   29.1     0.00000     1.99582     1 1s   -1.24271     1 2px  -0.46313     1 3d2-  0.27938     1 3d1+ -0.32622     2 1s   -0.52942
                                    2 1s    1.85567     2 2py   0.25951     2 2pz   0.61528     2 3d1+  0.45209     2 3d2+  0.39810
                                    2 3d1-  0.48848     3 1s    0.25170     5 1s   -0.31020     6 1s   -0.42602
   30.1     0.00000     2.21324     1 1s    0.46179     1 1s   -1.63039     1 2px  -0.42707     1 2pz   0.44536     1 3d0   0.74647
                                    1 3d1+  0.27691     1 3d2+  0.41257     2 1s    1.16893     2 2py   0.32006     2 2pz   0.30622
                                    2 3d2- -0.34690     2 3d2+ -0.25989     3 1s    0.37751     4 1s    0.48590
   31.1     0.00000     2.25039     1 1s    0.50881     1 1s   -0.50740     1 2px   0.25644     1 2px  -0.34158     1 3d2-  0.40501
                                    1 3d1+  0.33808     1 3d2+ -0.43509     2 1s    0.37681     2 2px  -0.25101     2 2px   0.28938
                                    2 3d1+  0.43192     2 3d2+ -0.31627
   32.1     0.00000     2.34172     1 1s    0.61643     1 2py   0.43482     1 2pz  -0.25440     1 3d2- -0.32203     1 3d1- -0.44396
                                    2 1s    0.29529     2 1s   -0.74921     2 2px   0.36642     2 2py  -0.39233     2 3d0   0.65642
                                    2 3d2- -0.31943     2 3d1- -0.36283     3 1s   -0.43022     4 1s    0.29493     5 1s    0.48192
   33.1     0.00000     2.49272     1 1s    0.29737     1 2py  -0.52603     1 3d2-  0.34072     1 3d1-  0.76807     2 1s   -0.26032
                                    2 3d2- -0.52480     2 3d1- -0.39156     3 1s    0.48761     4 1s   -0.42621     5 1s    0.37370
                                    6 1s   -0.31173
   34.1     0.00000     2.63762     1 2py   0.28800     1 3d2-  0.55231     1 3d2+  0.57423     1 3d1- -0.39061     2 2py  -0.30072
                                    2 3d2-  0.29641     2 3d2+  0.48266     2 3d1- -0.56893     4 1s    0.33480     5 1s    0.34506
   35.1     0.00000     2.68702     1 3d0  -0.49038     1 3d2- -0.39950     1 3d1+  0.41970     2 3d0  -0.38057     2 3d2- -0.50754
                                    2 3d1+  0.60877     3 1s   -0.33063     6 1s   -0.49656
   36.1     0.00000     2.96040     1 1s   -1.74065     1 2px  -0.43924     1 2px  -0.85654     1 2pz   0.45418     1 3d2-  0.31340
                                    1 3d1+  0.69494     1 3d2+ -0.64791     2 1s    1.67642     2 2px  -0.43190     2 2px  -0.89886
                                    2 2pz   0.41917     2 3d2- -0.36831     2 3d1+ -0.69995     2 3d2+  0.64008


 HOMO      8.1    -0.380608 =     -10.3569eV
 LUMO      9.1     0.062670 =       1.7053eV
 LUMO-HOMO         0.443278 =      12.0622eV


 **********************************************************************************************************************************
 DATASETS  * FILE   NREC   LENGTH (MB)   RECORD NAMES
              1      19       31.13       500      610      700      900      950      970     1000      129      960     1100   
                                          VAR    BASINP    GEOM    SYMINP    ZMAT    AOBASIS   BASIS     P2S    ABASIS      S 
                                         1400     1410     1200     1210     1080     1600     1650     1300     1700   
                                           T        V       H0       H01     AOSYM     SMH    MOLCAS    ERIS     OPER   

              2       4        2.86       700     1000      520     2100   
                                         GEOM     BASIS   MCVARS     RHF  

 PROGRAMS   *        TOTAL    HF-SCF       INT
 CPU TIMES  *         0.43      0.13      0.19
 REAL TIME  *         0.70 SEC
 DISK USED  *        36.24 MB
 **********************************************************************************************************************************


 PROGRAM * MULTI (Direct Multiconfiguration SCF)       Authors: P.J. Knowles, H.-J. Werner (1984)


 Number of closed-shell orbitals:   7 (   7 )
 Number of active  orbitals:        2 (   2 )
 Number of external orbitals:      27 (  27 )

 State symmetry 1

 Number of electrons:     2    Spin symmetry=Singlet   Space symmetry=1
 Number of states:        3
 Number of CSFs:          3   (4 determinants, 4 intermediate states)

 Molecular orbitals read from record     2100.2  Type=RHF/CANONICAL (state 1.1)

 Wavefunction dump at record             2140.2

 Convergence thresholds  0.10E-01 (gradient)  0.10E-05 (energy)  0.10E-02 (step length)

 Weight factors for state symmetry  1:    0.33333   0.33333   0.33333

 Number of orbital rotations:      257   (    14 Core/Active    189 Core/Virtual   0 Active/Active     54 Active/Virtual)
 Total number of variables:        269

 Micro-Iterations solved by the two-step solver

 ITER. MIC  NCI  NEG     ENERGY(VAR)     ENERGY(PROJ)   ENERGY CHANGE     GRAD(0)  GRAD(ORB)   GRAD(CI)     STEP       TIME

   1   12    6    0     -77.67254430     -77.69325863   -0.02071433    0.16710957 0.00171761 0.00000000  0.15D+00      0.16
   2    6    5    0     -77.69293904     -77.69297003   -0.00003099    0.00826033 0.00001029 0.00000000  0.56D-02      0.27
   3    8    5    0     -77.69297008     -77.69297008   -0.00000000    0.00002082 0.00000000 0.00000000  0.28D-04      0.39

 ** WVFN ****  CONVERGENCE REACHED, FINAL GRADIENT:  0.28D-09



 Results for state 1.1
 =====================

 !MCSCF STATE  1.1 Energy             -77.820429643933
 Nuclear energy                        32.17610141
 Kinetic energy                        77.70635087
 One electron energy                 -167.48481696
 Two electron energy                   57.48828591
 Virial ratio                           2.00146808

 !MCSCF STATE  1.1 Dipole moment       -0.08244749     0.09536421     0.11193683
 Dipole moment /Debye                  -0.20954690     0.24237576     0.28449640

 Results for state 2.1
 =====================

 !MCSCF STATE  2.1 Energy             -77.719641068596
 Nuclear energy                        32.17610141
 Kinetic energy                        77.79202994
 One electron energy                 -167.21665721
 Two electron energy                   57.32091473
 Virial ratio                           1.99906946

 !MCSCF STATE  2.1 Dipole moment        0.03268577     0.10269478     0.11710606
 Dipole moment /Debye                   0.08307350     0.26100701     0.29763441

 Results for state 3.1
 =====================

 !MCSCF STATE  3.1 Energy             -77.538839537213
 Nuclear energy                        32.17610141
 Kinetic energy                        77.86384289
 One electron energy                 -166.99182945
 Two electron energy                   57.27688850
 Virial ratio                           1.99582600

 !MCSCF STATE  3.1 Dipole moment        0.10970116     0.10236337     0.11502924
 Dipole moment /Debye                   0.27881428     0.26016469     0.29235602

 State-averaged charge density matrix saved on record  2140.2 (density set 1)

 !MCSCF expec         <1.1|DMX|1.1>    -0.082447493807 au =    -0.209546901309 Debye
 !MCSCF trans         <2.1|DMX|1.1>    -0.074602478690 au =    -0.189608167788 Debye
 !MCSCF expec         <2.1|DMX|2.1>     0.032685771388 au =     0.083073502843 Debye
 !MCSCF trans         <3.1|DMX|1.1>    -0.015986146480 au =    -0.040630070170 Debye
 !MCSCF trans         <3.1|DMX|2.1>    -0.090271683791 au =    -0.229432706088 Debye
 !MCSCF expec         <3.1|DMX|3.1>     0.109701163052 au =     0.278814281989 Debye

 !MCSCF expec         <1.1|DMY|1.1>     0.095364207435 au =     0.242375762333 Debye
 !MCSCF trans         <2.1|DMY|1.1>    -0.015633612190 au =    -0.039734076070 Debye
 !MCSCF expec         <2.1|DMY|2.1>     0.102694784174 au =     0.261007009562 Debye
 !MCSCF trans         <3.1|DMY|1.1>    -0.001633102769 au =    -0.004150661335 Debye
 !MCSCF trans         <3.1|DMY|2.1>    -0.017567968622 au =    -0.044650397690 Debye
 !MCSCF expec         <3.1|DMY|3.1>     0.102363368114 au =     0.260164689132 Debye

 !MCSCF expec         <1.1|DMZ|1.1>     0.111936825883 au =     0.284496397927 Debye
 !MCSCF trans         <2.1|DMZ|1.1>    -0.014856046579 au =    -0.037757830865 Debye
 !MCSCF expec         <2.1|DMZ|2.1>     0.117106056333 au =     0.297634410655 Debye
 !MCSCF trans         <3.1|DMZ|1.1>    -0.001368215556 au =    -0.003477429293 Debye
 !MCSCF trans         <3.1|DMZ|2.1>    -0.016549862505 au =    -0.042062799545 Debye
 !MCSCF expec         <3.1|DMZ|3.1>     0.115029243583 au =     0.292356024905 Debye


 NATURAL ORBITALS (state averaged)
 =================================

  Orbital  Occupation    Energy     Coefficients
    1.1     2.00000   -11.26123     1 1s    0.99493
    2.1     2.00000   -11.25392     2 1s    0.99497
    3.1     2.00000    -1.04984     1 1s    0.28058     2 1s    0.27464     2 1s    0.25119
    4.1     2.00000    -0.78097     1 1s   -0.31865     2 1s    0.32332
    5.1     2.00000    -0.63883     1 2py   0.37039
    6.1     2.00000    -0.52978     1 2px   0.25055     2 2py   0.32999
    7.1     2.00000    -0.41836     1 2pz   0.30608     1 2pz   0.25998     2 2pz   0.33350     2 2pz   0.29218
    8.1     1.00000    -0.08676     1 2pz   0.43182     1 2pz   0.45097     2 1s    0.33886     2 2pz  -0.36683     2 2pz  -0.38678
    9.1     1.00000    -0.22656     1 2px  -0.33328     2 2px   0.26494     4 1s    0.28879     5 1s    0.30828
   10.1    -0.00000     0.20833     1 1s   -1.18418     1 2px   0.44833     1 2py   0.26398     1 2pz   0.37933     2 1s   -0.78852
                                    2 2px  -0.37749     2 2py  -0.45499     3 1s    0.74482     4 1s    1.01748     5 1s    1.01852
   11.1    -0.00000     0.26957     1 1s    1.11909     1 2px   0.25570     2 1s   -2.02662     2 2px  -0.38670     2 2pz  -0.76229
                                    3 1s   -0.79954     5 1s    0.58060     6 1s    1.73677
   12.1    -0.00000     0.30948     1 2py  -0.32869     1 2py  -1.45271     2 1s   -0.66366     2 2px  -0.42160     2 2pz  -0.38100
                                    3 1s    1.63084     4 1s   -1.51435     5 1s    0.69422     6 1s    0.54992
   13.1    -0.00000     0.32144     1 1s    1.31177     1 2px  -0.30975     1 2pz  -0.46368     2 1s   -0.33797     2 2py  -0.30978
                                    2 2py  -1.17949     3 1s   -1.02419     4 1s   -1.01095     5 1s    1.49555     6 1s   -0.89395
   14.1    -0.00000     0.42698     1 1s    2.12229     1 2px   1.71429     1 2py  -0.55429     1 2pz  -0.81876     2 1s   -1.89829
                                    2 2px   0.26123     2 2px   1.82723     2 2py  -0.49742     2 2pz  -0.70487     3 1s    0.37294
                                    6 1s   -0.67163
   15.1    -0.00000     0.70001     1 2px  -0.60811     1 2px   0.76059     2 2px   0.44212     2 2pz  -0.30676     2 2px  -0.99987
                                    2 2pz   0.27166     4 1s    0.27569     4 1s   -0.58174     5 1s   -0.41260     6 1s    0.34046
   16.1    -0.00000     0.77050     1 1s   -0.32308     1 2pz   0.25947     1 2px  -0.35183     2 2px   0.30592     2 2py  -0.55785
                                    2 2px  -0.72055     2 2py   0.97952     3 1s   -0.33353     5 1s   -0.35977     6 1s    0.51855
   17.1    -0.00000     0.79461     1 1s   -0.40815     1 2py  -0.42051     1 2pz  -0.77311     1 2px  -0.38575     1 2py   1.10638
                                    1 2pz   0.97657     2 1s    0.56963     2 2pz  -0.27606     2 2pz   0.28367     4 1s    0.36874
   18.1    -0.00000     0.80708     1 2py  -0.54806     1 2pz   0.33799     1 2py   1.26243     1 2pz  -0.25379     2 2py   0.36687
                                    2 2pz   0.58822     2 2px  -0.27218     2 2py  -0.76250     2 2pz  -0.58441     3 1s   -0.28778
                                    3 1s   -0.36381
   19.1    -0.00000     0.86631     1 1s   -0.29754     1 2px  -0.37623     1 2pz  -0.53743     1 2px   0.60014     1 2py  -0.70884
                                    1 2pz   0.82600     2 1s   -0.33873     2 2pz   0.74514     2 2px  -0.40228     2 2py   0.42559
                                    2 2pz  -1.08622     3 1s    0.30330     6 1s    0.28821
   20.1    -0.00000     0.97355     1 1s    0.41357     1 2px   0.57259     1 2py   0.30168     1 2px  -0.67568     1 2py  -0.69608
                                    2 1s   -0.39325     2 1s    0.26472     2 2px   0.76816     2 2py   0.38935     2 2px  -1.03614
                                    2 2py  -0.90285     4 1s   -1.02559     5 1s    0.77645
   21.1    -0.00000     1.05059     1 1s   -0.31886     1 2px   0.52229     1 2py   0.26095     1 2px  -1.08183     1 2pz   0.31836
                                    2 1s   -0.43814     2 1s    1.44317     2 2py  -0.34087     2 2px  -0.75489     2 2py   0.67084
                                    3 1s    0.40501     3 1s   -0.52738     4 1s    0.84025     4 1s   -1.10703     5 1s    0.34710
                                    5 1s   -0.52909     6 1s    0.56295
   22.1    -0.00000     1.08538     1 1s    0.45231     1 1s   -1.10816     1 2py   0.36917     1 2py  -0.67348     1 2pz   0.29622
                                    2 1s    0.28411     2 2py   0.69121     2 2px  -0.52280     2 2py  -0.73453     3 1s    0.27215
                                    3 1s    0.38104     4 1s    0.45600     4 1s   -0.66726     5 1s   -0.66288     5 1s    1.50320
                                    6 1s    0.51135     6 1s   -0.60287
   23.1    -0.00000     1.14164     1 1s    0.47180     1 1s   -1.26640     1 2py  -0.50792     1 2px  -0.57457     1 2py   0.70411
                                    1 2pz   0.42059     2 1s    0.78824     2 1s   -0.96895     2 2px   0.57516     2 2px  -1.32355
                                    2 2py   0.43157     2 2pz  -0.33445     3 1s    0.65384     3 1s   -0.84717     4 1s    0.73292
                                    5 1s   -0.29867     5 1s    0.67585     6 1s   -0.37235     6 1s    1.30126
   24.1    -0.00000     1.17670     1 1s    0.41211     1 1s   -1.31843     1 2py  -0.42907     1 2px  -0.44125     1 2py   0.45448
                                    1 2pz   0.42576     2 1s   -0.98916     2 1s    2.08498     2 2pz   0.38188     3 1s    0.57761
                                    3 1s   -0.48552     4 1s   -0.41631     4 1s    0.72565     5 1s    0.32506     5 1s   -0.44334
                                    6 1s    0.70351     6 1s   -0.92929
   25.1    -0.00000     1.19017     1 1s   -1.92258     1 1s    4.11122     1 2py  -0.30388     1 2py   0.38070     1 2pz  -1.07029
                                    2 1s   -0.68452     2 2py   0.25700     2 2px   0.98208     2 2py  -0.70115     3 1s    0.31906
                                    3 1s   -1.48446     4 1s   -0.65237     5 1s   -0.34323     6 1s   -0.61775
   26.1    -0.00000     1.37286     1 1s    0.61397     1 1s   -2.92027     1 2px  -1.37455     1 2py   0.84812     1 2pz   0.38265
                                    2 1s   -1.71296     2 1s    5.02361     2 2px  -0.47369     2 2py   0.58400     2 2pz   1.60696
                                    4 1s    0.28154     5 1s   -0.68442     5 1s   -0.61972     6 1s   -0.51071     6 1s   -0.64030
   27.1    -0.00000     1.71705     1 1s    0.44910     1 3d0   0.39308     1 3d2- -0.39401     1 3d1-  0.28148     2 3d2-  0.36687
                                    2 3d2+  0.44244
   28.1    -0.00000     1.88673     1 2px   0.30991     1 2py  -0.26471     1 3d1+  0.43430     1 3d2+  0.32765     2 1s    0.44274
                                    2 1s   -1.18685     2 2pz  -0.50647     2 3d0   0.57804     2 3d1-  0.33399     3 1s    0.26269
                                    6 1s    0.37912
   29.1    -0.00000     1.99054     1 1s   -1.21775     1 2px  -0.45560     1 3d2-  0.28168     1 3d1+ -0.33398     2 1s   -0.52595
                                    2 1s    1.84072     2 2py   0.26073     2 2pz   0.61103     2 3d1+  0.45422     2 3d2+  0.39199
                                    2 3d1-  0.48644     3 1s    0.25212     5 1s   -0.30506     6 1s   -0.43027
   30.1    -0.00000     2.21384     1 1s    0.40145     1 1s   -1.54063     1 2px  -0.37981     1 2pz   0.41414     1 3d0   0.72691
                                    1 3d2+  0.45920     2 1s    1.15081     2 2px  -0.25615     2 2py   0.32883     2 2pz   0.30582
                                    2 3d2- -0.37883     3 1s    0.36463     4 1s    0.49825
   31.1    -0.00000     2.24591     1 1s    0.56018     1 1s   -0.71260     1 2px   0.26345     1 2px  -0.38762     1 3d2-  0.40058
                                    1 3d1+  0.37780     1 3d2+ -0.37579     2 1s    0.34768     2 2px  -0.26442     2 2px   0.25131
                                    2 3d1+  0.42722     2 3d2+ -0.35184
   32.1    -0.00000     2.33561     1 1s    0.60759     1 2py   0.43279     1 2pz  -0.25535     1 3d2- -0.29494     1 3d1- -0.42655
                                    2 1s    0.30915     2 1s   -0.74766     2 2px   0.38022     2 2py  -0.40757     2 3d0   0.66374
                                    2 3d2- -0.32907     2 3d1- -0.38630     3 1s   -0.42421     4 1s    0.26669     5 1s    0.47692
   33.1    -0.00000     2.48950     1 1s    0.26702     1 2py  -0.53308     1 3d2-  0.35517     1 3d1-  0.77273     2 3d2- -0.51841
                                    2 3d1- -0.39350     3 1s    0.49989     4 1s   -0.41904     5 1s    0.35739     6 1s   -0.31739
   34.1    -0.00000     2.63016     1 2py   0.30089     1 3d2-  0.55919     1 3d2+  0.57059     1 3d1- -0.40185     2 2py  -0.29938
                                    2 3d2-  0.31581     2 3d2+  0.47480     2 3d1- -0.55938     4 1s    0.33505     5 1s    0.32497
   35.1    -0.00000     2.69290     1 3d0  -0.49878     1 3d2- -0.38824     1 3d1+  0.42386     2 3d0  -0.38808     2 3d2- -0.48584
                                    2 3d1+  0.61309     3 1s   -0.33156     6 1s   -0.49175
   36.1    -0.00000     2.95699     1 1s   -1.77136     1 2px  -0.43340     1 2px  -0.86918     1 2py   0.25643     1 2pz   0.46240
                                    1 3d2-  0.31110     1 3d1+  0.70122     1 3d2+ -0.64572     2 1s    1.70515     2 2px  -0.42550
                                    2 2px  -0.90877     2 2pz   0.42659     2 3d2- -0.36767     2 3d1+ -0.69787     2 3d2+  0.63765


 Natural orbital dump (state averaged) at molpro section  2140.2    (Orbital set 2)



 **********************************************************************************************************************************
 DATASETS  * FILE   NREC   LENGTH (MB)   RECORD NAMES
              1      20       31.86       500      610      700      900      950      970     1000      129      960     1100   
                                          VAR    BASINP    GEOM    SYMINP    ZMAT    AOBASIS   BASIS     P2S    ABASIS      S 
                                         1400     1410     1200     1210     1080     1600     1650     1300     1700     1380   
                                           T        V       H0       H01     AOSYM     SMH    MOLCAS    ERIS     OPER     JKOP   

              2       5        5.42       700     1000      520     2100     2140   
                                         GEOM     BASIS   MCVARS     RHF     MCSCF   

 PROGRAMS   *        TOTAL     MULTI    HF-SCF       INT
 CPU TIMES  *         0.88      0.44      0.13      0.19
 REAL TIME  *         1.23 SEC
 DISK USED  *        39.04 MB
 **********************************************************************************************************************************
 Molecular orbitals read from record     2140.2  Type=MCSCF/NATURAL (state averaged)
 Occupation numbers read from record     2140.2  Type=MCSCF/NATURAL (state averaged)
 Orbital energies read from record       2140.2  Type=MCSCF/NATURAL (state averaged)
 Redundancy group numbers read from rec  2140.2  Type=MCSCF/NATURAL (state averaged)

 MULTI/6-31G* energy=    -77.538839537213

           MULTI          HF-SCF
    -77.53883954    -77.82657398
 **********************************************************************************************************************************
 Molpro calculation terminated
