
 Primary working directories    : /scratch.local/johan406.molpro_temp/molpro.50Bfpd0j3C
 Secondary working directories  : /scratch.local/johan406.molpro_temp/molpro.50Bfpd0j3C
 Wavefunction directory         : /home/goodpast/johan406/wfu/
 Main file repository           : /scratch.local/johan406.molpro_temp/molpro.50Bfpd0j3C/

 id        : roweumn

 Nodes     nprocs
 acn09        1

 Using customized tuning parameters: mindgm=1; mindgv=20; mindgc=4; mindgr=1; noblas=0; minvec=7
 default implementation of scratch files=df  


 Variables initialized (934), CPU time= 0.01 sec
                                                                                 !leave this line blank
 
 gprint, orbitals=30
 memory, 125., m
 symmetry, nosym
 nelect=16
 basis=6-31g*
 
 geometry={
 C -0.6498 0.1299 0.2909
 C 0.6121 -0.1953 -0.3668
 H -1.1352 1.0633 -0.0657
 H -0.8264 -0.9205 -0.1568
 H 1.1069 0.762 0.0576
 H 1.4079 -0.7795 0.1837
 }
 
 hf
 {multi,
 closed 7
 occ 9
 wf,spin=0;STATE,3
 }
 
 Commands  initialized (763), CPU time= 0.01 sec, 617 directives.
 Default parameters read. Elapsed time= 0.07 sec

 Checking input...
 Passed
1


                                         ***  PROGRAM SYSTEM MOLPRO  ***
                                       Copyright, TTI GmbH Stuttgart, 2015
                                    Version 2019.2 linked Oct 25 2019 22:50:27


 **********************************************************************************************************************************
 LABEL *                                                                                 
  64 bit serial version                                                                  DATE: 07-Feb-23          TIME: 15:24:53  
 **********************************************************************************************************************************

 SHA1:             8dbd9ae1082e4ce945b0f27595c9eb2d4aa09004
 **********************************************************************************************************************************


 Variable memory set to  125000000 words,  buffer space 

 SETTING NELECT         =        16.00000000                                  
 SETTING BASIS          =    6-31G*
 ZSYMEL=NOSYM


Geometry recognized as XYZ



 Recomputing integrals since basis changed


 Using spherical harmonics

 Library entry C      S 6-31G                selected for orbital group  1
 Library entry C      P 6-31G                selected for orbital group  1
 Library entry C      D 6-31G*               selected for orbital group  1
 Library entry H      S 6-31G                selected for orbital group  2


 PROGRAM * SEWARD (Integral evaluation for generally contracted gaussian basis sets)     Author: Roland Lindh, 1990

 Geometry written to block  1 of record 700


 Point group  C1  



 ATOMIC COORDINATES

 NR  ATOM    CHARGE       X              Y              Z

   1  C       6.00   -1.227944036    0.245475424    0.549721330
   2  C       6.00    1.156701361   -0.369063512   -0.693151542
   3  H       1.00   -2.145217097    2.009345788   -0.124155006
   4  H       1.00   -1.561669669   -1.739492898   -0.296309056
   5  H       1.00    2.091737847    1.439971307    0.108848225
   6  H       1.00    2.660545411   -1.473041514    0.347142689

 Bond lengths in Bohr (Angstrom)

 1-2  2.758427949  1-3  2.099223153  1-4  2.183400891  2-5  2.188630584  2-6  2.136007126
     ( 1.459697208)     ( 1.110861053)     ( 1.155405994)     ( 1.158173428)     ( 1.130326294)

 Bond angles

  1-2-5   91.15055567   1-2-6  120.28796122   2-1-3  114.85379932   2-1-4   75.81859311

  3-1-4  124.93948365   5-2-6   87.01640633

 NUCLEAR CHARGE:                   16
 NUMBER OF PRIMITIVE AOS:          72
 NUMBER OF SYMMETRY AOS:           70
 NUMBER OF CONTRACTIONS:           36   (   36A   )
 NUMBER OF CORE ORBITALS:           2   (    2A   )
 NUMBER OF VALENCE ORBITALS:       12   (   12A   )


 NUCLEAR REPULSION ENERGY   32.15954064

 Eigenvalues of metric

         1 0.937E-02 0.303E-01 0.585E-01 0.624E-01 0.859E-01 0.226E+00 0.237E+00 0.273E+00


 Contracted 2-electron integrals neglected if value below      1.0D-11
 AO integral compression algorithm  1   Integral accuracy      1.0D-11

     1.573 MB (compressed) written to integral file ( 59.1%)


 NUMBER OF SORTED TWO-ELECTRON INTEGRALS:     222111.     BUFFER LENGTH:  32768
 NUMBER OF SEGMENTS:   1  SEGMENT LENGTH:     222111      RECORD LENGTH: 524288

 Memory used in sort:       0.78 MW

 SORT1 READ      284735. AND WROTE      212531. INTEGRALS IN      1 RECORDS. CPU TIME:     0.01 SEC, REAL TIME:     0.02 SEC
 SORT2 READ      212531. AND WROTE      222111. INTEGRALS IN      6 RECORDS. CPU TIME:     0.02 SEC, REAL TIME:     0.03 SEC

 FILE SIZES:   FILE 1:    31.7 MBYTE,  FILE 4:     4.2 MBYTE,   TOTAL:     35.9 MBYTE

 OPERATOR DM      FOR CENTER  0  COORDINATES:    0.000000    0.000000    0.000000


 **********************************************************************************************************************************
 DATASETS  * FILE   NREC   LENGTH (MB)   RECORD NAMES
              1      19       31.13       500      610      700      900      950      970     1000      129      960     1100   
                                          VAR    BASINP    GEOM    SYMINP    ZMAT    AOBASIS   BASIS     P2S    ABASIS      S 
                                         1400     1410     1200     1210     1080     1600     1650     1300     1700   
                                           T        V       H0       H01     AOSYM     SMH    MOLCAS    ERIS     OPER   

 PROGRAMS   *        TOTAL       INT
 CPU TIMES  *         0.32      0.22
 REAL TIME  *         0.60 SEC
 DISK USED  *        36.24 MB
 **********************************************************************************************************************************


 PROGRAM * RHF-SCF (CLOSED SHELL)       Authors: W. Meyer, H.-J. Werner


 NUMBER OF ELECTRONS:       8+    8-    SPACE SYMMETRY=1    SPIN SYMMETRY: Singlet 
 CONVERGENCE THRESHOLDS:    1.00E-05 (Density)    1.00E-07 (Energy)
 MAX. NUMBER OF ITERATIONS:       60
 INTERPOLATION TYPE:            DIIS
 INTERPOLATION STEPS:              2 (START)      1 (STEP)
 LEVEL SHIFTS:                  0.00 (CLOSED)  0.00 (OPEN) 



 Orbital guess generated from atomic densities. Full valence occupancy:    8

 Molecular orbital dump at record        2100.2

 Initial occupancy:   8

 ITERATION    DDIFF          GRAD             ENERGY        2-EL.EN.            DIPOLE MOMENTS         DIIS   ORB.
    1      0.000D+00      0.000D+00       -77.80377914    115.548565    0.12828    0.05625    0.07892    0    start
    2      0.000D+00      0.699D-02       -77.82189247    114.513620    0.00659    0.06650    0.11214    1    diag
    3      0.767D-02      0.231D-02       -77.82404004    114.944427    0.00002    0.07469    0.12414    2    diag
    4      0.302D-02      0.842D-03       -77.82450393    114.809802   -0.02090    0.07499    0.13060    3    diag
    5      0.167D-02      0.288D-03       -77.82462359    114.818054   -0.02715    0.07647    0.13528    4    diag
    6      0.967D-03      0.121D-03       -77.82465729    114.819477   -0.02943    0.07656    0.13789    5    diag
    7      0.470D-03      0.538D-04       -77.82466519    114.820574   -0.02832    0.07601    0.13752    6    diag
    8      0.257D-03      0.250D-04       -77.82466604    114.821204   -0.02860    0.07634    0.13852    7    diag
    9      0.723D-04      0.121D-04       -77.82466630    114.821358   -0.02794    0.07601    0.13788    8    diag
   10      0.495D-04      0.450D-05       -77.82466632    114.821364   -0.02778    0.07606    0.13784    9    orth
   11      0.155D-04      0.115D-05       -77.82466632    114.821359   -0.02772    0.07606    0.13781    9    diag
   12      0.371D-05      0.328D-06       -77.82466632    114.821361   -0.02772    0.07607    0.13782    0    orth

 Final occupancy:   8

 !RHF STATE  1.1 Energy               -77.824666324780
 Nuclear energy                        32.15954064
 One-electron energy                 -167.39488749
 Two-electron energy                   57.41068053
 Virial quotient                       -1.00221986
 !RHF STATE  1.1 Dipole moment         -0.02771690     0.07606690     0.13781832
 Dipole moment /Debye                  -0.07044471     0.19333010     0.35027628

 ELECTRON ORBITALS
 =================

  Orbital  Occupation    Energy     Coefficients
    1.1     2.00000   -11.27260     1 1s    0.99600
    2.1     2.00000   -11.25495     2 1s   -0.99604
    3.1     2.00000    -1.03806     1 1s    0.28854     2 1s    0.27622     2 1s    0.25156
    4.1     2.00000    -0.77817     1 1s   -0.29480     2 1s    0.30625
    5.1     2.00000    -0.63869     1 2py   0.37761
    6.1     2.00000    -0.53194     1 2px   0.31234     2 2px  -0.27350     2 2py   0.29413
    7.1     2.00000    -0.39229     1 2pz   0.28929     1 2pz   0.26120     2 2pz   0.31149     2 2pz   0.29498
    8.1     2.00000    -0.38007     1 2px  -0.29029     2 2py   0.25605     4 1s    0.26888     5 1s    0.30998
    9.1     0.00000     0.06261     1 1s    0.35904     1 2pz   0.35122     1 2pz   0.49629     2 1s    0.47177     2 2pz  -0.30110
                                    2 2pz  -0.41194
   10.1     0.00000     0.21808     1 1s   -1.22319     1 2px   0.44493     1 2pz   0.44203     2 1s   -0.66555     2 2px  -0.33796
                                    2 2py  -0.44469     2 2pz  -0.25131     3 1s    0.82148     4 1s    1.02520     5 1s    0.95397
   11.1     0.00000     0.27268     1 1s    0.99256     1 2px   0.29219     1 2py   0.28362     2 1s   -1.95472     2 2px  -0.37707
                                    2 2pz  -0.77147     3 1s   -0.83711     5 1s    0.45585     6 1s    1.74237
   12.1     0.00000     0.30943     1 1s   -0.62858     1 2py  -0.29912     1 2py  -1.39082     1 2pz   0.31620     2 1s   -0.51925
                                    2 2px  -0.44703     2 2py   0.47426     2 2pz  -0.41991     3 1s    1.81380     4 1s   -1.03855
                                    6 1s    0.96144
   13.1     0.00000     0.33198     1 1s    1.01983     1 2px  -0.30848     1 2py  -0.29049     1 2pz  -0.33474     2 1s   -0.63670
                                    2 2py  -0.28726     2 2px  -0.36114     2 2py  -1.02675     3 1s   -0.41180     4 1s   -1.44874
                                    5 1s    1.70344     6 1s   -0.37534
   14.1     0.00000     0.42136     1 1s    2.25428     1 2px   1.69820     1 2py  -0.65201     1 2pz  -0.88424     2 1s   -2.01197
                                    2 2px   1.80400     2 2py  -0.60310     2 2pz  -0.74696     3 1s    0.37227     4 1s   -0.37889
                                    6 1s   -0.66947
   15.1     0.00000     0.70211     1 2px  -0.62855     1 2px   0.81271     2 2px   0.45160     2 2pz  -0.31285     2 2px  -0.99016
                                    2 2pz   0.25705     4 1s   -0.52436     5 1s   -0.35673     6 1s    0.32313
   16.1     0.00000     0.77540     1 1s   -0.25297     1 2pz   0.34335     1 2px  -0.30991     2 2px   0.29582     2 2py  -0.57535
                                    2 2px  -0.67439     2 2py   0.95884     3 1s   -0.33066     5 1s   -0.32601     6 1s    0.50030
   17.1     0.00000     0.79587     1 2py  -0.42062     1 2pz  -0.77258     1 2px  -0.32751     1 2py   1.06133     1 2pz   0.86472
                                    2 1s    0.39704     2 2pz  -0.31411     2 2pz   0.30412     4 1s    0.35849
   18.1     0.00000     0.80677     1 2py  -0.57998     1 2pz   0.27413     1 2py   1.33168     2 2py   0.39992     2 2pz   0.57741
                                    2 2px  -0.29250     2 2py  -0.78199     2 2pz  -0.51578     3 1s   -0.29365     3 1s   -0.37392
   19.1     0.00000     0.86764     1 1s   -0.33456     1 1s    0.27933     1 2px  -0.36488     1 2pz  -0.57365     1 2px   0.57415
                                    1 2py  -0.71264     1 2pz   0.79226     2 1s   -0.37947     2 2pz   0.75609     2 2px  -0.34749
                                    2 2py   0.44640     2 2pz  -1.02147     3 1s    0.27127
   20.1     0.00000     0.96804     1 1s    0.32221     1 2px   0.58777     1 2py   0.32485     1 2px  -0.77227     1 2py  -0.72248
                                    2 1s   -0.41177     2 1s    0.38237     2 2px   0.77604     2 2py   0.37576     2 2px  -1.15811
                                    2 2py  -0.86619     4 1s   -1.13807     5 1s    0.79399
   21.1     0.00000     1.06205     1 1s   -0.62177     1 2px   0.50186     1 2px  -1.12867     1 2pz   0.38618     2 1s   -0.33996
                                    2 1s    1.40100     2 2py  -0.33729     2 2px  -0.90289     2 2py   0.73197     3 1s    0.54462
                                    3 1s   -0.68547     4 1s    0.81913     4 1s   -0.92621     5 1s    0.28677     5 1s   -0.45743
                                    6 1s    0.66441
   22.1     0.00000     1.09954     1 1s    0.61334     1 1s   -1.44939     1 2py   0.36169     1 2py  -0.68752     1 2pz   0.39974
                                    2 1s    0.30677     2 2py   0.66308     2 2px  -0.41814     2 2py  -0.68539     3 1s    0.54222
                                    4 1s    0.39262     4 1s   -0.52560     5 1s   -0.52733     5 1s    1.30120     6 1s    0.68539
                                    6 1s   -0.86399
   23.1     0.00000     1.14696     1 1s    0.57207     1 1s   -1.39760     1 2py  -0.52918     1 2px  -0.44522     1 2py   0.65712
                                    1 2pz   0.45202     2 1s    0.79982     2 1s   -1.05781     2 2px   0.51816     2 2px  -1.23560
                                    2 2py   0.26353     2 2pz  -0.36817     3 1s    0.66530     3 1s   -0.74470     4 1s   -0.35804
                                    4 1s    0.88560     5 1s   -0.37862     5 1s    0.87402     6 1s    1.04421
   24.1     0.00000     1.17768     1 1s   -1.07277     1 1s    2.04704     1 2py  -0.50022     1 2py   0.56507     1 2pz  -0.50771
                                    2 1s   -0.83961     2 1s    1.01678     2 2px  -0.25603     2 2px   0.70185     2 2py  -0.36238
                                    2 2pz   0.38046     3 1s    0.56917     3 1s   -1.32253     4 1s   -0.38405     5 1s   -0.27741
                                    6 1s    0.48492     6 1s   -1.14822
   25.1     0.00000     1.20036     1 1s   -1.57624     1 1s    3.67444     1 2pz   0.25817     1 2px   0.45487     1 2pz  -0.99916
                                    2 1s    0.71232     2 1s   -2.12448     2 2py   0.25734     2 2px   0.67763     2 2py  -0.72269
                                    2 2pz  -0.31689     3 1s   -0.71122     4 1s    0.31214     4 1s   -1.04428     5 1s   -0.56964
                                    5 1s    0.76566     6 1s   -0.38167
   26.1     0.00000     1.38647     1 1s    0.56699     1 1s   -2.80653     1 2px  -1.34453     1 2py   0.83700     1 2pz   0.36344
                                    2 1s   -1.66089     2 1s    4.88595     2 2px  -0.44327     2 2py   0.57873     2 2pz   1.58525
                                    4 1s    0.27161     5 1s   -0.71807     5 1s   -0.56565     6 1s   -0.50368     6 1s   -0.63129
   27.1     0.00000     1.72409     1 1s    0.41474     1 3d0   0.39676     1 3d2- -0.40211     1 3d1-  0.28734     2 3d2-  0.36532
                                    2 3d2+  0.43902
   28.1     0.00000     1.88586     1 2px   0.32261     1 2py  -0.26760     1 3d1+  0.43891     1 3d2+  0.32027     2 1s    0.46222
                                    2 1s   -1.24227     2 2pz  -0.52970     2 3d0   0.57950     2 3d1-  0.33320     3 1s    0.26363
                                    6 1s    0.38806
   29.1     0.00000     2.00055     1 1s   -1.24365     1 2px  -0.47207     1 3d2-  0.27548     1 3d1+ -0.32898     2 1s   -0.54719
                                    2 1s    1.89473     2 2py   0.26436     2 2pz   0.63466     2 3d1+  0.44953     2 3d2+  0.40675
                                    2 3d1-  0.48605     5 1s   -0.31859     6 1s   -0.43610
   30.1     0.00000     2.21550     1 1s    0.46496     1 1s   -1.61715     1 2px  -0.42753     1 2pz   0.44203     1 3d0   0.74849
                                    1 3d1+  0.28080     1 3d2+  0.41033     2 1s    1.13997     2 2py   0.31818     2 2pz   0.29849
                                    2 3d2- -0.35306     2 3d2+ -0.25866     3 1s    0.37464     4 1s    0.49068
   31.1     0.00000     2.25017     1 1s    0.50750     1 1s   -0.51461     1 2px   0.25555     1 2px  -0.34394     1 3d2-  0.41176
                                    1 3d1+  0.33464     1 3d2+ -0.43689     2 1s    0.36695     2 2px   0.28910     2 3d1+  0.43396
                                    2 3d2+ -0.31085
   32.1     0.00000     2.34099     1 1s    0.64037     1 2py   0.44141     1 2pz  -0.25670     1 3d2- -0.31770     1 3d1- -0.45029
                                    2 1s    0.30516     2 1s   -0.77974     2 2px   0.37247     2 2py  -0.39495     2 3d0   0.65807
                                    2 3d2- -0.31339     2 3d1- -0.36316     3 1s   -0.43896     4 1s    0.29038     5 1s    0.48246
   33.1     0.00000     2.48634     1 1s    0.30455     1 2px   0.25151     1 2py  -0.53034     1 3d2-  0.33242     1 3d1-  0.76711
                                    2 1s   -0.26947     2 3d2- -0.52682     2 3d1- -0.39069     3 1s    0.48186     4 1s   -0.41947
                                    5 1s    0.38014     6 1s   -0.30318
   34.1     0.00000     2.63663     1 2py   0.29007     1 3d2-  0.55204     1 3d2+  0.57684     1 3d1- -0.39188     2 2py  -0.29788
                                    2 3d2-  0.29392     2 3d2+  0.48122     2 3d1- -0.56709     4 1s    0.33704     5 1s    0.34023
   35.1     0.00000     2.68445     1 3d0  -0.49293     1 3d2- -0.39686     1 3d1+  0.41924     2 3d0  -0.38228     2 3d2- -0.50577
                                    2 3d1+  0.61185     3 1s   -0.32411     6 1s   -0.49393
   36.1     0.00000     2.96037     1 1s   -1.74088     1 2px  -0.43922     1 2px  -0.85590     1 2pz   0.45453     1 3d2-  0.31258
                                    1 3d1+  0.69435     1 3d2+ -0.64835     2 1s    1.67454     2 2px  -0.43158     2 2px  -0.90003
                                    2 2pz   0.41831     2 3d2- -0.36836     2 3d1+ -0.70065     2 3d2+  0.63947


 HOMO      8.1    -0.380070 =     -10.3422eV
 LUMO      9.1     0.062610 =       1.7037eV
 LUMO-HOMO         0.442680 =      12.0459eV


 **********************************************************************************************************************************
 DATASETS  * FILE   NREC   LENGTH (MB)   RECORD NAMES
              1      19       31.13       500      610      700      900      950      970     1000      129      960     1100   
                                          VAR    BASINP    GEOM    SYMINP    ZMAT    AOBASIS   BASIS     P2S    ABASIS      S 
                                         1400     1410     1200     1210     1080     1600     1650     1300     1700   
                                           T        V       H0       H01     AOSYM     SMH    MOLCAS    ERIS     OPER   

              2       4        2.86       700     1000      520     2100   
                                         GEOM     BASIS   MCVARS     RHF  

 PROGRAMS   *        TOTAL    HF-SCF       INT
 CPU TIMES  *         0.48      0.16      0.22
 REAL TIME  *         0.87 SEC
 DISK USED  *        36.24 MB
 **********************************************************************************************************************************


 PROGRAM * MULTI (Direct Multiconfiguration SCF)       Authors: P.J. Knowles, H.-J. Werner (1984)


 Number of closed-shell orbitals:   7 (   7 )
 Number of active  orbitals:        2 (   2 )
 Number of external orbitals:      27 (  27 )

 State symmetry 1

 Number of electrons:     2    Spin symmetry=Singlet   Space symmetry=1
 Number of states:        3
 Number of CSFs:          3   (4 determinants, 4 intermediate states)

 Molecular orbitals read from record     2100.2  Type=RHF/CANONICAL (state 1.1)

 Wavefunction dump at record             2140.2

 Convergence thresholds  0.10E-01 (gradient)  0.10E-05 (energy)  0.10E-02 (step length)

 Weight factors for state symmetry  1:    0.33333   0.33333   0.33333

 Number of orbital rotations:      257   (    14 Core/Active    189 Core/Virtual   0 Active/Active     54 Active/Virtual)
 Total number of variables:        269

 Micro-Iterations solved by the two-step solver

 ITER. MIC  NCI  NEG     ENERGY(VAR)     ENERGY(PROJ)   ENERGY CHANGE     GRAD(0)  GRAD(ORB)   GRAD(CI)     STEP       TIME

   1   12    6    0     -77.67095480     -77.69166232   -0.02070752    0.16714748 0.00173842 0.00000000  0.15D+00      0.18
   2    6    5    0     -77.69134979     -77.69137960   -0.00002981    0.00811039 0.00000969 0.00000000  0.55D-02      0.28
   3    7    5    0     -77.69137965     -77.69137965   -0.00000000    0.00002000 0.00000000 0.00000000  0.27D-04      0.40

 ** WVFN ****  CONVERGENCE REACHED, FINAL GRADIENT:  0.26D-09



 Results for state 1.1
 =====================

 !MCSCF STATE  1.1 Energy             -77.818539107754
 Nuclear energy                        32.15954064
 Kinetic energy                        77.69778950
 One electron energy                 -167.44859657
 Two electron energy                   57.47051682
 Virial ratio                           2.00155409

 !MCSCF STATE  1.1 Dipole moment       -0.08523867     0.09978222     0.11660362
 Dipole moment /Debye                  -0.21664089     0.25360448     0.29635742

 Results for state 2.1
 =====================

 !MCSCF STATE  2.1 Energy             -77.717963683752
 Nuclear energy                        32.15954064
 Kinetic energy                        77.78419873
 One electron energy                 -167.18357515
 Two electron energy                   57.30607083
 Virial ratio                           1.99914848

 !MCSCF STATE  2.1 Dipole moment        0.03499875     0.10757201     0.12190298
 Dipole moment /Debye                   0.08895212     0.27340288     0.30982618

 Results for state 3.1
 =====================

 !MCSCF STATE  3.1 Energy             -77.537636160807
 Nuclear energy                        32.15954064
 Kinetic energy                        77.85676864
 One electron energy                 -166.96144016
 Two electron energy                   57.26426336
 Virial ratio                           1.99590103

 !MCSCF STATE  3.1 Dipole moment        0.11582057     0.10739118     0.11914447
 Dipole moment /Debye                   0.29436725     0.27294328     0.30281521

 State-averaged charge density matrix saved on record  2140.2 (density set 1)

 !MCSCF expec         <1.1|DMX|1.1>    -0.085238667903 au =    -0.216640893569 Debye
 !MCSCF trans         <2.1|DMX|1.1>    -0.076879361336 au =    -0.195395047185 Debye
 !MCSCF expec         <2.1|DMX|2.1>     0.034998746894 au =     0.088952115130 Debye
 !MCSCF trans         <3.1|DMX|1.1>    -0.016692384015 au =    -0.042425029365 Debye
 !MCSCF trans         <3.1|DMX|2.1>    -0.093208144213 au =    -0.236895955168 Debye
 !MCSCF expec         <3.1|DMX|3.1>     0.115820572076 au =     0.294367249577 Debye

 !MCSCF expec         <1.1|DMY|1.1>     0.099782215963 au =     0.253604484447 Debye
 !MCSCF trans         <2.1|DMY|1.1>    -0.016214910558 au =    -0.041211492375 Debye
 !MCSCF expec         <2.1|DMY|2.1>     0.107572013542 au =     0.273402878178 Debye
 !MCSCF trans         <3.1|DMY|1.1>    -0.001716967020 au =    -0.004363809040 Debye
 !MCSCF trans         <3.1|DMY|2.1>    -0.018243945362 au =    -0.046368446652 Debye
 !MCSCF expec         <3.1|DMY|3.1>     0.107391182093 au =     0.272943280584 Debye

 !MCSCF expec         <1.1|DMZ|1.1>     0.116603615833 au =     0.296357417929 Debye
 !MCSCF trans         <2.1|DMZ|1.1>    -0.016496565002 au =    -0.041927339678 Debye
 !MCSCF expec         <2.1|DMZ|2.1>     0.121902979969 au =     0.309826175830 Debye
 !MCSCF trans         <3.1|DMZ|1.1>    -0.001477238486 au =    -0.003754519791 Debye
 !MCSCF trans         <3.1|DMZ|2.1>    -0.018349389730 au =    -0.046636441949 Debye
 !MCSCF expec         <3.1|DMZ|3.1>     0.119144473306 au =     0.302815210466 Debye


 NATURAL ORBITALS (state averaged)
 =================================

  Orbital  Occupation    Energy     Coefficients
    1.1     2.00000   -11.26162     1 1s    0.99500
    2.1     2.00000   -11.25410     2 1s   -0.99504
    3.1     2.00000    -1.04982     1 1s    0.28060     2 1s    0.27456     2 1s    0.25140
    4.1     2.00000    -0.78065     1 1s   -0.31879     2 1s    0.32345
    5.1     2.00000    -0.63948     1 2py   0.37064
    6.1     2.00000    -0.52777     1 2px   0.25042     2 2py   0.33044
    7.1     2.00000    -0.41825     1 2pz   0.30490     1 2pz   0.25894     2 2pz   0.33379     2 2pz   0.29243
    8.1     1.00000    -0.08677     1 2pz   0.43274     1 2pz   0.45158     2 1s    0.34282     2 2pz  -0.36501     2 2pz  -0.38434
    9.1     1.00000    -0.22622     1 2px  -0.33366     2 2px   0.26259     4 1s    0.28833     5 1s    0.30932
   10.1    -0.00000     0.20731     1 1s   -1.18532     1 2px   0.44467     1 2py   0.25824     1 2pz   0.37772     2 1s   -0.76847
                                    2 2px  -0.36954     2 2py  -0.45491     3 1s    0.75093     4 1s    1.01228     5 1s    1.00996
   11.1    -0.00000     0.26869     1 1s    1.09694     1 2px   0.26344     2 1s   -2.03057     2 2px  -0.40107     2 2pz  -0.76958
                                    3 1s   -0.77650     5 1s    0.59901     6 1s    1.73519
   12.1    -0.00000     0.30921     1 2py  -0.32944     1 2py  -1.45556     2 1s   -0.63792     2 2px  -0.41980     2 2pz  -0.37305
                                    3 1s    1.63207     4 1s   -1.52482     5 1s    0.69068     6 1s    0.52649
   13.1    -0.00000     0.32130     1 1s    1.29925     1 2px  -0.30885     1 2pz  -0.45781     2 1s   -0.32970     2 2py  -0.31020
                                    2 2py  -1.17539     3 1s   -1.02622     4 1s   -1.00190     5 1s    1.49127     6 1s   -0.89096
   14.1    -0.00000     0.42680     1 1s    2.13439     1 2px   1.71056     1 2py  -0.55340     1 2pz  -0.82280     2 1s   -1.90209
                                    2 2px   0.26155     2 2px   1.82732     2 2py  -0.49708     2 2pz  -0.70473     3 1s    0.35870
                                    6 1s   -0.67012
   15.1    -0.00000     0.70010     1 2px  -0.60989     1 2px   0.75360     2 2px   0.43924     2 2pz  -0.31059     2 2px  -1.00329
                                    2 2pz   0.27754     4 1s    0.27708     4 1s   -0.58545     5 1s   -0.40979     6 1s    0.34260
   16.1    -0.00000     0.77144     1 1s   -0.30596     1 2pz   0.28311     1 2px  -0.33063     2 2px   0.30575     2 2py  -0.56337
                                    2 2px  -0.71080     2 2py   0.97999     3 1s   -0.32306     5 1s   -0.35920     6 1s    0.51331
   17.1    -0.00000     0.79514     1 1s   -0.42729     1 2py  -0.39342     1 2pz  -0.78279     1 2px  -0.38970     1 2py   1.05221
                                    1 2pz   0.98946     2 1s    0.57077     2 2pz  -0.29694     2 2pz   0.30465     4 1s    0.35982
   18.1    -0.00000     0.80799     1 2py  -0.57034     1 2pz   0.30300     1 2py   1.32349     2 2py   0.36511     2 2pz   0.57415
                                    2 2px  -0.29514     2 2py  -0.75479     2 2pz  -0.56923     3 1s   -0.29931     3 1s   -0.37487
   19.1    -0.00000     0.86656     1 1s   -0.29832     1 2px  -0.38238     1 2pz  -0.53321     1 2px   0.60831     1 2py  -0.72008
                                    1 2pz   0.81590     2 1s   -0.33889     2 2pz   0.74552     2 2px  -0.39490     2 2py   0.42063
                                    2 2pz  -1.08521     3 1s    0.30727     6 1s    0.28861
   20.1    -0.00000     0.97281     1 1s    0.44430     1 2px   0.56175     1 2py   0.29461     1 2px  -0.64619     1 2py  -0.68821
                                    2 1s   -0.39699     2 1s    0.25373     2 2px   0.76804     2 2py   0.38958     2 2px  -1.02080
                                    2 2py  -0.90947     3 1s   -0.25729     4 1s   -1.01304     5 1s    0.76342
   21.1    -0.00000     1.04719     1 1s   -0.36376     1 2px   0.53044     1 2py   0.26551     1 2px  -1.10022     1 2pz   0.33435
                                    2 1s   -0.43070     2 1s    1.43752     2 2py  -0.32187     2 2px  -0.80141     2 2py   0.64822
                                    3 1s    0.41619     3 1s   -0.52499     4 1s    0.83889     4 1s   -1.12214     5 1s    0.33377
                                    5 1s   -0.47973     6 1s    0.56282
   22.1    -0.00000     1.08330     1 1s    0.46388     1 1s   -1.10964     1 2py   0.36783     1 2py  -0.68476     1 2pz   0.29071
                                    2 1s    0.28385     2 2py   0.70052     2 2px  -0.52195     2 2py  -0.75666     3 1s    0.26314
                                    3 1s    0.39694     4 1s    0.42918     4 1s   -0.65382     5 1s   -0.66293     5 1s    1.51902
                                    6 1s    0.51971     6 1s   -0.62336
   23.1    -0.00000     1.14071     1 1s    0.45993     1 1s   -1.21557     1 2py  -0.49980     1 2px  -0.54640     1 2py   0.68863
                                    1 2pz   0.40671     2 1s    0.81939     2 1s   -1.04662     2 2px   0.58149     2 2px  -1.31152
                                    2 2py   0.40919     2 2pz  -0.34991     3 1s    0.63780     3 1s   -0.82884     4 1s    0.72549
                                    5 1s   -0.30702     5 1s    0.69589     6 1s   -0.38372     6 1s    1.30942
   24.1    -0.00000     1.17532     1 1s    0.43143     1 1s   -1.36010     1 2py  -0.43839     1 2px  -0.45224     1 2py   0.46305
                                    1 2pz   0.43699     2 1s   -0.97364     2 1s    2.06312     2 2pz   0.37539     3 1s    0.58444
                                    3 1s   -0.49202     4 1s   -0.43375     4 1s    0.74693     5 1s    0.32380     5 1s   -0.43157
                                    6 1s    0.68987     6 1s   -0.89417
   25.1    -0.00000     1.18796     1 1s   -1.91320     1 1s    4.07815     1 2py  -0.30664     1 2py   0.38551     1 2pz  -1.05583
                                    2 1s   -0.66561     2 2py   0.25757     2 2px   0.98275     2 2py  -0.69565     3 1s    0.32829
                                    3 1s   -1.48009     4 1s   -0.64619     5 1s   -0.34387     6 1s   -0.62589
   26.1    -0.00000     1.37477     1 1s    0.62137     1 1s   -2.93277     1 2px  -1.37796     1 2py   0.84193     1 2pz   0.38691
                                    2 1s   -1.70327     2 1s    5.00342     2 2px  -0.46989     2 2py   0.59783     2 2pz   1.60301
                                    4 1s    0.28407     5 1s   -0.68597     5 1s   -0.61465     6 1s   -0.51061     6 1s   -0.62787
   27.1    -0.00000     1.71902     1 1s    0.43339     1 3d0   0.38954     1 3d2- -0.40129     1 3d1-  0.28446     2 3d2-  0.36996
                                    2 3d2+  0.44271
   28.1    -0.00000     1.88494     1 2px   0.30731     1 2py  -0.26318     1 3d1+  0.43238     1 3d2+  0.32452     2 1s    0.44073
                                    2 1s   -1.17770     2 2pz  -0.50411     2 3d0   0.58151     2 3d1-  0.33991     3 1s    0.25992
                                    6 1s    0.37890
   29.1    -0.00000     1.99514     1 1s   -1.21915     1 2px  -0.46453     1 3d2-  0.27793     1 3d1+ -0.33656     2 1s   -0.54349
                                    2 1s    1.87970     2 2py   0.26552     2 2pz   0.63025     2 3d1+  0.45199     2 3d2+  0.40058
                                    2 3d1-  0.48422     5 1s   -0.31352     5 1s   -0.25626     6 1s   -0.44028
   30.1    -0.00000     2.21611     1 1s    0.39653     1 1s   -1.51554     1 2px  -0.37416     1 2pz   0.40768     1 3d0   0.72556
                                    1 3d2+  0.46208     2 1s    1.11641     2 2py   0.32712     2 2pz   0.29686     2 3d2- -0.38876
                                    3 1s    0.35974     4 1s    0.50533
   31.1    -0.00000     2.24572     1 1s    0.56522     1 1s   -0.73994     1 2px   0.26279     1 2px  -0.39569     1 3d2-  0.40378
                                    1 3d1+  0.37793     1 3d2+ -0.37113     2 1s    0.33713     2 2px  -0.26420     2 3d1+  0.42864
                                    2 3d2+ -0.34971
   32.1    -0.00000     2.33494     1 1s    0.63401     1 2py   0.43697     1 2pz  -0.25851     1 3d2- -0.28939     1 3d1- -0.42985
                                    2 1s    0.31766     2 1s   -0.77855     2 2px   0.38590     2 2py  -0.41037     2 3d0   0.66591
                                    2 3d2- -0.32427     2 3d1- -0.38733     3 1s   -0.43154     4 1s    0.26047     5 1s    0.47855
   33.1    -0.00000     2.48320     1 1s    0.27170     1 2py  -0.53861     1 3d2-  0.34814     1 3d1-  0.77302     2 3d2- -0.51919
                                    2 3d1- -0.39171     3 1s    0.49554     4 1s   -0.41331     5 1s    0.36202     6 1s   -0.30861
   34.1    -0.00000     2.62929     1 2py   0.30300     1 3d2-  0.55959     1 3d2+  0.57319     1 3d1- -0.40313     2 2py  -0.29636
                                    2 3d2-  0.31436     2 3d2+  0.47285     2 3d1- -0.55700     4 1s    0.33737     5 1s    0.31974
   35.1    -0.00000     2.69039     1 3d0  -0.50148     1 3d2- -0.38474     1 3d1+  0.42336     2 3d0  -0.38969     2 3d2- -0.48349
                                    2 3d1+  0.61617     3 1s   -0.32478     6 1s   -0.48925
   36.1    -0.00000     2.95704     1 1s   -1.77161     1 2px  -0.43340     1 2px  -0.86854     1 2py   0.25641     1 2pz   0.46275
                                    1 3d2-  0.31032     1 3d1+  0.70075     1 3d2+ -0.64620     2 1s    1.70319     2 2px  -0.42520
                                    2 2px  -0.90983     2 2pz   0.42571     2 3d2- -0.36775     2 3d1+ -0.69837     2 3d2+  0.63707


 Natural orbital dump (state averaged) at molpro section  2140.2    (Orbital set 2)



 **********************************************************************************************************************************
 DATASETS  * FILE   NREC   LENGTH (MB)   RECORD NAMES
              1      20       31.86       500      610      700      900      950      970     1000      129      960     1100   
                                          VAR    BASINP    GEOM    SYMINP    ZMAT    AOBASIS   BASIS     P2S    ABASIS      S 
                                         1400     1410     1200     1210     1080     1600     1650     1300     1700     1380   
                                           T        V       H0       H01     AOSYM     SMH    MOLCAS    ERIS     OPER     JKOP   

              2       5        5.42       700     1000      520     2100     2140   
                                         GEOM     BASIS   MCVARS     RHF     MCSCF   

 PROGRAMS   *        TOTAL     MULTI    HF-SCF       INT
 CPU TIMES  *         0.93      0.45      0.16      0.22
 REAL TIME  *         1.52 SEC
 DISK USED  *        39.04 MB
 **********************************************************************************************************************************
 Molecular orbitals read from record     2140.2  Type=MCSCF/NATURAL (state averaged)
 Occupation numbers read from record     2140.2  Type=MCSCF/NATURAL (state averaged)
 Orbital energies read from record       2140.2  Type=MCSCF/NATURAL (state averaged)
 Redundancy group numbers read from rec  2140.2  Type=MCSCF/NATURAL (state averaged)

 MULTI/6-31G* energy=    -77.537636160807

           MULTI          HF-SCF
    -77.53763616    -77.82466632
 **********************************************************************************************************************************
 Molpro calculation terminated
