
 Primary working directories    : /scratch.local/johan406.molpro_temp/molpro.kHCMkPvwb7
 Secondary working directories  : /scratch.local/johan406.molpro_temp/molpro.kHCMkPvwb7
 Wavefunction directory         : /home/goodpast/johan406/wfu/
 Main file repository           : /scratch.local/johan406.molpro_temp/molpro.kHCMkPvwb7/

 id        : roweumn

 Nodes     nprocs
 acn09        1

 Using customized tuning parameters: mindgm=1; mindgv=20; mindgc=4; mindgr=1; noblas=0; minvec=7
 default implementation of scratch files=df  


 Variables initialized (934), CPU time= 0.01 sec
                                                                                 !leave this line blank
 
 gprint, orbitals=30
 memory, 125., m
 symmetry, nosym
 nelect=16
 basis=6-31g*
 
 geometry={
 C -0.6536 0.1649 0.3219
 C 0.6625 -0.2147 -0.3823
 H -1.4534 0.7839 -0.1627
 H -1.0669 -0.7808 -0.2228
 H 1.0759 0.7309 0.1624
 H 1.4623 -0.8338 0.1023
 }
 
 hf
 {multi,
 closed 7
 occ 9
 wf,spin=0;STATE,3
 }
 
 Commands  initialized (763), CPU time= 0.01 sec, 617 directives.
 Default parameters read. Elapsed time= 0.08 sec

 Checking input...
 Passed
1


                                         ***  PROGRAM SYSTEM MOLPRO  ***
                                       Copyright, TTI GmbH Stuttgart, 2015
                                    Version 2019.2 linked Oct 25 2019 22:50:27


 **********************************************************************************************************************************
 LABEL *                                                                                 
  64 bit serial version                                                                  DATE: 07-Feb-23          TIME: 15:34:17  
 **********************************************************************************************************************************

 SHA1:             8dbd9ae1082e4ce945b0f27595c9eb2d4aa09004
 **********************************************************************************************************************************


 Variable memory set to  125000000 words,  buffer space 

 SETTING NELECT         =        16.00000000                                  
 SETTING BASIS          =    6-31G*
 ZSYMEL=NOSYM


Geometry recognized as XYZ



 Recomputing integrals since basis changed


 Using spherical harmonics

 Library entry C      S 6-31G                selected for orbital group  1
 Library entry C      P 6-31G                selected for orbital group  1
 Library entry C      D 6-31G*               selected for orbital group  1
 Library entry H      S 6-31G                selected for orbital group  2


 PROGRAM * SEWARD (Integral evaluation for generally contracted gaussian basis sets)     Author: Roland Lindh, 1990

 Geometry written to block  1 of record 700


 Point group  C1  



 ATOMIC COORDINATES

 NR  ATOM    CHARGE       X              Y              Z

   1  C       6.00   -1.235124995    0.311615838    0.608302839
   2  C       6.00    1.251943558   -0.405724199   -0.722442297
   3  H       1.00   -2.746527949    1.481356309   -0.307458440
   4  H       1.00   -2.016148802   -1.475498158   -0.421030981
   5  H       1.00    2.033156337    1.381200824    0.306891523
   6  H       1.00    2.763346512   -1.575653643    0.193318983

 Bond lengths in Bohr (Angstrom)

 1-2  2.910492971  1-3  2.119257035  1-4  2.205289717  2-5  2.205203519  2-6  2.119361346
     ( 1.540166553)     ( 1.121462527)     ( 1.166989062)     ( 1.166943448)     ( 1.121517726)

 Bond angles

  1-2-5   83.66062347   1-2-6  123.22191132   2-1-3  123.22225307   2-1-4   83.65543347

  3-1-4   89.60026077   5-2-6   89.59819314

 NUCLEAR CHARGE:                   16
 NUMBER OF PRIMITIVE AOS:          72
 NUMBER OF SYMMETRY AOS:           70
 NUMBER OF CONTRACTIONS:           36   (   36A   )
 NUMBER OF CORE ORBITALS:           2   (    2A   )
 NUMBER OF VALENCE ORBITALS:       12   (   12A   )


 NUCLEAR REPULSION ENERGY   31.08027373

 Eigenvalues of metric

         1 0.113E-01 0.263E-01 0.585E-01 0.768E-01 0.899E-01 0.235E+00 0.243E+00 0.294E+00


 Contracted 2-electron integrals neglected if value below      1.0D-11
 AO integral compression algorithm  1   Integral accuracy      1.0D-11

     1.573 MB (compressed) written to integral file ( 58.1%)


 NUMBER OF SORTED TWO-ELECTRON INTEGRALS:     222111.     BUFFER LENGTH:  32768
 NUMBER OF SEGMENTS:   1  SEGMENT LENGTH:     222111      RECORD LENGTH: 524288

 Memory used in sort:       0.78 MW

 SORT1 READ      284735. AND WROTE      212528. INTEGRALS IN      1 RECORDS. CPU TIME:     0.00 SEC, REAL TIME:     0.01 SEC
 SORT2 READ      212528. AND WROTE      222111. INTEGRALS IN      6 RECORDS. CPU TIME:     0.03 SEC, REAL TIME:     0.02 SEC

 FILE SIZES:   FILE 1:    31.7 MBYTE,  FILE 4:     4.2 MBYTE,   TOTAL:     35.9 MBYTE

 OPERATOR DM      FOR CENTER  0  COORDINATES:    0.000000    0.000000    0.000000


 **********************************************************************************************************************************
 DATASETS  * FILE   NREC   LENGTH (MB)   RECORD NAMES
              1      19       31.12       500      610      700      900      950      970     1000      129      960     1100   
                                          VAR    BASINP    GEOM    SYMINP    ZMAT    AOBASIS   BASIS     P2S    ABASIS      S 
                                         1400     1410     1200     1210     1080     1600     1650     1300     1700   
                                           T        V       H0       H01     AOSYM     SMH    MOLCAS    ERIS     OPER   

 PROGRAMS   *        TOTAL       INT
 CPU TIMES  *         0.34      0.23
 REAL TIME  *         1.30 SEC
 DISK USED  *        36.24 MB
 **********************************************************************************************************************************


 PROGRAM * RHF-SCF (CLOSED SHELL)       Authors: W. Meyer, H.-J. Werner


 NUMBER OF ELECTRONS:       8+    8-    SPACE SYMMETRY=1    SPIN SYMMETRY: Singlet 
 CONVERGENCE THRESHOLDS:    1.00E-05 (Density)    1.00E-07 (Energy)
 MAX. NUMBER OF ITERATIONS:       60
 INTERPOLATION TYPE:            DIIS
 INTERPOLATION STEPS:              2 (START)      1 (STEP)
 LEVEL SHIFTS:                  0.00 (CLOSED)  0.00 (OPEN) 



 Orbital guess generated from atomic densities. Full valence occupancy:    8

 Molecular orbital dump at record        2100.2

 Initial occupancy:   8

 ITERATION    DDIFF          GRAD             ENERGY        2-EL.EN.            DIPOLE MOMENTS         DIIS   ORB.
    1      0.000D+00      0.000D+00       -77.76740064    113.174132    0.00002   -0.00008   -0.00002    0    start
    2      0.000D+00      0.673D-02       -77.78764052    112.466998   -0.00000    0.00000    0.00002    1    diag
    3      0.743D-02      0.243D-02       -77.79138248    112.814333    0.00002   -0.00002   -0.00002    2    diag
    4      0.386D-02      0.106D-02       -77.79254647    112.671859   -0.00000    0.00001    0.00002    3    diag
    5      0.227D-02      0.566D-03       -77.79324752    112.691572    0.00003   -0.00002   -0.00004    4    diag
    6      0.220D-02      0.254D-03       -77.79346499    112.690826   -0.00006    0.00004    0.00011    5    diag
    7      0.136D-02      0.103D-03       -77.79350248    112.693035    0.00015   -0.00011   -0.00025    6    diag
    8      0.649D-03      0.362D-04       -77.79350587    112.692748   -0.00027    0.00021    0.00049    7    diag
    9      0.206D-03      0.116D-04       -77.79350598    112.692704    0.00017   -0.00013   -0.00028    8    diag
   10      0.288D-04      0.571D-05       -77.79350600    112.692677    0.00000   -0.00000    0.00001    9    orth
   11      0.130D-04      0.630D-06       -77.79350600    112.692645    0.00001   -0.00001   -0.00000    9    diag
   12      0.182D-05      0.954D-07       -77.79350600    112.692651    0.00001   -0.00001   -0.00000    0    orth

 Final occupancy:   8

 !RHF STATE  1.1 Energy               -77.793506004281
 Nuclear energy                        31.08027373
 One-electron energy                 -165.22010545
 Two-electron energy                   56.34632571
 Virial quotient                       -1.00277565
 !RHF STATE  1.1 Dipole moment          0.00000766    -0.00000645    -0.00000196
 Dipole moment /Debye                   0.00001947    -0.00001640    -0.00000497

 ELECTRON ORBITALS
 =================

  Orbital  Occupation    Energy     Coefficients
    1.1     2.00000   -11.27851     1 1s    0.70229     2 1s    0.70676
    2.1     2.00000   -11.27799     1 1s   -0.70681     2 1s    0.70234
    3.1     2.00000    -1.00965     1 1s    0.28255     1 1s    0.26233     2 1s    0.28254     2 1s    0.26232
    4.1     2.00000    -0.80535     1 1s   -0.29072     2 1s    0.29072
    5.1     2.00000    -0.56980     1 2py   0.31006     2 2py   0.30987
    6.1     2.00000    -0.55998     1 2px   0.32163     2 2px  -0.32158
    7.1     2.00000    -0.38953     1 1s    0.25338     1 2pz   0.29287     1 2pz   0.27371     2 1s   -0.25340     2 2pz   0.29288
                                    2 2pz   0.27372
    8.1     2.00000    -0.37291     1 2py   0.26305     2 2py  -0.26304     4 1s   -0.29786     5 1s   -0.29784
    9.1     0.00000     0.04214     1 1s    0.35127     1 2pz   0.33686     1 2pz   0.43954     2 1s    0.35128     2 2pz  -0.33686
                                    2 2pz  -0.43954
   10.1     0.00000     0.23292     1 1s   -1.01522     1 2px   0.48603     1 2py   0.43048     1 2pz   0.42027     2 1s   -1.01603
                                    2 2px  -0.48596     2 2py  -0.43019     2 2pz  -0.42053     3 1s    0.49181     4 1s    1.09609
                                    5 1s    1.09593     6 1s    0.49250
   11.1     0.00000     0.24696     1 1s   -1.39850     1 2py  -0.25535     1 2pz   0.46882     2 1s    1.39791     2 2py  -0.25582
                                    2 2pz   0.46861     3 1s    1.22619     6 1s   -1.22606
   12.1     0.00000     0.30301     1 1s   -0.80559     1 2px   0.49099     1 2py  -0.77710     1 2pz   0.48512     2 1s   -0.80528
                                    2 2px  -0.49107     2 2py   0.77698     2 2pz  -0.48501     3 1s    1.51600     4 1s   -0.28002
                                    5 1s   -0.27978     6 1s    1.51569
   13.1     0.00000     0.31971     1 1s    0.94570     1 2px  -0.46104     1 2py  -0.61082     1 2pz  -0.33235     2 1s   -0.94579
                                    2 2px  -0.46113     2 2py  -0.61106     2 2pz  -0.33240     4 1s   -1.55178     5 1s    1.55211
   14.1     0.00000     0.41343     1 1s    1.56381     1 2px   1.57623     1 2py  -0.68324     1 2pz  -0.72029     2 1s   -1.56392
                                    2 2px   1.57615     2 2py  -0.68323     2 2pz  -0.72035     3 1s    0.81163     4 1s   -0.39573
                                    5 1s    0.39574     6 1s   -0.81150
   15.1     0.00000     0.71958     1 1s   -0.49671     1 2py  -0.42120     1 2px  -0.76840     1 2py   0.66481     2 1s    0.49694
                                    2 2py  -0.42122     2 2px  -0.76806     2 2py   0.66477     3 1s   -0.44254     4 1s    0.25427
                                    5 1s   -0.25430     6 1s    0.44252
   16.1     0.00000     0.73900     1 2px  -0.55610     1 2py  -0.25022     1 2px   0.91674     2 2px   0.55615     2 2py   0.25010
                                    2 2px  -0.91689     3 1s    0.34122     4 1s   -0.38690     5 1s   -0.38677     6 1s    0.34119
   17.1     0.00000     0.80046     1 1s    0.33770     1 2py  -0.48027     1 2pz  -0.49545     1 2py   0.90712     1 2pz   0.52092
                                    2 1s    0.33760     2 2py   0.48023     2 2pz   0.49586     2 2py  -0.90712     2 2pz  -0.52133
   18.1     0.00000     0.80719     1 2pz   0.75087     1 2pz  -0.68596     2 2pz   0.75059     2 2pz  -0.68565
   19.1     0.00000     0.87231     1 1s    0.42572     1 2px   0.30538     1 2py  -0.34753     1 2pz   0.53988     1 2px  -0.57737
                                    1 2py   0.80754     1 2pz  -0.77750     2 1s    0.42569     2 2px  -0.30536     2 2py   0.34761
                                    2 2pz  -0.53989     2 2px   0.57732     2 2py  -0.80766     2 2pz   0.77748     3 1s   -0.35289
                                    6 1s   -0.35290
   20.1     0.00000     0.95458     1 1s   -0.35354     1 1s    0.64294     1 2px  -0.69189     1 2py  -0.32991     1 2px   1.41573
                                    1 2py   0.52428     2 1s    0.35357     2 1s   -0.64296     2 2px  -0.69191     2 2py  -0.32981
                                    2 2px   1.41583     2 2py   0.52420     4 1s    0.89314     5 1s   -0.89306
   21.1     0.00000     1.07636     1 1s   -0.28637     1 1s    0.63572     1 2py   0.44851     1 2py  -0.45874     2 1s   -0.28608
                                    2 1s    0.63509     2 2py  -0.44850     2 2py   0.45871     3 1s   -0.46807     3 1s    0.46128
                                    4 1s    0.58726     4 1s   -1.05956     5 1s    0.58707     5 1s   -1.05935     6 1s   -0.46823
                                    6 1s    0.46158
   22.1     0.00000     1.11361     1 1s    0.42260     1 2px  -0.33434     1 2py   0.59089     1 2px   0.61609     1 2py  -0.93356
                                    2 1s   -0.42127     2 2px  -0.33458     2 2py   0.59099     2 2px   0.61641     2 2py  -0.93370
                                    3 1s   -0.46638     3 1s    1.08355     4 1s    0.42533     4 1s   -0.92531     5 1s   -0.42509
                                    5 1s    0.92481     6 1s    0.46690     6 1s   -1.08445
   23.1     0.00000     1.16147     1 1s   -1.00377     1 1s    1.67186     1 2px   0.34544     1 2px  -0.52929     1 2pz  -0.40462
                                    2 1s   -1.00738     2 1s    1.67910     2 2px  -0.34645     2 2px   0.53056     2 2pz   0.40662
                                    3 1s    0.55961     3 1s   -1.09891     4 1s   -0.58671     5 1s    0.25075     5 1s   -0.59154
                                    6 1s    0.56097     6 1s   -1.10146
   24.1     0.00000     1.16404     1 1s    0.79990     1 1s   -1.51297     1 2px  -0.30537     1 2pz  -0.28308     1 2px   0.44976
                                    1 2pz   0.41219     2 1s   -0.79571     2 1s    1.50601     2 2px  -0.30393     2 2pz  -0.28213
                                    2 2px   0.44756     2 2pz   0.41051     3 1s   -0.42649     3 1s    0.82844     4 1s   -0.54720
                                    4 1s    0.92765     5 1s    0.54632     5 1s   -0.92550     6 1s    0.42394     6 1s   -0.82354
   25.1     0.00000     1.31749     1 1s   -1.36490     1 1s    4.21495     1 2px   0.96186     1 2py  -0.75681     1 2pz  -1.11151
                                    2 1s    1.36422     2 1s   -4.21368     2 2px   0.96229     2 2py  -0.75712     2 2pz  -1.11087
                                    3 1s   -0.27871     4 1s   -0.48157     4 1s   -0.45142     5 1s    0.48132     5 1s    0.45131
                                    6 1s    0.27805
   26.1     0.00000     1.36192     1 1s   -1.06405     1 1s    2.05651     1 2px  -0.81860     1 2py   0.41212     1 2pz  -1.15993
                                    2 1s   -1.06482     2 1s    2.05880     2 2px   0.81799     2 2py  -0.41182     2 2pz   1.16052
                                    3 1s   -0.56383     3 1s   -0.87631     4 1s   -0.52001     4 1s   -0.29284     5 1s   -0.52029
                                    5 1s   -0.29305     6 1s   -0.56396     6 1s   -0.87637
   27.1     0.00000     1.68684     1 1s   -0.40217     1 3d0  -0.26471     1 3d2-  0.37497     1 3d2+  0.37627     2 1s    0.40209
                                    2 3d0   0.26467     2 3d2- -0.37493     2 3d2+ -0.37630
   28.1     0.00000     1.87117     1 3d0   0.39111     1 3d1+  0.30881     1 3d2+  0.39695     1 3d1-  0.27881     2 3d0   0.39116
                                    2 3d1+  0.30881     2 3d2+  0.39696     2 3d1-  0.27875
   29.1     0.00000     2.03031     1 1s   -0.88891     1 2pz   0.26841     1 3d0   0.56983     1 3d2+  0.32138     2 1s    0.88902
                                    2 2pz   0.26846     2 3d0  -0.56988     2 3d2+ -0.32134
   30.1     0.00000     2.09834     1 1s   -0.49116     1 1s    1.84277     1 2py  -0.31642     1 2pz  -0.55160     1 3d2- -0.26238
                                    1 3d1+  0.43053     1 3d1-  0.33643     2 1s    0.49136     2 1s   -1.84286     2 2py  -0.31650
                                    2 2pz  -0.55163     2 3d2-  0.26263     2 3d1+ -0.43032     2 3d1- -0.33643     3 1s   -0.47169
                                    4 1s   -0.35221     4 1s   -0.27237     5 1s    0.35207     5 1s    0.27251     6 1s    0.47167
   31.1     0.00000     2.13226     1 1s    0.44791     1 1s   -0.25199     1 2px   0.27118     1 2px  -0.31726     1 3d1+  0.38493
                                    1 3d2+ -0.35460     2 1s    0.44759     2 1s   -0.25078     2 2px  -0.27119     2 2px   0.31711
                                    2 3d1+  0.38514     2 3d2+ -0.35453
   32.1     0.00000     2.26316     1 3d0   0.45900     1 3d2- -0.45193     1 3d1- -0.28512     2 3d0   0.45899     2 3d2- -0.45184
                                    2 3d1- -0.28512     4 1s    0.36115     5 1s    0.36122
   33.1     0.00000     2.48478     1 1s    0.59234     1 2px   0.30917     1 3d2-  0.43206     1 3d1-  0.58024     2 1s   -0.59238
                                    2 2px   0.30910     2 3d2- -0.43225     2 3d1- -0.58029     3 1s    0.40218     4 1s   -0.42141
                                    5 1s    0.42153     6 1s   -0.40219
   34.1     0.00000     2.57114     1 1s    0.31026     1 2py  -0.27855     1 3d2- -0.42672     1 3d2+ -0.44379     1 3d1-  0.51118
                                    2 1s    0.31050     2 2py   0.27860     2 3d2- -0.42666     2 3d2+ -0.44375     2 3d1-  0.51125
                                    4 1s   -0.36109     5 1s   -0.36114
   35.1     0.00000     2.68994     1 3d0  -0.38827     1 3d2- -0.42841     1 3d1+  0.46646     1 3d1- -0.30580     2 3d0  -0.38828
                                    2 3d2- -0.42833     2 3d1+  0.46636     2 3d1- -0.30575     3 1s   -0.47358     6 1s   -0.47341
   36.1     0.00000     2.89997     1 1s   -1.63327     1 2px  -0.30023     1 2px  -0.86776     1 2py   0.28131     1 2pz   0.44723
                                    1 3d2-  0.38351     1 3d1+  0.66238     1 3d2+ -0.58583     2 1s    1.63326     2 2px  -0.30023
                                    2 2px  -0.86778     2 2py   0.28131     2 2pz   0.44722     2 3d2- -0.38353     2 3d1+ -0.66239
                                    2 3d2+  0.58584


 HOMO      8.1    -0.372910 =     -10.1474eV
 LUMO      9.1     0.042141 =       1.1467eV
 LUMO-HOMO         0.415051 =      11.2941eV


 **********************************************************************************************************************************
 DATASETS  * FILE   NREC   LENGTH (MB)   RECORD NAMES
              1      19       31.12       500      610      700      900      950      970     1000      129      960     1100   
                                          VAR    BASINP    GEOM    SYMINP    ZMAT    AOBASIS   BASIS     P2S    ABASIS      S 
                                         1400     1410     1200     1210     1080     1600     1650     1300     1700   
                                           T        V       H0       H01     AOSYM     SMH    MOLCAS    ERIS     OPER   

              2       4        2.86       700     1000      520     2100   
                                         GEOM     BASIS   MCVARS     RHF  

 PROGRAMS   *        TOTAL    HF-SCF       INT
 CPU TIMES  *         0.47      0.13      0.23
 REAL TIME  *         1.55 SEC
 DISK USED  *        36.24 MB
 **********************************************************************************************************************************


 PROGRAM * MULTI (Direct Multiconfiguration SCF)       Authors: P.J. Knowles, H.-J. Werner (1984)


 Number of closed-shell orbitals:   7 (   7 )
 Number of active  orbitals:        2 (   2 )
 Number of external orbitals:      27 (  27 )

 State symmetry 1

 Number of electrons:     2    Spin symmetry=Singlet   Space symmetry=1
 Number of states:        3
 Number of CSFs:          3   (4 determinants, 4 intermediate states)

 Molecular orbitals read from record     2100.2  Type=RHF/CANONICAL (state 1.1)

 Wavefunction dump at record             2140.2

 Convergence thresholds  0.10E-01 (gradient)  0.10E-05 (energy)  0.10E-02 (step length)

 Weight factors for state symmetry  1:    0.33333   0.33333   0.33333

 Number of orbital rotations:      257   (    14 Core/Active    189 Core/Virtual   0 Active/Active     54 Active/Virtual)
 Total number of variables:        269

 Micro-Iterations solved by the two-step solver

 ITER. MIC  NCI  NEG     ENERGY(VAR)     ENERGY(PROJ)   ENERGY CHANGE     GRAD(0)  GRAD(ORB)   GRAD(CI)     STEP       TIME

   1    6    5    0     -77.66806563     -77.68460739   -0.01654175    0.15387793 0.00051083 0.00000000  0.12D+00      0.13
   2    6    5    0     -77.68450672     -77.68451677   -0.00001005    0.00510477 0.00000166 0.00000000  0.23D-02      0.24
   3    3    4    0     -77.68451678     -77.68451678   -0.00000000    0.00000544 0.00000000 0.00000000  0.43D-05      0.31

 ** WVFN ****  CONVERGENCE REACHED, FINAL GRADIENT:  0.18D-10



 Results for state 1.1
 =====================

 !MCSCF STATE  1.1 Energy             -77.786807227901
 Nuclear energy                        31.08027373
 Kinetic energy                        77.52611242
 One electron energy                 -165.12565414
 Two electron energy                   56.25857318
 Virial ratio                           2.00336267

 !MCSCF STATE  1.1 Dipole moment        0.00001702     0.00001972    -0.00000649
 Dipole moment /Debye                   0.00004325     0.00005012    -0.00001650

 Results for state 2.1
 =====================

 !MCSCF STATE  2.1 Energy             -77.711901780338
 Nuclear energy                        31.08027373
 Kinetic energy                        77.58714170
 One electron energy                 -165.07815532
 Two electron energy                   56.28597980
 Virial ratio                           2.00160800

 !MCSCF STATE  2.1 Dipole moment       -0.00001478    -0.00002401     0.00001124
 Dipole moment /Debye                  -0.00003755    -0.00006101     0.00002857

 Results for state 3.1
 =====================

 !MCSCF STATE  3.1 Energy             -77.554841318876
 Nuclear energy                        31.08027373
 Kinetic energy                        77.66381607
 One electron energy                 -165.00119684
 Two electron energy                   56.36608179
 Virial ratio                           1.99859684

 !MCSCF STATE  3.1 Dipole moment       -0.00004374    -0.00007902     0.00002743
 Dipole moment /Debye                  -0.00011116    -0.00020084     0.00006971

 State-averaged charge density matrix saved on record  2140.2 (density set 1)

 !MCSCF expec         <1.1|DMX|1.1>     0.000017015402 au =     0.000043246005 Debye
 !MCSCF trans         <2.1|DMX|1.1>     0.000008734740 au =     0.000022200041 Debye
 !MCSCF expec         <2.1|DMX|2.1>    -0.000014775615 au =    -0.000037553407 Debye
 !MCSCF trans         <3.1|DMX|1.1>     0.000004003052 au =     0.000010174076 Debye
 !MCSCF trans         <3.1|DMX|2.1>     0.000011329012 au =     0.000028793589 Debye
 !MCSCF expec         <3.1|DMX|3.1>    -0.000043736468 au =    -0.000111159731 Debye

 !MCSCF expec         <1.1|DMY|1.1>     0.000019718857 au =     0.000050117053 Debye
 !MCSCF trans         <2.1|DMY|1.1>    -0.000039078800 au =    -0.000099321897 Debye
 !MCSCF expec         <2.1|DMY|2.1>    -0.000024006094 au =    -0.000061013409 Debye
 !MCSCF trans         <3.1|DMY|1.1>     0.000003840014 au =     0.000009759703 Debye
 !MCSCF trans         <3.1|DMY|2.1>    -0.000041423738 au =    -0.000105281744 Debye
 !MCSCF expec         <3.1|DMY|3.1>    -0.000079021267 au =    -0.000200838872 Debye

 !MCSCF expec         <1.1|DMZ|1.1>    -0.000006490521 au =    -0.000016496179 Debye
 !MCSCF trans         <2.1|DMZ|1.1>    -0.000004762699 au =    -0.000012104780 Debye
 !MCSCF expec         <2.1|DMZ|2.1>     0.000011242551 au =     0.000028573842 Debye
 !MCSCF trans         <3.1|DMZ|1.1>    -0.000002229336 au =    -0.000005666036 Debye
 !MCSCF trans         <3.1|DMZ|2.1>    -0.000006197108 au =    -0.000015750446 Debye
 !MCSCF expec         <3.1|DMZ|3.1>     0.000027429508 au =     0.000069714290 Debye


 NATURAL ORBITALS (state averaged)
 =================================

  Orbital  Occupation    Energy     Coefficients
    1.1     2.00000   -11.26918     1 1s    0.70507     2 1s    0.70392
    2.1     2.00000   -11.26864     1 1s   -0.70395     2 1s    0.70510
    3.1     2.00000    -1.02273     1 1s    0.27373     1 1s    0.25819     2 1s    0.27373     2 1s    0.25818
    4.1     2.00000    -0.80725     1 1s   -0.30856     2 1s    0.30857
    5.1     2.00000    -0.56582     1 2py   0.29620     2 2py   0.29588
    6.1     2.00000    -0.55747     1 2px   0.29327     2 2px  -0.29323
    7.1     2.00000    -0.41312     1 2pz   0.30966     1 2pz   0.27505     2 2pz   0.30965     2 2pz   0.27505
    8.1     1.00000    -0.10903     1 1s    0.25644     1 2pz   0.40308     1 2pz   0.40112     2 1s    0.25645     2 2pz  -0.40307
                                    2 2pz  -0.40112
    9.1     1.00000    -0.22413     1 2px   0.25260     2 2px  -0.25260     4 1s   -0.30992     5 1s   -0.30990
   10.1    -0.00000     0.21714     1 1s   -0.99304     1 2px   0.47854     1 2py   0.46480     1 2pz   0.37758     2 1s   -0.99335
                                    2 2px  -0.47851     2 2py  -0.46459     2 2pz  -0.37766     3 1s    0.43512     4 1s    1.09997
                                    5 1s    1.09983     6 1s    0.43540
   11.1    -0.00000     0.24459     1 1s   -1.47834     1 2pz   0.48196     2 1s    1.47814     2 2pz   0.48190     3 1s    1.23017
                                    6 1s   -1.23021
   12.1    -0.00000     0.30533     1 1s   -0.87104     1 2px   0.50323     1 2py  -0.76382     1 2pz   0.46325     2 1s   -0.87103
                                    2 2px  -0.50338     2 2py   0.76349     2 2pz  -0.46327     3 1s    1.53724     6 1s    1.53694
   13.1    -0.00000     0.30720     1 1s    0.94307     1 2px  -0.34144     1 2py  -0.70132     1 2pz  -0.35246     2 1s   -0.94291
                                    2 2px  -0.34140     2 2py  -0.70180     2 2pz  -0.35238     4 1s   -1.59174     5 1s    1.59215
   14.1    -0.00000     0.41864     1 1s    1.43991     1 2px   0.26307     1 2px   1.59530     1 2py  -0.59838     1 2pz  -0.64623
                                    2 1s   -1.44000     2 2px   0.26306     2 2px   1.59525     2 2py  -0.59837     2 2pz  -0.64627
                                    3 1s    0.84014     6 1s   -0.84002
   15.1    -0.00000     0.71770     1 1s   -0.57795     1 2py  -0.40830     1 2px  -0.80611     1 2py   0.67792     1 2pz   0.25128
                                    2 1s    0.57817     2 2py  -0.40830     2 2px  -0.80581     2 2py   0.67786     2 2pz   0.25139
                                    3 1s   -0.44283     4 1s    0.27290     5 1s   -0.27291     6 1s    0.44282
   16.1    -0.00000     0.73399     1 2px  -0.53329     1 2px   0.89014     2 2px   0.53332     2 2px  -0.89026     3 1s    0.34709
                                    4 1s    0.27969     4 1s   -0.45823     5 1s    0.27964     5 1s   -0.45810     6 1s    0.34706
   17.1    -0.00000     0.80365     1 1s    0.27334     1 2py  -0.47899     1 2pz  -0.46481     1 2py   0.90822     1 2pz   0.56320
                                    2 1s    0.27256     2 2py   0.47880     2 2pz   0.46670     2 2py  -0.90817     2 2pz  -0.56515
   18.1    -0.00000     0.80445     1 1s    0.27919     1 2pz   0.74952     1 2pz  -0.75630     2 1s   -0.27988     2 2pz   0.74832
                                    2 2pz  -0.75482
   19.1    -0.00000     0.87520     1 1s    0.40572     1 2px   0.32896     1 2py  -0.32060     1 2pz   0.52753     1 2px  -0.60933
                                    1 2py   0.77970     1 2pz  -0.81550     2 1s    0.40569     2 2px  -0.32892     2 2py   0.32069
                                    2 2pz  -0.52757     2 2px   0.60926     2 2py  -0.77982     2 2pz   0.81550     3 1s   -0.37798
                                    6 1s   -0.37799
   20.1    -0.00000     0.96014     1 1s   -0.37111     1 1s    0.64646     1 2px  -0.68478     1 2py  -0.32472     1 2px   1.37585
                                    1 2py   0.51222     2 1s    0.37117     2 1s   -0.64650     2 2px  -0.68479     2 2py  -0.32460
                                    2 2px   1.37596     2 2py   0.51211     4 1s    0.84163     5 1s   -0.84152
   21.1    -0.00000     1.05345     1 1s   -0.37544     1 1s    0.76343     1 2py   0.46807     1 2px  -0.28082     1 2py  -0.49082
                                    2 1s   -0.37509     2 1s    0.76267     2 2py  -0.46784     2 2px   0.28106     2 2py   0.49049
                                    3 1s   -0.36921     3 1s    0.35258     4 1s    0.62014     4 1s   -1.09484     5 1s    0.61974
                                    5 1s   -1.09427     6 1s   -0.36929     6 1s    0.35259
   22.1    -0.00000     1.09515     1 1s   -0.33307     1 1s    0.81149     1 2py   0.59236     1 2px   0.32288     1 2py  -0.89188
                                    1 2pz  -0.27240     2 1s    0.33282     2 1s   -0.81122     2 2py   0.59267     2 2px   0.32286
                                    2 2py  -0.89223     2 2pz  -0.27244     3 1s    0.65398     4 1s    0.63137     4 1s   -1.21216
                                    5 1s   -0.63156     5 1s    1.21249     6 1s   -0.65466
   23.1    -0.00000     1.15016     1 1s    0.63592     1 1s   -1.02182     1 2px  -0.44082     1 2px   0.74208     1 2py  -0.26778
                                    2 1s   -0.63858     2 1s    1.02615     2 2px  -0.44174     2 2px   0.74340     2 2py  -0.26814
                                    3 1s   -0.58636     3 1s    1.18902     4 1s   -0.33517     4 1s    0.46923     5 1s    0.33580
                                    5 1s   -0.47072     6 1s    0.58794     6 1s   -1.19191
   24.1    -0.00000     1.16068     1 1s   -0.95948     1 1s    1.56492     1 2px   0.33531     1 2px  -0.49135     1 2pz  -0.33779
                                    2 1s   -0.95808     2 1s    1.56303     2 2px  -0.33402     2 2px   0.48906     2 2pz   0.33735
                                    3 1s    0.62194     3 1s   -1.13534     4 1s   -0.44546     5 1s   -0.44487     6 1s    0.62020
                                    6 1s   -1.13179
   25.1    -0.00000     1.30919     1 1s   -1.41437     1 1s    4.31021     1 2px   0.96986     1 2py  -0.77785     1 2pz  -1.12654
                                    2 1s    1.41356     2 1s   -4.30869     2 2px   0.97040     2 2py  -0.77821     2 2pz  -1.12577
                                    3 1s   -0.29002     4 1s   -0.44510     4 1s   -0.50676     5 1s    0.44480     5 1s    0.50658
                                    6 1s    0.28924
   26.1    -0.00000     1.34960     1 1s   -1.08977     1 1s    2.11237     1 2px  -0.84157     1 2py   0.41800     1 2pz  -1.17368
                                    2 1s   -1.09072     2 1s    2.11517     2 2px   0.84087     2 2py  -0.41761     2 2pz   1.17440
                                    3 1s   -0.57283     3 1s   -0.88508     4 1s   -0.49240     4 1s   -0.34112     5 1s   -0.49271
                                    5 1s   -0.34141     6 1s   -0.57298     6 1s   -0.88518
   27.1    -0.00000     1.68161     1 1s   -0.41031     1 3d0  -0.25655     1 3d2-  0.37709     1 3d2+  0.37933     2 1s    0.41023
                                    2 3d0   0.25651     2 3d2- -0.37705     2 3d2+ -0.37937
   28.1    -0.00000     1.86781     1 3d0   0.38634     1 3d1+  0.30788     1 3d2+  0.40067     1 3d1-  0.28090     2 3d0   0.38637
                                    2 3d1+  0.30788     2 3d2+  0.40068     2 3d1-  0.28083
   29.1    -0.00000     2.03120     1 1s   -0.81271     1 3d0   0.56584     1 3d2+  0.32765     2 1s    0.81282     2 3d0  -0.56590
                                    2 3d2+ -0.32762
   30.1    -0.00000     2.09761     1 1s   -0.49442     1 1s    1.84580     1 2py  -0.32170     1 2pz  -0.55096     1 3d2- -0.25827
                                    1 3d1+  0.42822     1 3d1-  0.33539     2 1s    0.49462     2 1s   -1.84589     2 2py  -0.32176
                                    2 2pz  -0.55100     2 3d2-  0.25854     2 3d1+ -0.42799     2 3d1- -0.33538     3 1s   -0.47480
                                    4 1s   -0.34826     4 1s   -0.28199     5 1s    0.34811     5 1s    0.28214     6 1s    0.47480
   31.1    -0.00000     2.13471     1 1s    0.43754     1 2px   0.27844     1 2px  -0.31618     1 3d1+  0.39486     1 3d2+ -0.35356
                                    2 1s    0.43721     2 2px  -0.27846     2 2px   0.31603     2 3d1+  0.39507     2 3d2+ -0.35348
   32.1    -0.00000     2.25509     1 3d0   0.46307     1 3d2- -0.44989     1 3d1- -0.30152     2 3d0   0.46307     2 3d2- -0.44981
                                    2 3d1- -0.30154     4 1s    0.35146     5 1s    0.35153
   33.1    -0.00000     2.47790     1 1s    0.54825     1 2px   0.29294     1 3d2-  0.44184     1 3d1-  0.57641     2 1s   -0.54829
                                    2 2px   0.29287     2 3d2- -0.44203     2 3d1- -0.57646     3 1s    0.40974     4 1s   -0.40844
                                    5 1s    0.40856     6 1s   -0.40975
   34.1    -0.00000     2.56503     1 1s    0.30715     1 2py  -0.28806     1 3d2- -0.41294     1 3d2+ -0.45022     1 3d1-  0.52459
                                    2 1s    0.30740     2 2py   0.28811     2 3d2- -0.41288     2 3d2+ -0.45018     2 3d1-  0.52466
                                    4 1s   -0.35822     5 1s   -0.35827
   35.1    -0.00000     2.69670     1 3d0  -0.39743     1 3d2- -0.43430     1 3d1+  0.47695     1 3d1- -0.28395     2 3d0  -0.39744
                                    2 3d2- -0.43422     2 3d1+  0.47686     2 3d1- -0.28390     3 1s   -0.47516     6 1s   -0.47499
   36.1    -0.00000     2.90273     1 1s   -1.65848     1 2px  -0.29444     1 2px  -0.88027     1 2py   0.29030     1 2pz   0.45553
                                    1 3d2-  0.37756     1 3d1+  0.66615     1 3d2+ -0.58302     2 1s    1.65847     2 2px  -0.29444
                                    2 2px  -0.88028     2 2py   0.29029     2 2pz   0.45552     2 3d2- -0.37757     2 3d1+ -0.66616
                                    2 3d2+  0.58304


 Natural orbital dump (state averaged) at molpro section  2140.2    (Orbital set 2)



 **********************************************************************************************************************************
 DATASETS  * FILE   NREC   LENGTH (MB)   RECORD NAMES
              1      20       31.85       500      610      700      900      950      970     1000      129      960     1100   
                                          VAR    BASINP    GEOM    SYMINP    ZMAT    AOBASIS   BASIS     P2S    ABASIS      S 
                                         1400     1410     1200     1210     1080     1600     1650     1300     1700     1380   
                                           T        V       H0       H01     AOSYM     SMH    MOLCAS    ERIS     OPER     JKOP   

              2       5        5.42       700     1000      520     2100     2140   
                                         GEOM     BASIS   MCVARS     RHF     MCSCF   

 PROGRAMS   *        TOTAL     MULTI    HF-SCF       INT
 CPU TIMES  *         0.83      0.35      0.13      0.23
 REAL TIME  *         1.99 SEC
 DISK USED  *        39.03 MB
 **********************************************************************************************************************************
 Molecular orbitals read from record     2140.2  Type=MCSCF/NATURAL (state averaged)
 Occupation numbers read from record     2140.2  Type=MCSCF/NATURAL (state averaged)
 Orbital energies read from record       2140.2  Type=MCSCF/NATURAL (state averaged)
 Redundancy group numbers read from rec  2140.2  Type=MCSCF/NATURAL (state averaged)

 MULTI/6-31G* energy=    -77.554841318876

           MULTI          HF-SCF
    -77.55484132    -77.79350600
 **********************************************************************************************************************************
 Molpro calculation terminated
