
 Primary working directories    : /scratch.local/johan406.molpro_temp/molpro.OdSL5OhgTZ
 Secondary working directories  : /scratch.local/johan406.molpro_temp/molpro.OdSL5OhgTZ
 Wavefunction directory         : /home/goodpast/johan406/wfu/
 Main file repository           : /scratch.local/johan406.molpro_temp/molpro.OdSL5OhgTZ/

 id        : roweumn

 Nodes     nprocs
 acn09        1

 Using customized tuning parameters: mindgm=1; mindgv=20; mindgc=4; mindgr=1; noblas=0; minvec=7
 default implementation of scratch files=df  


 Variables initialized (934), CPU time= 0.01 sec
                                                                                 !leave this line blank
 
 gprint, orbitals=30
 memory, 125., m
 symmetry, nosym
 nelect=16
 basis=6-31g*
 
 geometry={
 C -0.6236 0.1399 0.2987
 C 0.6325 -0.1897 -0.359
 H -1.2704 0.8917 -0.1557
 H -0.9406 -0.8604 -0.1475
 H 0.9495 0.8105 0.0871
 H 1.2793 -0.9417 0.0952
 }
 
 hf
 {multi,
 closed 7
 occ 9
 wf,spin=0;STATE,3
 }
 
 Commands  initialized (763), CPU time= 0.01 sec, 617 directives.
 Default parameters read. Elapsed time= 0.08 sec

 Checking input...
 Passed
1


                                         ***  PROGRAM SYSTEM MOLPRO  ***
                                       Copyright, TTI GmbH Stuttgart, 2015
                                    Version 2019.2 linked Oct 25 2019 22:50:27


 **********************************************************************************************************************************
 LABEL *                                                                                 
  64 bit serial version                                                                  DATE: 07-Feb-23          TIME: 15:35:17  
 **********************************************************************************************************************************

 SHA1:             8dbd9ae1082e4ce945b0f27595c9eb2d4aa09004
 **********************************************************************************************************************************


 Variable memory set to  125000000 words,  buffer space 

 SETTING NELECT         =        16.00000000                                  
 SETTING BASIS          =    6-31G*
 ZSYMEL=NOSYM


Geometry recognized as XYZ



 Recomputing integrals since basis changed


 Using spherical harmonics

 Library entry C      S 6-31G                selected for orbital group  1
 Library entry C      P 6-31G                selected for orbital group  1
 Library entry C      D 6-31G*               selected for orbital group  1
 Library entry H      S 6-31G                selected for orbital group  2


 PROGRAM * SEWARD (Integral evaluation for generally contracted gaussian basis sets)     Author: Roland Lindh, 1990

 Geometry written to block  1 of record 700


 Point group  C1  



 ATOMIC COORDINATES

 NR  ATOM    CHARGE       X              Y              Z

   1  C       6.00   -1.178433211    0.264372685    0.564461193
   2  C       6.00    1.195251774   -0.358481046   -0.678411679
   3  H       1.00   -2.400708069    1.685068785   -0.294230358
   4  H       1.00   -1.777476393   -1.625920358   -0.278734603
   5  H       1.00    1.794294955    1.531623024    0.164595145
   6  H       1.00    2.417526631   -1.779555092    0.179901927

 Bond lengths in Bohr (Angstrom)

 1-2  2.750828994  1-3  2.061476271  1-4  2.154771373  2-5  2.154531651  2-6  2.061579374
     ( 1.455676015)     ( 1.090886264)     ( 1.140255905)     ( 1.140129050)     ( 1.090940823)

 Bond angles

  1-2-5   82.21252015   1-2-6  118.65703963   2-1-3  118.65048682   2-1-4   82.20995213

  3-1-4  106.06586207   5-2-6  106.07931371

 NUCLEAR CHARGE:                   16
 NUMBER OF PRIMITIVE AOS:          72
 NUMBER OF SYMMETRY AOS:           70
 NUMBER OF CONTRACTIONS:           36   (   36A   )
 NUMBER OF CORE ORBITALS:           2   (    2A   )
 NUMBER OF VALENCE ORBITALS:       12   (   12A   )


 NUCLEAR REPULSION ENERGY   32.49531484

 Eigenvalues of metric

         1 0.923E-02 0.269E-01 0.590E-01 0.631E-01 0.802E-01 0.216E+00 0.238E+00 0.270E+00


 Contracted 2-electron integrals neglected if value below      1.0D-11
 AO integral compression algorithm  1   Integral accuracy      1.0D-11

     1.573 MB (compressed) written to integral file ( 59.3%)


 NUMBER OF SORTED TWO-ELECTRON INTEGRALS:     222111.     BUFFER LENGTH:  32768
 NUMBER OF SEGMENTS:   1  SEGMENT LENGTH:     222111      RECORD LENGTH: 524288

 Memory used in sort:       0.78 MW

 SORT1 READ      284735. AND WROTE      212531. INTEGRALS IN      1 RECORDS. CPU TIME:     0.00 SEC, REAL TIME:     0.01 SEC
 SORT2 READ      212531. AND WROTE      222111. INTEGRALS IN      6 RECORDS. CPU TIME:     0.03 SEC, REAL TIME:     0.02 SEC

 FILE SIZES:   FILE 1:    31.7 MBYTE,  FILE 4:     4.2 MBYTE,   TOTAL:     35.9 MBYTE

 OPERATOR DM      FOR CENTER  0  COORDINATES:    0.000000    0.000000    0.000000


 **********************************************************************************************************************************
 DATASETS  * FILE   NREC   LENGTH (MB)   RECORD NAMES
              1      19       31.13       500      610      700      900      950      970     1000      129      960     1100   
                                          VAR    BASINP    GEOM    SYMINP    ZMAT    AOBASIS   BASIS     P2S    ABASIS      S 
                                         1400     1410     1200     1210     1080     1600     1650     1300     1700   
                                           T        V       H0       H01     AOSYM     SMH    MOLCAS    ERIS     OPER   

 PROGRAMS   *        TOTAL       INT
 CPU TIMES  *         0.32      0.21
 REAL TIME  *         0.60 SEC
 DISK USED  *        36.24 MB
 **********************************************************************************************************************************


 PROGRAM * RHF-SCF (CLOSED SHELL)       Authors: W. Meyer, H.-J. Werner


 NUMBER OF ELECTRONS:       8+    8-    SPACE SYMMETRY=1    SPIN SYMMETRY: Singlet 
 CONVERGENCE THRESHOLDS:    1.00E-05 (Density)    1.00E-07 (Energy)
 MAX. NUMBER OF ITERATIONS:       60
 INTERPOLATION TYPE:            DIIS
 INTERPOLATION STEPS:              2 (START)      1 (STEP)
 LEVEL SHIFTS:                  0.00 (CLOSED)  0.00 (OPEN) 



 Orbital guess generated from atomic densities. Full valence occupancy:    8

 Molecular orbital dump at record        2100.2

 Initial occupancy:   8

 ITERATION    DDIFF          GRAD             ENERGY        2-EL.EN.            DIPOLE MOMENTS         DIIS   ORB.
    1      0.000D+00      0.000D+00       -77.82011542    116.178199    0.00010   -0.00009   -0.00018    0    start
    2      0.000D+00      0.705D-02       -77.83804067    115.146132    0.00011    0.00002   -0.00011    1    diag
    3      0.766D-02      0.227D-02       -77.84009542    115.565675    0.00017   -0.00001   -0.00019    2    diag
    4      0.296D-02      0.823D-03       -77.84053255    115.437206    0.00015    0.00003   -0.00014    3    diag
    5      0.162D-02      0.289D-03       -77.84066766    115.444684    0.00021   -0.00000   -0.00021    4    diag
    6      0.979D-03      0.133D-03       -77.84071654    115.446536    0.00009    0.00008   -0.00004    5    diag
    7      0.630D-03      0.496D-04       -77.84072363    115.448077    0.00034   -0.00009   -0.00041    6    diag
    8      0.264D-03      0.159D-04       -77.84072419    115.448614   -0.00003    0.00016    0.00015    7    diag
    9      0.759D-04      0.749D-05       -77.84072423    115.448661    0.00024   -0.00002   -0.00026    8    diag
   10      0.152D-04      0.284D-05       -77.84072424    115.448635    0.00017    0.00002   -0.00016    9    orth
   11      0.676D-05      0.555D-06       -77.84072424    115.448641    0.00018    0.00002   -0.00017    0    orth

 Final occupancy:   8

 !RHF STATE  1.1 Energy               -77.840724240065
 Nuclear energy                        32.49531484
 One-electron energy                 -168.06035964
 Two-electron energy                   57.72432056
 Virial quotient                       -1.00075103
 !RHF STATE  1.1 Dipole moment          0.00018041     0.00001621    -0.00017134
 Dipole moment /Debye                   0.00045852     0.00004120    -0.00043548

 ELECTRON ORBITALS
 =================

  Orbital  Occupation    Energy     Coefficients
    1.1     2.00000   -11.25885     1 1s    0.69809     2 1s    0.71073
    2.1     2.00000   -11.25798     1 1s    0.71084     2 1s   -0.69819
    3.1     2.00000    -1.04161     1 1s    0.28247     2 1s    0.28249
    4.1     2.00000    -0.78427     1 1s   -0.29341     2 1s    0.29340
    5.1     2.00000    -0.62457     1 2py   0.30853     2 2py   0.30869
    6.1     2.00000    -0.56397     1 2px   0.29895     2 2px  -0.29897
    7.1     2.00000    -0.39371     1 2pz   0.30873     1 2pz   0.28446     2 2pz   0.30871     2 2pz   0.28445
    8.1     2.00000    -0.38090     1 2px   0.27542     2 2px  -0.27543     4 1s   -0.29031     5 1s   -0.29025
    9.1     0.00000     0.06305     1 1s    0.39833     1 2pz   0.33011     1 2pz   0.46900     2 1s    0.39831     2 2pz  -0.33015
                                    2 2pz  -0.46907
   10.1     0.00000     0.23061     1 1s   -1.09608     1 2px   0.46933     1 2py   0.37447     1 2pz   0.42733     2 1s   -1.09635
                                    2 2px  -0.46935     2 2py  -0.37420     2 2pz  -0.42732     3 1s    0.55630     4 1s    1.09527
                                    5 1s    1.09510     6 1s    0.55665
   11.1     0.00000     0.28147     1 1s   -1.57283     1 2py  -0.35293     1 2pz   0.46225     2 1s    1.57258     2 2py  -0.35347
                                    2 2pz   0.46207     3 1s    1.44552     6 1s   -1.44568
   12.1     0.00000     0.31264     1 1s   -0.77202     1 2px   0.41593     1 2py  -1.00213     1 2pz   0.46522     2 1s   -0.77119
                                    2 2px  -0.41607     2 2py   1.00211     2 2pz  -0.46487     3 1s    1.57180     4 1s   -0.40533
                                    5 1s   -0.40530     6 1s    1.57132
   13.1     0.00000     0.33917     1 1s    1.04559     1 2px  -0.29455     1 2py  -0.77210     1 2pz  -0.32783     2 1s   -1.04601
                                    2 2px  -0.29464     2 2py  -0.77244     2 2pz  -0.32788     4 1s   -1.72658     5 1s    1.72723
   14.1     0.00000     0.42489     1 1s    2.05581     1 2px   1.79134     1 2py  -0.64453     1 2pz  -0.79852     2 1s   -2.05585
                                    2 2px   1.79134     2 2py  -0.64453     2 2pz  -0.79861     3 1s    0.63451     6 1s   -0.63448
   15.1     0.00000     0.70301     1 2px  -0.54902     1 2px   0.93556     2 2px   0.54901     2 2px  -0.93538     4 1s   -0.44356
                                    5 1s   -0.44342
   16.1     0.00000     0.75744     1 1s   -0.33995     1 2py  -0.37590     1 2px  -0.62703     1 2py   0.80224     2 1s    0.34013
                                    2 2py  -0.37560     2 2px  -0.62709     2 2py   0.80186     3 1s   -0.48444     6 1s    0.48442
   17.1     0.00000     0.78588     1 2py   0.58352     1 2pz   0.25516     1 2py  -1.22157     2 2py  -0.58372     2 2pz  -0.25650
                                    2 2py   1.22241     4 1s   -0.29075     5 1s   -0.29118
   18.1     0.00000     0.79913     1 2pz  -0.73240     1 2pz   0.71526     2 2pz  -0.73203     2 2pz   0.71492
   19.1     0.00000     0.86540     1 1s   -0.35819     1 2pz  -0.68777     1 2px   0.46237     1 2py  -0.53043     1 2pz   0.96273
                                    2 1s   -0.35820     2 2pz   0.68770     2 2px  -0.46274     2 2py   0.53082     2 2pz  -0.96249
   20.1     0.00000     0.97391     1 2px   0.70954     1 2py   0.37840     1 2px  -1.12503     1 2py  -0.81137     2 2px   0.70940
                                    2 2py   0.37834     2 2px  -1.12501     2 2py  -0.81140     4 1s   -1.08879     5 1s    1.08906
   21.1     0.00000     1.11893     1 1s   -0.65698     1 1s    1.21277     1 2py   0.41478     1 2px  -0.34360     1 2py  -0.40551
                                    2 1s   -0.65679     2 1s    1.21228     2 2py  -0.41315     2 2px   0.34478     2 2py   0.40315
                                    4 1s    0.65098     4 1s   -1.19564     5 1s    0.64943     5 1s   -1.19309
   22.1     0.00000     1.13958     1 2px  -0.42060     1 2py   0.58078     1 2px   0.80728     1 2py  -0.95269     2 2px  -0.42022
                                    2 2py   0.58206     2 2px   0.80663     2 2py  -0.95403     3 1s   -0.54043     3 1s    1.27677
                                    4 1s   -0.58000     5 1s    0.58283     6 1s    0.54146     6 1s   -1.27764
   23.1     0.00000     1.18245     1 1s    0.43068     1 2pz  -0.25517     1 2px   0.80168     2 1s   -0.42463     2 2pz  -0.25624
                                    2 2px   0.80363     3 1s   -0.33574     3 1s    0.47373     4 1s   -0.77886     4 1s    0.90864
                                    5 1s    0.78033     5 1s   -0.91021     6 1s    0.34080     6 1s   -0.47991
   24.1     0.00000     1.19162     1 1s   -0.65970     1 1s    1.05018     1 2px   0.29798     1 2py  -0.30918     1 2px  -0.31991
                                    1 2py   0.31450     2 1s   -0.65798     2 1s    1.05206     2 2px  -0.29686     2 2py   0.31001
                                    2 2px   0.31447     2 2py  -0.31368     3 1s    0.75485     3 1s   -1.10874     6 1s    0.75222
                                    6 1s   -1.10446
   25.1     0.00000     1.26825     1 1s   -1.16273     1 1s    2.10459     1 2px  -0.54103     1 2py   0.56694     1 2pz  -0.99202
                                    2 1s   -1.18776     2 1s    2.18152     2 2px   0.52338     2 2py  -0.55549     2 2pz   1.01028
                                    3 1s   -0.43446     3 1s   -0.91056     4 1s   -0.42781     4 1s   -0.35714     5 1s   -0.42937
                                    5 1s   -0.36922     6 1s   -0.43463     6 1s   -0.91846
   26.1     0.00000     1.27647     1 1s    1.63343     1 1s   -5.11354     1 2px  -1.18932     1 2py   0.76428     1 2pz   1.23472
                                    2 1s   -1.61564     2 1s    5.08113     2 2px  -1.19741     2 2py   0.77286     2 2pz   1.21934
                                    3 1s    0.50923     4 1s    0.74733     5 1s   -0.74209     6 1s   -0.49531
   27.1     0.00000     1.70170     1 1s    0.62745     1 3d0   0.36532     1 3d2- -0.29097     1 3d2+ -0.32152     2 1s   -0.62747
                                    2 3d0  -0.36535     2 3d2-  0.29095     2 3d2+  0.32149
   28.1     0.00000     1.91177     1 1s    0.30976     1 1s   -0.65977     1 2pz   0.34746     1 3d0   0.35055     1 3d1+  0.33895
                                    1 3d2+  0.34807     1 3d1-  0.32179     2 1s    0.30936     2 1s   -0.65789     2 2pz  -0.34690
                                    2 3d0   0.35026     2 3d1+  0.33927     2 3d2+  0.34814     2 3d1-  0.32206     3 1s    0.27821
                                    6 1s    0.27818
   29.1     0.00000     1.94900     1 1s   -0.30421     1 1s    1.38528     1 2px   0.31918     1 2pz  -0.36303     1 3d2- -0.31217
                                    1 3d1+  0.39177     1 3d1-  0.39035     2 1s    0.30421     2 1s   -1.38541     2 2px   0.31910
                                    2 2pz  -0.36307     2 3d2-  0.31220     2 3d1+ -0.39147     2 3d1- -0.39001     3 1s   -0.33083
                                    6 1s    0.33092
   30.1     0.00000     2.17402     1 1s    0.33064     1 1s   -1.60918     1 2px  -0.36752     1 2py   0.27973     1 2pz   0.43572
                                    1 3d0   0.55952     1 3d2+  0.36320     2 1s   -0.33078     2 1s    1.60949     2 2px  -0.36744
                                    2 2py   0.27953     2 2pz   0.43587     2 3d0  -0.55958     2 3d2+ -0.36324     3 1s    0.34925
                                    4 1s    0.33222     5 1s   -0.33219     6 1s   -0.34946
   31.1     0.00000     2.25287     1 1s    0.50048     1 1s   -0.33694     1 2px   0.26211     1 2px  -0.29069     1 3d2-  0.30987
                                    1 3d1+  0.39408     1 3d2+ -0.38585     2 1s    0.50043     2 1s   -0.33678     2 2px  -0.26209
                                    2 2px   0.29071     2 3d2-  0.30972     2 3d1+  0.39409     2 3d2+ -0.38592
   32.1     0.00000     2.35075     1 2py   0.35224     1 3d0   0.52299     1 3d2- -0.36565     1 3d1- -0.35691     2 2py  -0.35252
                                    2 3d0   0.52310     2 3d2- -0.36555     2 3d1- -0.35691     3 1s   -0.27296     4 1s    0.39341
                                    5 1s    0.39363     6 1s   -0.27273
   33.1     0.00000     2.58009     1 1s    0.25470     1 2py  -0.29231     1 3d2-  0.47486     1 3d1-  0.60204     2 1s   -0.25475
                                    2 2py  -0.29239     2 3d2- -0.47513     2 3d1- -0.60201     3 1s    0.49294     4 1s   -0.40932
                                    5 1s    0.40953     6 1s   -0.49290
   34.1     0.00000     2.65408     1 2py   0.31108     1 3d2-  0.46083     1 3d2+  0.51221     1 3d1- -0.50132     2 2py  -0.31126
                                    2 3d2-  0.46079     2 3d2+  0.51223     2 3d1- -0.50142     4 1s    0.36542     5 1s    0.36558
   35.1     0.00000     2.73039     1 3d0  -0.40591     1 3d2- -0.46723     1 3d1+  0.49753     1 3d1- -0.29844     2 3d0  -0.40594
                                    2 3d2- -0.46710     2 3d1+  0.49756     2 3d1- -0.29838     3 1s   -0.47563     6 1s   -0.47550
   36.1     0.00000     2.96228     1 1s   -1.73422     1 2px  -0.44087     1 2px  -0.87860     1 2pz   0.44386     1 3d2-  0.35243
                                    1 3d1+  0.69855     1 3d2+ -0.64317     2 1s    1.73421     2 2px  -0.44089     2 2px  -0.87858
                                    2 2pz   0.44385     2 3d2- -0.35250     2 3d1+ -0.69847     2 3d2+  0.64324


 HOMO      8.1    -0.380896 =     -10.3647eV
 LUMO      9.1     0.063051 =       1.7157eV
 LUMO-HOMO         0.443947 =      12.0804eV


 **********************************************************************************************************************************
 DATASETS  * FILE   NREC   LENGTH (MB)   RECORD NAMES
              1      19       31.13       500      610      700      900      950      970     1000      129      960     1100   
                                          VAR    BASINP    GEOM    SYMINP    ZMAT    AOBASIS   BASIS     P2S    ABASIS      S 
                                         1400     1410     1200     1210     1080     1600     1650     1300     1700   
                                           T        V       H0       H01     AOSYM     SMH    MOLCAS    ERIS     OPER   

              2       4        2.86       700     1000      520     2100   
                                         GEOM     BASIS   MCVARS     RHF  

 PROGRAMS   *        TOTAL    HF-SCF       INT
 CPU TIMES  *         0.44      0.12      0.21
 REAL TIME  *         0.87 SEC
 DISK USED  *        36.24 MB
 **********************************************************************************************************************************


 PROGRAM * MULTI (Direct Multiconfiguration SCF)       Authors: P.J. Knowles, H.-J. Werner (1984)


 Number of closed-shell orbitals:   7 (   7 )
 Number of active  orbitals:        2 (   2 )
 Number of external orbitals:      27 (  27 )

 State symmetry 1

 Number of electrons:     2    Spin symmetry=Singlet   Space symmetry=1
 Number of states:        3
 Number of CSFs:          3   (4 determinants, 4 intermediate states)

 Molecular orbitals read from record     2100.2  Type=RHF/CANONICAL (state 1.1)

 Wavefunction dump at record             2140.2

 Convergence thresholds  0.10E-01 (gradient)  0.10E-05 (energy)  0.10E-02 (step length)

 Weight factors for state symmetry  1:    0.33333   0.33333   0.33333

 Number of orbital rotations:      257   (    14 Core/Active    189 Core/Virtual   0 Active/Active     54 Active/Virtual)
 Total number of variables:        269

 Micro-Iterations solved by the two-step solver

 ITER. MIC  NCI  NEG     ENERGY(VAR)     ENERGY(PROJ)   ENERGY CHANGE     GRAD(0)  GRAD(ORB)   GRAD(CI)     STEP       TIME

   1    6    5    0     -77.69170337     -77.71101595   -0.01931258    0.16782673 0.00154264 0.00000000  0.14D+00      0.12
   2    5    5    0     -77.71071287     -77.71073110   -0.00001824    0.00628760 0.00000309 0.00000000  0.44D-02      0.21
   3    4    4    0     -77.71073113     -77.71073113   -0.00000000    0.00001167 0.00000000 0.00000000  0.16D-04      0.28

 ** WVFN ****  CONVERGENCE REACHED, FINAL GRADIENT:  0.12D-09



 Results for state 1.1
 =====================

 !MCSCF STATE  1.1 Energy             -77.834438094478
 Nuclear energy                        32.49531484
 Kinetic energy                        77.83948759
 One electron energy                 -168.13883484
 Two electron energy                   57.80908190
 Virial ratio                           1.99993513

 !MCSCF STATE  1.1 Dipole moment        0.00023290     0.00004415    -0.00018601
 Dipole moment /Debye                   0.00059195     0.00011222    -0.00047276

 Results for state 2.1
 =====================

 !MCSCF STATE  2.1 Energy             -77.738138983538
 Nuclear energy                        32.49531484
 Kinetic energy                        77.91101497
 One electron energy                 -167.83672933
 Two electron energy                   57.60327551
 Virial ratio                           1.99778111

 !MCSCF STATE  2.1 Dipole moment        0.00002036    -0.00007092    -0.00011986
 Dipole moment /Debye                   0.00005174    -0.00018026    -0.00030463

 Results for state 3.1
 =====================

 !MCSCF STATE  3.1 Energy             -77.559616314240
 Nuclear energy                        32.49531484
 Kinetic energy                        77.96586429
 One electron energy                 -167.57833642
 Two electron energy                   57.52340526
 Virial ratio                           1.99478941

 !MCSCF STATE  3.1 Dipole moment       -0.00018358    -0.00019180    -0.00008121
 Dipole moment /Debye                  -0.00046659    -0.00048748    -0.00020641

 State-averaged charge density matrix saved on record  2140.2 (density set 1)

 !MCSCF expec         <1.1|DMX|1.1>     0.000232904914 au =     0.000591946472 Debye
 !MCSCF trans         <2.1|DMX|1.1>    -0.000008991739 au =    -0.000022853225 Debye
 !MCSCF expec         <2.1|DMX|2.1>     0.000020359014 au =     0.000051744063 Debye
 !MCSCF trans         <3.1|DMX|1.1>     0.000022347562 au =     0.000056798117 Debye
 !MCSCF trans         <3.1|DMX|2.1>    -0.000027047613 au =    -0.000068743671 Debye
 !MCSCF expec         <3.1|DMX|3.1>    -0.000183582528 au =    -0.000466589682 Debye

 !MCSCF expec         <1.1|DMY|1.1>     0.000044151908 au =     0.000112215607 Debye
 !MCSCF trans         <2.1|DMY|1.1>     0.000016616220 au =     0.000042231453 Debye
 !MCSCF expec         <2.1|DMY|2.1>    -0.000070924075 au =    -0.000180259210 Debye
 !MCSCF trans         <3.1|DMY|1.1>     0.000010872294 au =     0.000027632805 Debye
 !MCSCF trans         <3.1|DMY|2.1>     0.000008690284 au =     0.000022087053 Debye
 !MCSCF expec         <3.1|DMY|3.1>    -0.000191801672 au =    -0.000487479294 Debye

 !MCSCF expec         <1.1|DMZ|1.1>    -0.000186008590 au =    -0.000472755711 Debye
 !MCSCF trans         <2.1|DMZ|1.1>     0.000053788733 au =     0.000136708368 Debye
 !MCSCF expec         <2.1|DMZ|2.1>    -0.000119859009 au =    -0.000304631259 Debye
 !MCSCF trans         <3.1|DMZ|1.1>    -0.000009867359 au =    -0.000025078681 Debye
 !MCSCF trans         <3.1|DMZ|2.1>     0.000063798450 au =     0.000162148865 Debye
 !MCSCF expec         <3.1|DMZ|3.1>    -0.000081212959 au =    -0.000206409231 Debye


 NATURAL ORBITALS (state averaged)
 =================================

  Orbital  Occupation    Energy     Coefficients
    1.1     2.00000   -11.25405     1 1s    0.70629     2 1s    0.70256
    2.1     2.00000   -11.25329     1 1s    0.70262     2 1s   -0.70635
    3.1     2.00000    -1.05487     1 1s    0.27761     2 1s    0.27762
    4.1     2.00000    -0.78555     1 1s   -0.31778     2 1s    0.31777
    5.1     2.00000    -0.62773     1 2py   0.30198     2 2py   0.30210
    6.1     2.00000    -0.56272     1 2px   0.26151     2 2px  -0.26151
    7.1     2.00000    -0.42112     1 2pz   0.32432     1 2pz   0.27877     2 2pz   0.32429     2 2pz   0.27876
    8.1     1.00000    -0.08720     1 1s    0.26823     1 2pz   0.40405     1 2pz   0.42941     2 1s    0.26822     2 2pz  -0.40409
                                    2 2pz  -0.42946
    9.1     1.00000    -0.22364     1 2px   0.30944     2 2px  -0.30945     4 1s   -0.29970     5 1s   -0.29965
   10.1    -0.00000     0.21867     1 1s   -1.10452     1 2px   0.46568     1 2py   0.38713     1 2pz   0.37075     2 1s   -1.10453
                                    2 2px  -0.46568     2 2py  -0.38683     2 2pz  -0.37065     3 1s    0.52769     4 1s    1.10277
                                    5 1s    1.10246     6 1s    0.52790
   11.1    -0.00000     0.28036     1 1s   -1.65089     1 2py  -0.29467     1 2pz   0.47684     2 1s    1.65069     2 2py  -0.29497
                                    2 2pz   0.47662     3 1s    1.43659     6 1s   -1.43654
   12.1    -0.00000     0.31502     1 1s   -0.82387     1 2px   0.41483     1 2py  -0.99610     1 2pz   0.43921     2 1s   -0.82360
                                    2 2px  -0.41498     2 2py   0.99594     2 2pz  -0.43903     3 1s    1.58818     4 1s   -0.36531
                                    5 1s   -0.36490     6 1s    1.58792
   13.1    -0.00000     0.32390     1 1s    1.06341     1 2py  -0.85323     1 2pz  -0.34371     2 1s   -1.06377     2 2py  -0.85385
                                    2 2pz  -0.34372     4 1s   -1.74070     5 1s    1.74155
   14.1    -0.00000     0.43104     1 1s    1.91452     1 2px   1.80385     1 2py  -0.53405     1 2pz  -0.73916     2 1s   -1.91452
                                    2 2px   1.80386     2 2py  -0.53404     2 2pz  -0.73923     3 1s    0.63471     6 1s   -0.63469
   15.1    -0.00000     0.69968     1 2px  -0.53421     1 2px   0.91212     2 2px   0.53419     2 2px  -0.91189     4 1s   -0.50159
                                    5 1s   -0.50145
   16.1    -0.00000     0.75437     1 1s   -0.45443     1 2py  -0.36517     1 2px  -0.67874     1 2py   0.82079     2 1s    0.45471
                                    2 2py  -0.36472     2 2px  -0.67869     2 2py   0.82004     3 1s   -0.48138     4 1s    0.26193
                                    5 1s   -0.26156     6 1s    0.48130
   17.1    -0.00000     0.78464     1 2py   0.55773     1 2pz   0.25421     1 2py  -1.20257     1 2pz  -0.30322     2 2py  -0.55799
                                    2 2pz  -0.25533     2 2py   1.20362     2 2pz   0.30472     4 1s   -0.29318     5 1s   -0.29364
   18.1    -0.00000     0.79928     1 1s   -0.38179     1 2pz  -0.72825     1 2pz   0.78028     2 1s    0.38222     2 2pz  -0.72789
                                    2 2pz   0.77982
   19.1    -0.00000     0.86342     1 1s   -0.31542     1 2px  -0.25388     1 2pz  -0.66290     1 2px   0.49875     1 2py  -0.53698
                                    1 2pz   1.01814     2 1s   -0.31545     2 2px   0.25402     2 2pz   0.66290     2 2px  -0.49913
                                    2 2py   0.53740     2 2pz  -1.01798     3 1s    0.27879     6 1s    0.27892
   20.1    -0.00000     0.98016     1 2px   0.70581     1 2py   0.38482     1 2px  -1.03975     1 2py  -0.83261     2 2px   0.70566
                                    2 2py   0.38474     2 2px  -1.03973     2 2py  -0.83263     4 1s   -1.05370     5 1s    1.05390
   21.1    -0.00000     1.09359     1 1s   -0.63965     1 1s    1.16704     1 2px   0.27094     1 2py   0.43008     1 2px  -0.35156
                                    1 2py  -0.44272     2 1s   -0.63904     2 1s    1.16635     2 2px  -0.27155     2 2py  -0.42856
                                    2 2px   0.35187     2 2py   0.44078     4 1s    0.65882     4 1s   -1.16871     5 1s    0.65680
                                    5 1s   -1.16568
   22.1    -0.00000     1.13010     1 2px  -0.28082     1 2py   0.61200     1 2px   0.27622     1 2py  -0.83230     2 2px  -0.27999
                                    2 2py   0.61325     2 2px   0.27533     2 2py  -0.83372     3 1s   -0.25715     3 1s    0.77716
                                    4 1s    0.62914     4 1s   -1.02304     5 1s   -0.63103     5 1s    1.02610     6 1s    0.25727
                                    6 1s   -0.77728
   23.1    -0.00000     1.15732     1 1s    0.40796     1 2px  -0.36962     1 2px   1.14128     1 2py  -0.48906     2 1s   -0.40697
                                    2 2px  -0.37034     2 2px   1.14164     2 2py  -0.48900     3 1s   -0.57956     3 1s    1.10658
                                    4 1s   -0.50876     4 1s    0.48422     5 1s    0.50953     5 1s   -0.48478     6 1s    0.58109
                                    6 1s   -1.10785
   24.1    -0.00000     1.19593     1 1s   -0.60278     1 1s    0.93551     1 2px   0.28418     1 2py  -0.32286     1 2px  -0.27688
                                    1 2py   0.30768     2 1s   -0.60171     2 1s    0.93434     2 2px  -0.28366     2 2py   0.32266
                                    2 2px   0.27551     2 2py  -0.30699     3 1s    0.77406     3 1s   -1.06910     6 1s    0.77306
                                    6 1s   -1.06698
   25.1    -0.00000     1.25944     1 1s   -1.21575     1 1s    2.20256     1 2px  -0.55823     1 2py   0.58173     1 2pz  -0.99720
                                    2 1s   -1.23373     2 1s    2.25768     2 2px   0.54534     2 2py  -0.57418     2 2pz   1.00998
                                    3 1s   -0.41556     3 1s   -0.95160     4 1s   -0.39646     4 1s   -0.40926     5 1s   -0.39786
                                    5 1s   -0.41710     6 1s   -0.41560     6 1s   -0.95749
   26.1    -0.00000     1.26995     1 1s    1.63317     1 1s   -5.12017     1 2px  -1.21245     1 2py   0.72085     1 2pz   1.21621
                                    2 1s   -1.62003     2 1s    5.09622     2 2px  -1.21840     2 2py   0.72715     2 2pz   1.20512
                                    3 1s    0.52520     4 1s    0.68389     5 1s   -0.67968     6 1s   -0.51497
   27.1    -0.00000     1.69660     1 1s    0.65813     1 3d0   0.35826     1 3d2- -0.29564     1 3d2+ -0.32393     2 1s   -0.65814
                                    2 3d0  -0.35829     2 3d2-  0.29562     2 3d2+  0.32389
   28.1    -0.00000     1.90888     1 1s    0.29983     1 1s   -0.64795     1 2pz   0.34141     1 3d0   0.34835     1 3d1+  0.33478
                                    1 3d2+  0.35488     1 3d1-  0.32103     2 1s    0.29949     2 1s   -0.64635     2 2pz  -0.34093
                                    2 3d0   0.34805     2 3d1+  0.33501     2 3d2+  0.35491     2 3d1-  0.32122     3 1s    0.27488
                                    6 1s    0.27486
   29.1    -0.00000     1.94560     1 1s   -0.29741     1 1s    1.35412     1 2px   0.30882     1 2pz  -0.35463     1 3d2- -0.30962
                                    1 3d1+  0.39482     1 3d1-  0.38897     2 1s    0.29735     2 1s   -1.35412     2 2px   0.30877
                                    2 2pz  -0.35460     2 3d2-  0.30965     2 3d1+ -0.39459     2 3d1- -0.38868     3 1s   -0.33283
                                    6 1s    0.33289
   30.1    -0.00000     2.17385     1 1s    0.33376     1 1s   -1.59483     1 2px  -0.36161     1 2py   0.28152     1 2pz   0.42933
                                    1 3d0   0.56315     1 3d2+  0.36560     2 1s   -0.33389     2 1s    1.59517     2 2px  -0.36151
                                    2 2py   0.28130     2 2pz   0.42949     2 3d0  -0.56321     2 3d2+ -0.36565     3 1s    0.34807
                                    4 1s    0.32643     5 1s   -0.32639     6 1s   -0.34829
   31.1    -0.00000     2.24811     1 1s    0.49412     1 1s   -0.34008     1 2px   0.26804     1 2px  -0.28214     1 3d2-  0.32322
                                    1 3d1+  0.40154     1 3d2+ -0.38399     2 1s    0.49407     2 1s   -0.33985     2 2px  -0.26803
                                    2 2px   0.28213     2 3d2-  0.32307     2 3d1+  0.40154     2 3d2+ -0.38405
   32.1    -0.00000     2.34501     1 2py   0.36701     1 3d0   0.52286     1 3d2- -0.36035     1 3d1- -0.36874     2 2py  -0.36729
                                    2 3d0   0.52300     2 3d2- -0.36023     2 3d1- -0.36873     3 1s   -0.28545     4 1s    0.38203
                                    5 1s    0.38225     6 1s   -0.28519
   33.1    -0.00000     2.57488     1 2py  -0.29291     1 3d2-  0.47746     1 3d1-  0.60303     2 2py  -0.29299     2 3d2- -0.47773
                                    2 3d1- -0.60297     3 1s    0.49624     4 1s   -0.40026     5 1s    0.40045     6 1s   -0.49620
   34.1    -0.00000     2.64584     1 2py   0.31799     1 3d2-  0.46268     1 3d2+  0.50850     1 3d1- -0.50529     2 2py  -0.31819
                                    2 3d2-  0.46263     2 3d2+  0.50853     2 3d1- -0.50542     4 1s    0.35864     5 1s    0.35883
   35.1    -0.00000     2.73523     1 3d0  -0.41356     1 3d2- -0.45942     1 3d1+  0.50254     1 3d1- -0.29497     2 3d0  -0.41359
                                    2 3d2- -0.45932     2 3d1+  0.50258     2 3d1- -0.29493     3 1s   -0.47392     6 1s   -0.47381
   36.1    -0.00000     2.95789     1 1s   -1.76361     1 2px  -0.43466     1 2px  -0.89042     1 2py   0.25380     1 2pz   0.45166
                                    1 3d2-  0.35053     1 3d1+  0.70135     1 3d2+ -0.64042     2 1s    1.76361     2 2px  -0.43467
                                    2 2px  -0.89040     2 2py   0.25373     2 2pz   0.45165     2 3d2- -0.35061     2 3d1+ -0.70127
                                    2 3d2+  0.64049


 Natural orbital dump (state averaged) at molpro section  2140.2    (Orbital set 2)



 **********************************************************************************************************************************
 DATASETS  * FILE   NREC   LENGTH (MB)   RECORD NAMES
              1      20       31.86       500      610      700      900      950      970     1000      129      960     1100   
                                          VAR    BASINP    GEOM    SYMINP    ZMAT    AOBASIS   BASIS     P2S    ABASIS      S 
                                         1400     1410     1200     1210     1080     1600     1650     1300     1700     1380   
                                           T        V       H0       H01     AOSYM     SMH    MOLCAS    ERIS     OPER     JKOP   

              2       5        5.42       700     1000      520     2100     2140   
                                         GEOM     BASIS   MCVARS     RHF     MCSCF   

 PROGRAMS   *        TOTAL     MULTI    HF-SCF       INT
 CPU TIMES  *         0.78      0.34      0.12      0.21
 REAL TIME  *         1.38 SEC
 DISK USED  *        39.05 MB
 **********************************************************************************************************************************
 Molecular orbitals read from record     2140.2  Type=MCSCF/NATURAL (state averaged)
 Occupation numbers read from record     2140.2  Type=MCSCF/NATURAL (state averaged)
 Orbital energies read from record       2140.2  Type=MCSCF/NATURAL (state averaged)
 Redundancy group numbers read from rec  2140.2  Type=MCSCF/NATURAL (state averaged)

 MULTI/6-31G* energy=    -77.559616314240

           MULTI          HF-SCF
    -77.55961631    -77.84072424
 **********************************************************************************************************************************
 Molpro calculation terminated
