
 Primary working directories    : /scratch.local/johan406.molpro_temp/molpro.FSD60TTEm9
 Secondary working directories  : /scratch.local/johan406.molpro_temp/molpro.FSD60TTEm9
 Wavefunction directory         : /home/goodpast/johan406/wfu/
 Main file repository           : /scratch.local/johan406.molpro_temp/molpro.FSD60TTEm9/

 id        : roweumn

 Nodes     nprocs
 acn09        1

 Using customized tuning parameters: mindgm=1; mindgv=20; mindgc=4; mindgr=1; noblas=0; minvec=7
 default implementation of scratch files=df  


 Variables initialized (934), CPU time= 0.00 sec
                                                                                 !leave this line blank
 
 gprint, orbitals=30
 memory, 125., m
 symmetry, nosym
 nelect=16
 basis=6-31g*
 
 geometry={
 C -0.6185 0.1437 0.2987
 C 0.6274 -0.1936 -0.359
 H -1.2761 0.8834 -0.157
 H -0.9022 -0.8502 -0.1654
 H 0.9111 0.8003 0.105
 H 1.285 -0.9333 0.0965
 }
 
 hf
 {multi,
 closed 7
 occ 9
 wf,spin=0;STATE,3
 }
 
 Commands  initialized (763), CPU time= 0.01 sec, 617 directives.
 Default parameters read. Elapsed time= 0.07 sec

 Checking input...
 Passed
1


                                         ***  PROGRAM SYSTEM MOLPRO  ***
                                       Copyright, TTI GmbH Stuttgart, 2015
                                    Version 2019.2 linked Oct 25 2019 22:50:27


 **********************************************************************************************************************************
 LABEL *                                                                                 
  64 bit serial version                                                                  DATE: 07-Feb-23          TIME: 15:36:45  
 **********************************************************************************************************************************

 SHA1:             8dbd9ae1082e4ce945b0f27595c9eb2d4aa09004
 **********************************************************************************************************************************


 Variable memory set to  125000000 words,  buffer space 

 SETTING NELECT         =        16.00000000                                  
 SETTING BASIS          =    6-31G*
 ZSYMEL=NOSYM


Geometry recognized as XYZ



 Recomputing integrals since basis changed


 Using spherical harmonics

 Library entry C      S 6-31G                selected for orbital group  1
 Library entry C      P 6-31G                selected for orbital group  1
 Library entry C      D 6-31G*               selected for orbital group  1
 Library entry H      S 6-31G                selected for orbital group  2


 PROGRAM * SEWARD (Integral evaluation for generally contracted gaussian basis sets)     Author: Roland Lindh, 1990

 Geometry written to block  1 of record 700


 Point group  C1  



 ATOMIC COORDINATES

 NR  ATOM    CHARGE       X              Y              Z

   1  C       6.00   -1.168795608    0.271553644    0.564461193
   2  C       6.00    1.185614171   -0.365850978   -0.678411679
   3  H       1.00   -2.411479508    1.669384058   -0.296687002
   4  H       1.00   -1.704910910   -1.606645151   -0.312560701
   5  H       1.00    1.721729472    1.512347817    0.198421243
   6  H       1.00    2.428298070   -1.763681392    0.182358571

 Bond lengths in Bohr (Angstrom)

 1-2  2.737565165  1-3  2.059070022  1-4  2.141078638  2-5  2.141001239  2-6  2.058911986
     ( 1.448657099)     ( 1.089612931)     ( 1.133010022)     ( 1.132969064)     ( 1.089529302)

 Bond angles

  1-2-5   79.93095762   1-2-6  119.16702300   2-1-3  119.15910094   2-1-4   79.92899359

  3-1-4  105.84798960   5-2-6  105.85650259

 NUCLEAR CHARGE:                   16
 NUMBER OF PRIMITIVE AOS:          72
 NUMBER OF SYMMETRY AOS:           70
 NUMBER OF CONTRACTIONS:           36   (   36A   )
 NUMBER OF CORE ORBITALS:           2   (    2A   )
 NUMBER OF VALENCE ORBITALS:       12   (   12A   )


 NUCLEAR REPULSION ENERGY   32.72308821

 Eigenvalues of metric

         1 0.922E-02 0.261E-01 0.572E-01 0.614E-01 0.801E-01 0.214E+00 0.239E+00 0.267E+00


 Contracted 2-electron integrals neglected if value below      1.0D-11
 AO integral compression algorithm  1   Integral accuracy      1.0D-11

     1.573 MB (compressed) written to integral file ( 59.6%)


 NUMBER OF SORTED TWO-ELECTRON INTEGRALS:     222111.     BUFFER LENGTH:  32768
 NUMBER OF SEGMENTS:   1  SEGMENT LENGTH:     222111      RECORD LENGTH: 524288

 Memory used in sort:       0.78 MW

 SORT1 READ      284735. AND WROTE      212531. INTEGRALS IN      1 RECORDS. CPU TIME:     0.00 SEC, REAL TIME:     0.01 SEC
 SORT2 READ      212531. AND WROTE      222111. INTEGRALS IN      6 RECORDS. CPU TIME:     0.03 SEC, REAL TIME:     0.05 SEC

 FILE SIZES:   FILE 1:    31.7 MBYTE,  FILE 4:     4.2 MBYTE,   TOTAL:     35.9 MBYTE

 OPERATOR DM      FOR CENTER  0  COORDINATES:    0.000000    0.000000    0.000000


 **********************************************************************************************************************************
 DATASETS  * FILE   NREC   LENGTH (MB)   RECORD NAMES
              1      19       31.13       500      610      700      900      950      970     1000      129      960     1100   
                                          VAR    BASINP    GEOM    SYMINP    ZMAT    AOBASIS   BASIS     P2S    ABASIS      S 
                                         1400     1410     1200     1210     1080     1600     1650     1300     1700   
                                           T        V       H0       H01     AOSYM     SMH    MOLCAS    ERIS     OPER   

 PROGRAMS   *        TOTAL       INT
 CPU TIMES  *         0.33      0.22
 REAL TIME  *         0.72 SEC
 DISK USED  *        36.24 MB
 **********************************************************************************************************************************


 PROGRAM * RHF-SCF (CLOSED SHELL)       Authors: W. Meyer, H.-J. Werner


 NUMBER OF ELECTRONS:       8+    8-    SPACE SYMMETRY=1    SPIN SYMMETRY: Singlet 
 CONVERGENCE THRESHOLDS:    1.00E-05 (Density)    1.00E-07 (Energy)
 MAX. NUMBER OF ITERATIONS:       60
 INTERPOLATION TYPE:            DIIS
 INTERPOLATION STEPS:              2 (START)      1 (STEP)
 LEVEL SHIFTS:                  0.00 (CLOSED)  0.00 (OPEN) 



 Orbital guess generated from atomic densities. Full valence occupancy:    8

 Molecular orbital dump at record        2100.2

 Initial occupancy:   8

 ITERATION    DDIFF          GRAD             ENERGY        2-EL.EN.            DIPOLE MOMENTS         DIIS   ORB.
    1      0.000D+00      0.000D+00       -77.80510050    116.591486    0.00005    0.00001   -0.00014    0    start
    2      0.000D+00      0.706D-02       -77.82288652    115.544153    0.00012   -0.00001   -0.00013    1    diag
    3      0.792D-02      0.226D-02       -77.82488843    115.966320    0.00013   -0.00001   -0.00014    2    diag
    4      0.297D-02      0.813D-03       -77.82530527    115.837945    0.00015   -0.00001   -0.00014    3    diag
    5      0.165D-02      0.278D-03       -77.82542798    115.845200    0.00015   -0.00001   -0.00014    4    diag
    6      0.953D-03      0.133D-03       -77.82547762    115.847174    0.00016   -0.00001   -0.00015    5    diag
    7      0.612D-03      0.614D-04       -77.82549030    115.849222    0.00015   -0.00000   -0.00013    6    diag
    8      0.374D-03      0.198D-04       -77.82549144    115.850199    0.00017   -0.00002   -0.00017    7    diag
    9      0.129D-03      0.471D-05       -77.82549147    115.850209    0.00013    0.00001   -0.00010    8    diag
   10      0.176D-04      0.137D-05       -77.82549148    115.850209    0.00018   -0.00003   -0.00018    9    orth
   11      0.315D-05      0.812D-06       -77.82549148    115.850209    0.00013    0.00000   -0.00011    0    orth

 Final occupancy:   8

 !RHF STATE  1.1 Energy               -77.825491475452
 Nuclear energy                        32.72308821
 One-electron energy                 -168.47368436
 Two-electron energy                   57.92510468
 Virial quotient                       -0.99992810
 !RHF STATE  1.1 Dipole moment          0.00013223     0.00000416    -0.00010987
 Dipole moment /Debye                   0.00033607     0.00001057    -0.00027924

 ELECTRON ORBITALS
 =================

  Orbital  Occupation    Energy     Coefficients
    1.1     2.00000   -11.25723     1 1s    0.70949     2 1s    0.69933
    2.1     2.00000   -11.25633     1 1s    0.69943     2 1s   -0.70959
    3.1     2.00000    -1.05007     1 1s    0.28148     2 1s    0.28151
    4.1     2.00000    -0.78404     1 1s   -0.29491     2 1s    0.29488
    5.1     2.00000    -0.62961     1 2py   0.30890     2 2py   0.30903
    6.1     2.00000    -0.56822     1 2px   0.29906     2 2px  -0.29907
    7.1     2.00000    -0.39722     1 2pz   0.30800     1 2pz   0.28123     2 2pz   0.30801     2 2pz   0.28124
    8.1     2.00000    -0.36902     1 2px   0.27753     2 2px  -0.27755     4 1s   -0.29851     5 1s   -0.29848
    9.1     0.00000     0.06262     1 1s    0.39907     1 2pz   0.32910     1 2pz   0.46923     2 1s    0.39903     2 2pz  -0.32913
                                    2 2pz  -0.46929
   10.1     0.00000     0.22858     1 1s   -1.09171     1 2px   0.44220     1 2py   0.38728     1 2pz   0.41491     2 1s   -1.09162
                                    2 2px  -0.44225     2 2py  -0.38726     2 2pz  -0.41478     3 1s    0.52235     4 1s    1.10873
                                    5 1s    1.10871     6 1s    0.52232
   11.1     0.00000     0.28012     1 1s   -1.57969     1 2py  -0.34335     1 2pz   0.46308     2 1s    1.57954     2 2py  -0.34295
                                    2 2pz   0.46276     3 1s    1.44449     6 1s   -1.44391
   12.1     0.00000     0.31167     1 1s   -0.80824     1 2px   0.44788     1 2py  -0.97685     1 2pz   0.48577     2 1s   -0.80920
                                    2 2px  -0.44794     2 2py   0.97707     2 2pz  -0.48594     3 1s    1.59019     4 1s   -0.36560
                                    5 1s   -0.36556     6 1s    1.59113
   13.1     0.00000     0.34574     1 1s   -1.02159     1 2px   0.31441     1 2py   0.79356     1 2pz   0.34211     2 1s    1.02167
                                    2 2px   0.31441     2 2py   0.79373     2 2pz   0.34206     4 1s    1.77919     5 1s   -1.77938
   14.1     0.00000     0.42744     1 1s    2.10023     1 2px   1.80921     1 2py  -0.66407     1 2pz  -0.81492     2 1s   -2.10001
                                    2 2px   1.80931     2 2py  -0.66422     2 2pz  -0.81490     3 1s    0.64563     6 1s   -0.64598
   15.1     0.00000     0.70396     1 2px  -0.54817     1 2px   0.94797     2 2px   0.54816     2 2px  -0.94800     3 1s    0.25480
                                    4 1s   -0.46952     5 1s   -0.46947     6 1s    0.25493
   16.1     0.00000     0.75561     1 1s   -0.38991     1 2py  -0.37522     1 2px  -0.63518     1 2py   0.82397     2 1s    0.38958
                                    2 2py  -0.37520     2 2px  -0.63542     2 2py   0.82424     3 1s   -0.48028     4 1s    0.25428
                                    5 1s   -0.25423     6 1s    0.48030
   17.1     0.00000     0.78039     1 2py   0.57845     1 2py  -1.19591     2 2py  -0.57841     2 2py   1.19606     4 1s   -0.30530
                                    5 1s   -0.30534
   18.1     0.00000     0.79757     1 2pz  -0.72794     1 2pz   0.72429     2 2pz  -0.72790     2 2pz   0.72425
   19.1     0.00000     0.86647     1 1s   -0.36370     1 2pz  -0.68828     1 2px   0.47618     1 2py  -0.51684     1 2pz   0.96595
                                    2 1s   -0.36372     2 2pz   0.68826     2 2px  -0.47635     2 2py   0.51687     2 2pz  -0.96588
   20.1     0.00000     0.97189     1 2px   0.69559     1 2py   0.38513     1 2px  -1.06477     1 2py  -0.87546     2 2px   0.69550
                                    2 2py   0.38517     2 2px  -1.06478     2 2py  -0.87555     4 1s   -1.14931     5 1s    1.14949
   21.1     0.00000     1.11635     1 1s   -0.62535     1 1s    1.17030     1 2py   0.43248     1 2px  -0.31744     1 2py  -0.42973
                                    2 1s   -0.62548     2 1s    1.17091     2 2py  -0.43203     2 2px   0.31743     2 2py   0.42917
                                    4 1s    0.64961     4 1s   -1.20063     5 1s    0.64904     5 1s   -1.19982
   22.1     0.00000     1.14251     1 1s    0.31403     1 2px  -0.45843     1 2py   0.52691     1 2px   0.97728     1 2py  -0.92994
                                    2 1s   -0.31624     2 2px  -0.45794     2 2py   0.52676     2 2px   0.97670     2 2py  -0.92985
                                    3 1s   -0.58805     3 1s    1.33328     4 1s   -0.40903     5 1s    0.40985     6 1s    0.58717
                                    6 1s   -1.33183
   23.1     0.00000     1.17662     1 1s    1.35690     1 2py  -0.30440     1 2px   0.89044     1 2pz  -0.27840     2 1s   -1.35642
                                    2 2py  -0.30445     2 2px   0.89069     2 2pz  -0.27879     4 1s   -0.81293     4 1s    0.86992
                                    5 1s    0.81374     5 1s   -0.87050
   24.1     0.00000     1.19360     1 1s   -0.73068     1 1s    1.18274     1 2px   0.30581     1 2py  -0.29855     1 2px  -0.35264
                                    1 2py   0.32015     2 1s   -0.73001     2 1s    1.18109     2 2px  -0.30640     2 2py   0.29971
                                    2 2px   0.35356     2 2py  -0.32182     3 1s    0.72993     3 1s   -1.14160     6 1s    0.73042
                                    6 1s   -1.14286
   25.1     0.00000     1.26495     1 1s    1.62345     1 1s   -4.91019     1 2px  -1.05715     1 2py   0.77236     1 2pz   1.19587
                                    2 1s   -1.62919     2 1s    4.92086     2 2px  -1.05445     2 2py   0.76952     2 2pz   1.20059
                                    3 1s    0.55110     4 1s    0.89786     5 1s   -0.89979     6 1s   -0.55593
   26.1     0.00000     1.28448     1 1s   -1.16454     1 1s    2.17873     1 2px  -0.53581     1 2py   0.58324     1 2pz  -1.02757
                                    2 1s   -1.15696     2 1s    2.15476     2 2px   0.54145     2 2py  -0.58711     2 2pz   1.02150
                                    3 1s   -0.47760     3 1s   -0.90485     4 1s   -0.42579     4 1s   -0.39512     5 1s   -0.42512
                                    5 1s   -0.39138     6 1s   -0.47733     6 1s   -0.90268
   27.1     0.00000     1.71554     1 1s    0.64899     1 3d0   0.39277     1 3d2- -0.27789     1 3d2+ -0.31262     2 1s   -0.64884
                                    2 3d0  -0.39276     2 3d2-  0.27790     2 3d2+  0.31264
   28.1     0.00000     1.89765     1 1s    0.29381     1 1s   -0.64043     1 2pz   0.33820     1 3d0   0.34277     1 3d1+  0.33459
                                    1 3d2+  0.35384     1 3d1-  0.32778     2 1s    0.29352     2 1s   -0.63915     2 2pz  -0.33780
                                    2 3d0   0.34260     2 3d1+  0.33477     2 3d2+  0.35383     2 3d1-  0.32802     3 1s    0.27235
                                    6 1s    0.27239
   29.1     0.00000     1.96506     1 1s   -0.29045     1 1s    1.37861     1 2px   0.31122     1 2pz  -0.36724     1 3d2- -0.32322
                                    1 3d1+  0.38550     1 3d1-  0.39999     2 1s    0.29046     2 1s   -1.37878     2 2px   0.31113
                                    2 2pz  -0.36730     2 3d2-  0.32315     2 3d1+ -0.38527     2 3d1- -0.39982     3 1s   -0.33208
                                    6 1s    0.33219
   30.1     0.00000     2.16014     1 1s    0.30200     1 1s   -1.52774     1 2px  -0.33940     1 2py   0.28210     1 2pz   0.42062
                                    1 3d0   0.54417     1 3d2+  0.37754     2 1s   -0.30199     2 1s    1.52790     2 2px  -0.33929
                                    2 2py   0.28197     2 2pz   0.42071     2 3d0  -0.54418     2 3d2+ -0.37764     3 1s    0.34092
                                    4 1s    0.33305     5 1s   -0.33310     6 1s   -0.34107
   31.1     0.00000     2.25641     1 1s    0.50662     1 1s   -0.35969     1 2px   0.26267     1 2px  -0.27799     1 3d2-  0.32673
                                    1 3d1+  0.40726     1 3d2+ -0.37912     2 1s    0.50664     2 1s   -0.35990     2 2px  -0.26265
                                    2 2px   0.27810     2 3d2-  0.32667     2 3d1+  0.40730     2 3d2+ -0.37912
   32.1     0.00000     2.35390     1 2py   0.33415     1 3d0   0.53879     1 3d2- -0.35675     1 3d1- -0.34648     2 2py  -0.33430
                                    2 3d0   0.53884     2 3d2- -0.35674     2 3d1- -0.34643     3 1s   -0.26598     4 1s    0.38348
                                    5 1s    0.38354     6 1s   -0.26591
   33.1     0.00000     2.57276     1 2py  -0.28199     1 3d2-  0.46362     1 3d1-  0.60796     2 2py  -0.28209     2 3d2- -0.46338
                                    2 3d1- -0.60795     3 1s    0.49991     4 1s   -0.40391     5 1s    0.40402     6 1s   -0.49973
   34.1     0.00000     2.66814     1 2py   0.29484     1 3d2-  0.48417     1 3d2+  0.49929     1 3d1- -0.49600     2 2py  -0.29482
                                    2 3d2-  0.48434     2 3d2+  0.49928     2 3d1- -0.49581     4 1s    0.37031     5 1s    0.37024
   35.1     0.00000     2.74639     1 3d0  -0.40147     1 3d2- -0.43979     1 3d1+  0.49707     1 3d1- -0.33511     2 3d0  -0.40150
                                    2 3d2- -0.44004     2 3d1+  0.49723     2 3d1- -0.33537     3 1s   -0.47589     6 1s   -0.47628
   36.1     0.00000     2.96606     1 1s   -1.76332     1 2px  -0.44977     1 2px  -0.88805     1 2py   0.25583     1 2pz   0.45189
                                    1 3d2-  0.36134     1 3d1+  0.70237     1 3d2+ -0.64019     2 1s    1.76329     2 2px  -0.44978
                                    2 2px  -0.88804     2 2py   0.25580     2 2pz   0.45188     2 3d2- -0.36138     2 3d1+ -0.70231
                                    2 3d2+  0.64022


 HOMO      8.1    -0.369015 =     -10.0414eV
 LUMO      9.1     0.062621 =       1.7040eV
 LUMO-HOMO         0.431636 =      11.7454eV


 **********************************************************************************************************************************
 DATASETS  * FILE   NREC   LENGTH (MB)   RECORD NAMES
              1      19       31.13       500      610      700      900      950      970     1000      129      960     1100   
                                          VAR    BASINP    GEOM    SYMINP    ZMAT    AOBASIS   BASIS     P2S    ABASIS      S 
                                         1400     1410     1200     1210     1080     1600     1650     1300     1700   
                                           T        V       H0       H01     AOSYM     SMH    MOLCAS    ERIS     OPER   

              2       4        2.86       700     1000      520     2100   
                                         GEOM     BASIS   MCVARS     RHF  

 PROGRAMS   *        TOTAL    HF-SCF       INT
 CPU TIMES  *         0.48      0.15      0.22
 REAL TIME  *         0.97 SEC
 DISK USED  *        36.24 MB
 **********************************************************************************************************************************


 PROGRAM * MULTI (Direct Multiconfiguration SCF)       Authors: P.J. Knowles, H.-J. Werner (1984)


 Number of closed-shell orbitals:   7 (   7 )
 Number of active  orbitals:        2 (   2 )
 Number of external orbitals:      27 (  27 )

 State symmetry 1

 Number of electrons:     2    Spin symmetry=Singlet   Space symmetry=1
 Number of states:        3
 Number of CSFs:          3   (4 determinants, 4 intermediate states)

 Molecular orbitals read from record     2100.2  Type=RHF/CANONICAL (state 1.1)

 Wavefunction dump at record             2140.2

 Convergence thresholds  0.10E-01 (gradient)  0.10E-05 (energy)  0.10E-02 (step length)

 Weight factors for state symmetry  1:    0.33333   0.33333   0.33333

 Number of orbital rotations:      257   (    14 Core/Active    189 Core/Virtual   0 Active/Active     54 Active/Virtual)
 Total number of variables:        269

 Micro-Iterations solved by the two-step solver

 ITER. MIC  NCI  NEG     ENERGY(VAR)     ENERGY(PROJ)   ENERGY CHANGE     GRAD(0)  GRAD(ORB)   GRAD(CI)     STEP       TIME

   1    6    5    0     -77.69050566     -77.70944888   -0.01894322    0.16829508 0.00115067 0.00000000  0.14D+00      0.12
   2    5    5    0     -77.70914251     -77.70916005   -0.00001754    0.00614059 0.00000244 0.00000000  0.44D-02      0.21
   3    3    4    0     -77.70916007     -77.70916007   -0.00000000    0.00001106 0.00000000 0.00000000  0.16D-04      0.28

 ** WVFN ****  CONVERGENCE REACHED, FINAL GRADIENT:  0.11D-09



 Results for state 1.1
 =====================

 !MCSCF STATE  1.1 Energy             -77.819443058691
 Nuclear energy                        32.72308821
 Kinetic energy                        77.89029668
 One electron energy                 -168.55497358
 Two electron energy                   58.01244231
 Virial ratio                           1.99909034

 !MCSCF STATE  1.1 Dipole moment        0.00018479    -0.00000670    -0.00016422
 Dipole moment /Debye                   0.00046966    -0.00001704    -0.00041739

 Results for state 2.1
 =====================

 !MCSCF STATE  2.1 Energy             -77.735898549801
 Nuclear energy                        32.72308821
 Kinetic energy                        77.95619082
 One electron energy                 -168.26098835
 Two electron energy                   57.80200159
 Virial ratio                           1.99717415

 !MCSCF STATE  2.1 Dipole moment        0.00006010    -0.00003871    -0.00010103
 Dipole moment /Debye                   0.00015276    -0.00009837    -0.00025676

 Results for state 3.1
 =====================

 !MCSCF STATE  3.1 Energy             -77.572138613454
 Nuclear energy                        32.72308821
 Kinetic energy                        77.99987472
 One electron energy                 -168.00457327
 Two electron energy                   57.70934645
 Virial ratio                           1.99451619

 !MCSCF STATE  3.1 Dipole moment       -0.00003722    -0.00008475    -0.00007115
 Dipole moment /Debye                  -0.00009461    -0.00021541    -0.00018084

 State-averaged charge density matrix saved on record  2140.2 (density set 1)

 !MCSCF expec         <1.1|DMX|1.1>     0.000184789793 au =     0.000469658042 Debye
 !MCSCF trans         <2.1|DMX|1.1>    -0.000042888410 au =    -0.000109004325 Debye
 !MCSCF expec         <2.1|DMX|2.1>     0.000060103296 au =     0.000152757334 Debye
 !MCSCF trans         <3.1|DMX|1.1>     0.000017176060 au =     0.000043654331 Debye
 !MCSCF trans         <3.1|DMX|2.1>    -0.000058613798 au =    -0.000148971657 Debye
 !MCSCF expec         <3.1|DMX|3.1>    -0.000037223035 au =    -0.000094605321 Debye

 !MCSCF expec         <1.1|DMY|1.1>    -0.000006702616 au =    -0.000017035234 Debye
 !MCSCF trans         <2.1|DMY|1.1>     0.000026544858 au =     0.000067465879 Debye
 !MCSCF expec         <2.1|DMY|2.1>    -0.000038705859 au =    -0.000098374036 Debye
 !MCSCF trans         <3.1|DMY|1.1>     0.000002069214 au =     0.000005259072 Debye
 !MCSCF trans         <3.1|DMY|2.1>     0.000026044827 au =     0.000066195012 Debye
 !MCSCF expec         <3.1|DMY|3.1>    -0.000084754192 au =    -0.000215409558 Debye

 !MCSCF expec         <1.1|DMZ|1.1>    -0.000164222950 au =    -0.000417385765 Debye
 !MCSCF trans         <2.1|DMZ|1.1>     0.000056418881 au =     0.000143393099 Debye
 !MCSCF expec         <2.1|DMZ|2.1>    -0.000101025558 au =    -0.000256764538 Debye
 !MCSCF trans         <3.1|DMZ|1.1>    -0.000010866132 au =    -0.000027617145 Debye
 !MCSCF trans         <3.1|DMZ|2.1>     0.000067655042 au =     0.000171950702 Debye
 !MCSCF expec         <3.1|DMZ|3.1>    -0.000071151994 au =    -0.000180838486 Debye


 NATURAL ORBITALS (state averaged)
 =================================

  Orbital  Occupation    Energy     Coefficients
    1.1     2.00000   -11.25321     1 1s    0.70848     2 1s    0.70034
    2.1     2.00000   -11.25242     1 1s    0.70039     2 1s   -0.70854
    3.1     2.00000    -1.06398     1 1s    0.27702     2 1s    0.27704
    4.1     2.00000    -0.78597     1 1s   -0.31763     2 1s    0.31761
    5.1     2.00000    -0.63299     1 2py   0.30209     2 2py   0.30221
    6.1     2.00000    -0.56755     1 2px   0.26551     2 2px  -0.26551
    7.1     2.00000    -0.42429     1 2pz   0.32288     1 2pz   0.27509     2 2pz   0.32286     2 2pz   0.27509
    8.1     1.00000    -0.08780     1 1s    0.26983     1 2pz   0.40304     1 2pz   0.42872     2 1s    0.26982     2 2pz  -0.40307
                                    2 2pz  -0.42876
    9.1     1.00000    -0.21034     1 2px   0.30806     2 2px  -0.30806     4 1s   -0.30983     5 1s   -0.30980
   10.1    -0.00000     0.21696     1 1s   -1.10172     1 2px   0.43986     1 2py   0.39471     1 2pz   0.36158     2 1s   -1.10155
                                    2 2px  -0.43990     2 2py  -0.39467     2 2pz  -0.36142     3 1s    0.50132     4 1s    1.11210
                                    5 1s    1.11203     6 1s    0.50126
   11.1    -0.00000     0.27881     1 1s   -1.64012     1 2py  -0.29575     1 2pz   0.47386     2 1s    1.63997     2 2py  -0.29534
                                    2 2pz   0.47356     3 1s    1.43722     6 1s   -1.43664
   12.1    -0.00000     0.31390     1 1s   -0.85515     1 2px   0.44261     1 2py  -0.97329     1 2pz   0.45611     2 1s   -0.85632
                                    2 2px  -0.44270     2 2py   0.97333     2 2pz  -0.45635     3 1s    1.60285     4 1s   -0.33013
                                    5 1s   -0.32973     6 1s    1.60376
   13.1    -0.00000     0.33135     1 1s   -1.06809     1 2py   0.87210     1 2pz   0.36633     2 1s    1.06802     2 2py   0.87246
                                    2 2pz   0.36622     4 1s    1.79651     5 1s   -1.79678
   14.1    -0.00000     0.43354     1 1s    1.95616     1 2px   1.82383     1 2py  -0.54685     1 2pz  -0.75326     2 1s   -1.95594
                                    2 2px   1.82393     2 2py  -0.54699     2 2pz  -0.75325     3 1s    0.64533     6 1s   -0.64567
   15.1    -0.00000     0.70100     1 2px  -0.53427     1 2px   0.92504     2 2px   0.53426     2 2px  -0.92505     3 1s    0.25800
                                    4 1s   -0.52926     5 1s   -0.52920     6 1s    0.25812
   16.1    -0.00000     0.75231     1 1s   -0.51488     1 2py  -0.36343     1 2px  -0.69127     1 2py   0.84487     2 1s    0.51459
                                    2 2py  -0.36334     2 2px  -0.69147     2 2py   0.84496     3 1s   -0.47735     4 1s    0.26801
                                    5 1s   -0.26790     6 1s    0.47735
   17.1    -0.00000     0.77848     1 2py   0.55166     1 2py  -1.17712     1 2pz  -0.30442     2 2py  -0.55168     2 2py   1.17741
                                    2 2pz   0.30477     4 1s   -0.30696     5 1s   -0.30704
   18.1    -0.00000     0.79803     1 1s   -0.40525     1 2pz  -0.72338     1 2pz   0.78831     2 1s    0.40547     2 2pz  -0.72335
                                    2 2pz   0.78829
   19.1    -0.00000     0.86437     1 1s   -0.32110     1 2px  -0.25581     1 2pz  -0.66369     1 2px   0.51221     1 2py  -0.52343
                                    1 2pz   1.02206     2 1s   -0.32111     2 2px   0.25587     2 2pz   0.66363     2 2px  -0.51238
                                    2 2py   0.52347     2 2pz  -1.02195     3 1s    0.28088     6 1s    0.28093
   20.1    -0.00000     0.97715     1 2px   0.69007     1 2py   0.38826     1 2px  -0.96752     1 2py  -0.89777     2 2px   0.68998
                                    2 2py   0.38829     2 2px  -0.96753     2 2py  -0.89785     4 1s   -1.10984     5 1s    1.11003
   21.1    -0.00000     1.09206     1 1s   -0.62519     1 1s    1.15375     1 2px   0.25607     1 2py   0.44455     1 2px  -0.33312
                                    1 2py  -0.46106     2 1s   -0.62517     2 1s    1.15414     2 2px  -0.25613     2 2py  -0.44412
                                    2 2px   0.33288     2 2py   0.46058     4 1s    0.65422     4 1s   -1.17815     5 1s    0.65355
                                    5 1s   -1.17718
   22.1    -0.00000     1.13859     1 1s   -0.31185     1 2px  -0.27069     1 2py   0.60875     1 2py  -0.75843     2 1s    0.31059
                                    2 2px  -0.27016     2 2py   0.60886     2 2py  -0.75872     3 1s    0.77360     4 1s    0.65694
                                    4 1s   -0.99629     5 1s   -0.65759     5 1s    0.99715     6 1s   -0.77281
   23.1    -0.00000     1.15044     1 1s    0.97118     1 2px  -0.40607     1 2px   1.31788     1 2py  -0.56784     2 1s   -0.97259
                                    2 2px  -0.40601     2 2px   1.31758     2 2py  -0.56729     3 1s   -0.58630     3 1s    1.07896
                                    4 1s   -0.48425     4 1s    0.40228     5 1s    0.48468     5 1s   -0.40240     6 1s    0.58589
                                    6 1s   -1.07777
   24.1    -0.00000     1.19737     1 1s   -0.68366     1 1s    1.08260     1 2px   0.29067     1 2py  -0.31745     1 2px  -0.31435
                                    1 2py   0.32241     2 1s   -0.68227     2 1s    1.07785     2 2px  -0.29132     2 2py   0.31824
                                    2 2px   0.31655     2 2py  -0.32416     3 1s    0.74874     3 1s   -1.11432     6 1s    0.74942
                                    6 1s   -1.11542
   25.1    -0.00000     1.25610     1 1s    1.63858     1 1s   -5.00277     1 2px  -1.11958     1 2py   0.71842     1 2pz   1.19472
                                    2 1s   -1.64465     2 1s    5.01398     2 2px  -1.11676     2 2py   0.71543     2 2pz   1.19944
                                    3 1s    0.57550     4 1s    0.78468     5 1s   -0.78680     6 1s   -0.58074
   26.1    -0.00000     1.27619     1 1s   -1.20328     1 1s    2.24863     1 2px  -0.55026     1 2py   0.59875     1 2pz  -1.02949
                                    2 1s   -1.19578     2 1s    2.22484     2 2px   0.55599     2 2py  -0.60238     2 2pz   1.02356
                                    3 1s   -0.46595     3 1s   -0.93384     4 1s   -0.39975     4 1s   -0.43711     5 1s   -0.39894
                                    5 1s   -0.43374     6 1s   -0.46567     6 1s   -0.93165
   27.1    -0.00000     1.71097     1 1s    0.68480     1 3d0   0.38460     1 3d2- -0.28377     1 3d2+ -0.31585     2 1s   -0.68464
                                    2 3d0  -0.38459     2 3d2-  0.28378     2 3d2+  0.31586
   28.1    -0.00000     1.89468     1 1s    0.28411     1 1s   -0.62855     1 2pz   0.33200     1 3d0   0.34063     1 3d1+  0.33057
                                    1 3d2+  0.36008     1 3d1-  0.32705     2 1s    0.28383     2 1s   -0.62731     2 2pz  -0.33162
                                    2 3d0   0.34045     2 3d1+  0.33076     2 3d2+  0.36008     2 3d1-  0.32728     3 1s    0.26896
                                    6 1s    0.26902
   29.1    -0.00000     1.96122     1 1s   -0.28486     1 1s    1.35225     1 2px   0.30202     1 2pz  -0.36057     1 3d2- -0.32113
                                    1 3d1+  0.38837     1 3d1-  0.39853     2 1s    0.28486     2 1s   -1.35241     2 2px   0.30193
                                    2 2pz  -0.36063     2 3d2-  0.32105     2 3d1+ -0.38815     2 3d1- -0.39837     3 1s   -0.33523
                                    6 1s    0.33535
   30.1    -0.00000     2.15941     1 1s    0.30422     1 1s   -1.50869     1 2px  -0.33257     1 2py   0.28299     1 2pz   0.41316
                                    1 3d0   0.54853     1 3d2+  0.37981     2 1s   -0.30420     2 1s    1.50885     2 2px  -0.33245
                                    2 2py   0.28285     2 2pz   0.41325     2 3d0  -0.54853     2 3d2+ -0.37992     3 1s    0.33921
                                    4 1s    0.32604     5 1s   -0.32609     6 1s   -0.33936
   31.1    -0.00000     2.25156     1 1s    0.49850     1 1s   -0.36047     1 2px   0.26804     1 2px  -0.26911     1 3d2-  0.33888
                                    1 3d1+  0.41267     1 3d2+ -0.37650     2 1s    0.49853     2 1s   -0.36069     2 2px  -0.26802
                                    2 2px   0.26922     2 3d2-  0.33882     2 3d1+  0.41270     2 3d2+ -0.37648
   32.1    -0.00000     2.34880     1 2py   0.34632     1 3d0   0.53782     1 3d2- -0.35243     1 3d1- -0.35533     2 2py  -0.34647
                                    2 3d0   0.53787     2 3d2- -0.35241     2 3d1- -0.35529     3 1s   -0.27664     4 1s    0.37251
                                    5 1s    0.37258     6 1s   -0.27658
   33.1    -0.00000     2.56803     1 2py  -0.28355     1 3d2-  0.46589     1 3d1-  0.60894     2 2py  -0.28366     2 3d2- -0.46566
                                    2 3d1- -0.60895     3 1s    0.50284     4 1s   -0.39531     5 1s    0.39543     6 1s   -0.50267
   34.1    -0.00000     2.66029     1 2py   0.30302     1 3d2-  0.48198     1 3d2+  0.49719     1 3d1- -0.50255     2 2py  -0.30300
                                    2 3d2-  0.48215     2 3d2+  0.49718     2 3d1- -0.50235     4 1s    0.36651     5 1s    0.36645
   35.1    -0.00000     2.75118     1 3d0  -0.40916     1 3d2- -0.43551     1 3d1+  0.50265     1 3d1- -0.32868     2 3d0  -0.40919
                                    2 3d2- -0.43575     2 3d1+  0.50282     2 3d1- -0.32892     3 1s   -0.47488     6 1s   -0.47526
   36.1    -0.00000     2.96179     1 1s   -1.79066     1 2px  -0.44360     1 2px  -0.89909     1 2py   0.26323     1 2pz   0.45922
                                    1 3d2-  0.36008     1 3d1+  0.70496     1 3d2+ -0.63743     2 1s    1.79063     2 2px  -0.44361
                                    2 2px  -0.89908     2 2py   0.26320     2 2pz   0.45921     2 3d2- -0.36012     2 3d1+ -0.70491
                                    2 3d2+  0.63746


 Natural orbital dump (state averaged) at molpro section  2140.2    (Orbital set 2)



 **********************************************************************************************************************************
 DATASETS  * FILE   NREC   LENGTH (MB)   RECORD NAMES
              1      20       31.86       500      610      700      900      950      970     1000      129      960     1100   
                                          VAR    BASINP    GEOM    SYMINP    ZMAT    AOBASIS   BASIS     P2S    ABASIS      S 
                                         1400     1410     1200     1210     1080     1600     1650     1300     1700     1380   
                                           T        V       H0       H01     AOSYM     SMH    MOLCAS    ERIS     OPER     JKOP   

              2       5        5.42       700     1000      520     2100     2140   
                                         GEOM     BASIS   MCVARS     RHF     MCSCF   

 PROGRAMS   *        TOTAL     MULTI    HF-SCF       INT
 CPU TIMES  *         0.81      0.33      0.15      0.22
 REAL TIME  *         1.39 SEC
 DISK USED  *        39.05 MB
 **********************************************************************************************************************************
 Molecular orbitals read from record     2140.2  Type=MCSCF/NATURAL (state averaged)
 Occupation numbers read from record     2140.2  Type=MCSCF/NATURAL (state averaged)
 Orbital energies read from record       2140.2  Type=MCSCF/NATURAL (state averaged)
 Redundancy group numbers read from rec  2140.2  Type=MCSCF/NATURAL (state averaged)

 MULTI/6-31G* energy=    -77.572138613454

           MULTI          HF-SCF
    -77.57213861    -77.82549148
 **********************************************************************************************************************************
 Molpro calculation terminated
