
 Primary working directories    : /scratch.local/johan406.molpro_temp/molpro.lcef3qhWj4
 Secondary working directories  : /scratch.local/johan406.molpro_temp/molpro.lcef3qhWj4
 Wavefunction directory         : /home/goodpast/johan406/wfu/
 Main file repository           : /scratch.local/johan406.molpro_temp/molpro.lcef3qhWj4/

 id        : roweumn

 Nodes     nprocs
 acn09        1

 Using customized tuning parameters: mindgm=1; mindgv=20; mindgc=4; mindgr=1; noblas=0; minvec=7
 default implementation of scratch files=df  


 Variables initialized (934), CPU time= 0.00 sec
                                                                                 !leave this line blank
 
 gprint, orbitals=30
 memory, 125., m
 symmetry, nosym
 nelect=16
 basis=6-31g*
 
 geometry={
 C -0.6172 0.1447 0.2987
 C 0.6261 -0.1945 -0.359
 H -1.2776 0.8813 -0.1573
 H -0.8926 -0.8476 -0.1699
 H 0.9015 0.7977 0.1095
 H 1.2865 -0.9313 0.0968
 }
 
 hf
 {multi,
 closed 7
 occ 9
 wf,spin=0;STATE,3
 }
 
 Commands  initialized (763), CPU time= 0.02 sec, 617 directives.
 Default parameters read. Elapsed time= 0.09 sec

 Checking input...
 Passed
1


                                         ***  PROGRAM SYSTEM MOLPRO  ***
                                       Copyright, TTI GmbH Stuttgart, 2015
                                    Version 2019.2 linked Oct 25 2019 22:50:27


 **********************************************************************************************************************************
 LABEL *                                                                                 
  64 bit serial version                                                                  DATE: 07-Feb-23          TIME: 15:37:07  
 **********************************************************************************************************************************

 SHA1:             8dbd9ae1082e4ce945b0f27595c9eb2d4aa09004
 **********************************************************************************************************************************


 Variable memory set to  125000000 words,  buffer space 

 SETTING NELECT         =        16.00000000                                  
 SETTING BASIS          =    6-31G*
 ZSYMEL=NOSYM


Geometry recognized as XYZ



 Recomputing integrals since basis changed


 Using spherical harmonics

 Library entry C      S 6-31G                selected for orbital group  1
 Library entry C      P 6-31G                selected for orbital group  1
 Library entry C      D 6-31G*               selected for orbital group  1
 Library entry H      S 6-31G                selected for orbital group  2


 PROGRAM * SEWARD (Integral evaluation for generally contracted gaussian basis sets)     Author: Roland Lindh, 1990

 Geometry written to block  1 of record 700


 Point group  C1  



 ATOMIC COORDINATES

 NR  ATOM    CHARGE       X              Y              Z

   1  C       6.00   -1.166338964    0.273443370    0.564461193
   2  C       6.00    1.183157527   -0.367551731   -0.678411679
   3  H       1.00   -2.414314097    1.665415634   -0.297253919
   4  H       1.00   -1.686769539   -1.601731863   -0.321064469
   5  H       1.00    1.703588101    1.507434530    0.206925011
   6  H       1.00    2.431132659   -1.759901940    0.182925489

 Bond lengths in Bohr (Angstrom)

 1-2  2.734180216  1-3  2.058538717  1-4  2.138056556  2-5  2.137812554  2-6  2.058636139
     ( 1.446865861)     ( 1.089331777)     ( 1.131410805)     ( 1.131281685)     ( 1.089383330)

 Bond angles

  1-2-5   79.35769208   1-2-6  119.29407008   2-1-3  119.28728086   2-1-4   79.35537051

  3-1-4  105.78995039   5-2-6  105.80379215

 NUCLEAR CHARGE:                   16
 NUMBER OF PRIMITIVE AOS:          72
 NUMBER OF SYMMETRY AOS:           70
 NUMBER OF CONTRACTIONS:           36   (   36A   )
 NUMBER OF CORE ORBITALS:           2   (    2A   )
 NUMBER OF VALENCE ORBITALS:       12   (   12A   )


 NUCLEAR REPULSION ENERGY   32.77996159

 Eigenvalues of metric

         1 0.923E-02 0.259E-01 0.566E-01 0.611E-01 0.801E-01 0.213E+00 0.239E+00 0.266E+00


 Contracted 2-electron integrals neglected if value below      1.0D-11
 AO integral compression algorithm  1   Integral accuracy      1.0D-11

     1.573 MB (compressed) written to integral file ( 59.6%)


 NUMBER OF SORTED TWO-ELECTRON INTEGRALS:     222111.     BUFFER LENGTH:  32768
 NUMBER OF SEGMENTS:   1  SEGMENT LENGTH:     222111      RECORD LENGTH: 524288

 Memory used in sort:       0.78 MW

 SORT1 READ      284735. AND WROTE      212531. INTEGRALS IN      1 RECORDS. CPU TIME:     0.00 SEC, REAL TIME:     0.00 SEC
 SORT2 READ      212531. AND WROTE      222111. INTEGRALS IN      6 RECORDS. CPU TIME:     0.03 SEC, REAL TIME:     0.03 SEC

 FILE SIZES:   FILE 1:    31.7 MBYTE,  FILE 4:     4.2 MBYTE,   TOTAL:     35.9 MBYTE

 OPERATOR DM      FOR CENTER  0  COORDINATES:    0.000000    0.000000    0.000000


 **********************************************************************************************************************************
 DATASETS  * FILE   NREC   LENGTH (MB)   RECORD NAMES
              1      19       31.13       500      610      700      900      950      970     1000      129      960     1100   
                                          VAR    BASINP    GEOM    SYMINP    ZMAT    AOBASIS   BASIS     P2S    ABASIS      S 
                                         1400     1410     1200     1210     1080     1600     1650     1300     1700   
                                           T        V       H0       H01     AOSYM     SMH    MOLCAS    ERIS     OPER   

 PROGRAMS   *        TOTAL       INT
 CPU TIMES  *         0.31      0.19
 REAL TIME  *         0.74 SEC
 DISK USED  *        36.24 MB
 **********************************************************************************************************************************


 PROGRAM * RHF-SCF (CLOSED SHELL)       Authors: W. Meyer, H.-J. Werner


 NUMBER OF ELECTRONS:       8+    8-    SPACE SYMMETRY=1    SPIN SYMMETRY: Singlet 
 CONVERGENCE THRESHOLDS:    1.00E-05 (Density)    1.00E-07 (Energy)
 MAX. NUMBER OF ITERATIONS:       60
 INTERPOLATION TYPE:            DIIS
 INTERPOLATION STEPS:              2 (START)      1 (STEP)
 LEVEL SHIFTS:                  0.00 (CLOSED)  0.00 (OPEN) 



 Orbital guess generated from atomic densities. Full valence occupancy:    8

 Molecular orbital dump at record        2100.2

 Initial occupancy:   8

 ITERATION    DDIFF          GRAD             ENERGY        2-EL.EN.            DIPOLE MOMENTS         DIIS   ORB.
    1      0.000D+00      0.000D+00       -77.80109730    116.693458    0.00008   -0.00010   -0.00018    0    start
    2      0.000D+00      0.707D-02       -77.81884690    115.642596    0.00011    0.00002   -0.00011    1    diag
    3      0.799D-02      0.225D-02       -77.82083392    116.065306    0.00016   -0.00001   -0.00019    2    diag
    4      0.297D-02      0.810D-03       -77.82124437    115.936873    0.00015    0.00003   -0.00014    3    diag
    5      0.165D-02      0.274D-03       -77.82136269    115.944063    0.00019    0.00000   -0.00021    4    diag
    6      0.944D-03      0.132D-03       -77.82141132    115.946005    0.00011    0.00006   -0.00007    5    diag
    7      0.597D-03      0.643D-04       -77.82142576    115.948201    0.00031   -0.00008   -0.00038    6    diag
    8      0.404D-03      0.215D-04       -77.82142712    115.949265   -0.00005    0.00017    0.00017    7    diag
    9      0.141D-03      0.820D-05       -77.82142718    115.949348    0.00025   -0.00004   -0.00029    8    diag
   10      0.194D-04      0.353D-05       -77.82142719    115.949339    0.00017    0.00002   -0.00016    9    orth
   11      0.895D-05      0.707D-06       -77.82142719    115.949343    0.00018    0.00002   -0.00017    0    orth

 Final occupancy:   8

 !RHF STATE  1.1 Energy               -77.821427190321
 Nuclear energy                        32.77996159
 One-electron energy                 -168.57606051
 Two-electron energy                   57.97467173
 Virial quotient                       -0.99972750
 !RHF STATE  1.1 Dipole moment          0.00017547     0.00001544    -0.00017329
 Dipole moment /Debye                   0.00044598     0.00003925    -0.00044043

 ELECTRON ORBITALS
 =================

  Orbital  Occupation    Energy     Coefficients
    1.1     2.00000   -11.25687     1 1s    0.69828     2 1s    0.71052
    2.1     2.00000   -11.25596     1 1s    0.71062     2 1s   -0.69838
    3.1     2.00000    -1.05230     1 1s    0.28122     2 1s    0.28124
    4.1     2.00000    -0.78393     1 1s   -0.29536     2 1s    0.29535
    5.1     2.00000    -0.63093     1 2py   0.30893     2 2py   0.30909
    6.1     2.00000    -0.56928     1 2px   0.29913     2 2px  -0.29916
    7.1     2.00000    -0.39815     1 2pz   0.30784     1 2pz   0.28037     2 2pz   0.30781     2 2pz   0.28035
    8.1     2.00000    -0.36593     1 2px   0.27794     2 2px  -0.27794     4 1s   -0.30070     5 1s   -0.30063
    9.1     0.00000     0.06253     1 1s    0.39936     1 2pz   0.32878     1 2pz   0.46920     2 1s    0.39934     2 2pz  -0.32881
                                    2 2pz  -0.46927
   10.1     0.00000     0.22800     1 1s   -1.09008     1 2px   0.43501     1 2py   0.39050     1 2pz   0.41136     2 1s   -1.09035
                                    2 2px  -0.43502     2 2py  -0.39026     2 2pz  -0.41134     3 1s    0.51309     4 1s    1.11221
                                    5 1s    1.11205     6 1s    0.51341
   11.1     0.00000     0.27974     1 1s   -1.58089     1 2py  -0.34034     1 2pz   0.46296     2 1s    1.58069     2 2py  -0.34086
                                    2 2pz   0.46279     3 1s    1.44358     6 1s   -1.44376
   12.1     0.00000     0.31143     1 1s   -0.81842     1 2px   0.45581     1 2py  -0.97035     1 2pz   0.49125     2 1s   -0.81756
                                    2 2px  -0.45593     2 2py   0.97038     2 2pz  -0.49089     3 1s    1.59539     4 1s   -0.35541
                                    5 1s   -0.35546     6 1s    1.59492
   13.1     0.00000     0.34736     1 1s    1.01384     1 2px  -0.31963     1 2py  -0.79869     1 2pz  -0.34554     2 1s   -1.01431
                                    2 2px  -0.31972     2 2py  -0.79898     2 2pz  -0.34562     4 1s   -1.79226     5 1s    1.79290
   14.1     0.00000     0.42813     1 1s    2.11179     1 2px   1.81403     1 2py  -0.66884     1 2pz  -0.81919     2 1s   -2.11183
                                    2 2px   1.81403     2 2py  -0.66885     2 2pz  -0.81927     3 1s    0.64822     6 1s   -0.64822
   15.1     0.00000     0.70424     1 2px  -0.54808     1 2px   0.95164     2 2px   0.54806     2 2px  -0.95144     3 1s    0.25851
                                    4 1s   -0.47547     5 1s   -0.47532     6 1s    0.25850
   16.1     0.00000     0.75513     1 1s   -0.40279     1 2py  -0.37530     1 2px  -0.63599     1 2py   0.83027     2 1s    0.40297
                                    2 2py  -0.37503     2 2px  -0.63612     2 2py   0.82999     3 1s   -0.47888     4 1s    0.25673
                                    5 1s   -0.25649     6 1s    0.47887
   17.1     0.00000     0.77913     1 2py   0.57739     1 2py  -1.18896     2 2py  -0.57752     2 2py   1.18974     4 1s   -0.30900
                                    5 1s   -0.30936
   18.1     0.00000     0.79712     1 2pz  -0.72669     1 2pz   0.72647     2 2pz  -0.72642     2 2pz   0.72620
   19.1     0.00000     0.86673     1 1s   -0.36505     1 2pz  -0.68839     1 2px   0.47967     1 2py  -0.51319     1 2pz   0.96675
                                    2 1s   -0.36506     2 2pz   0.68833     2 2px  -0.48004     2 2py   0.51359     2 2pz  -0.96651
   20.1     0.00000     0.97098     1 2px   0.69179     1 2py   0.38546     1 2px  -1.04675     1 2py  -0.89069     2 2px   0.69166
                                    2 2py   0.38540     2 2px  -1.04672     2 2py  -0.89071     4 1s   -1.16162     5 1s    1.16193
   21.1     0.00000     1.11541     1 1s   -0.61662     1 1s    1.15792     1 2py   0.43711     1 2px  -0.30974     1 2py  -0.43662
                                    2 1s   -0.61666     2 1s    1.15848     2 2py  -0.43603     2 2px   0.30996     2 2py   0.43527
                                    4 1s    0.65011     4 1s   -1.20220     5 1s    0.64879     5 1s   -1.20029
   22.1     0.00000     1.14281     1 1s    0.39271     1 2px  -0.46693     1 2py   0.50610     1 2px   1.03317     1 2py  -0.92144
                                    2 1s   -0.39322     2 2px  -0.46696     2 2py   0.50688     2 2px   1.03303     2 2py  -0.92227
                                    3 1s   -0.59828     3 1s    1.33764     4 1s   -0.35615     5 1s    0.35745     6 1s    0.59931
                                    6 1s   -1.33871
   23.1     0.00000     1.17392     1 1s    1.56870     1 2py  -0.33183     1 2px   0.89312     1 2pz  -0.32364     2 1s   -1.56653
                                    2 2py  -0.33213     2 2px   0.89387     2 2pz  -0.32379     4 1s   -0.81181     4 1s    0.86045
                                    5 1s    0.81329     5 1s   -0.86213
   24.1     0.00000     1.19398     1 1s   -0.74558     1 1s    1.20884     1 2px   0.30849     1 2py  -0.29608     1 2px  -0.36226
                                    1 2py   0.32225     2 1s   -0.74587     2 1s    1.21240     2 2px  -0.30800     2 2py   0.29622
                                    2 2px   0.35951     2 2py  -0.32128     3 1s    0.72539     3 1s   -1.15000     6 1s    0.72433
                                    6 1s   -1.14842
   25.1     0.00000     1.26339     1 1s    1.61419     1 1s   -4.83799     1 2px  -1.02008     1 2py   0.77231     1 2pz   1.18320
                                    2 1s   -1.61870     2 1s    4.84651     2 2px  -1.01800     2 2py   0.77022     2 2pz   1.18701
                                    3 1s    0.55594     4 1s    0.93322     5 1s   -0.93523     6 1s   -0.55920
   26.1     0.00000     1.28845     1 1s   -1.16152     1 1s    2.18514     1 2px  -0.53880     1 2py   0.58973     1 2pz  -1.03335
                                    2 1s   -1.15523     2 1s    2.16476     2 2px   0.54344     2 2py  -0.59307     2 2pz   1.02812
                                    3 1s   -0.48710     3 1s   -0.90379     4 1s   -0.42473     4 1s   -0.40310     5 1s   -0.42399
                                    5 1s   -0.40010     6 1s   -0.48683     6 1s   -0.90171
   27.1     0.00000     1.71955     1 1s    0.64504     1 3d0   0.39945     1 3d2- -0.27418     1 3d2+ -0.31033     2 1s   -0.64503
                                    2 3d0  -0.39947     2 3d2-  0.27418     2 3d2+  0.31030
   28.1     0.00000     1.89397     1 1s    0.28933     1 1s   -0.63423     1 2pz   0.33511     1 3d0   0.34109     1 3d1+  0.33363
                                    1 3d2+  0.35529     1 3d1-  0.32897     2 1s    0.28907     2 1s   -0.63295     2 2pz  -0.33470
                                    2 3d0   0.34085     2 3d1+  0.33379     2 3d2+  0.35527     2 3d1-  0.32911     3 1s    0.27014
                                    6 1s    0.27013
   29.1     0.00000     1.96926     1 1s   -0.28655     1 1s    1.37480     1 2px   0.30839     1 2pz  -0.36790     1 3d2- -0.32599
                                    1 3d1+  0.38378     1 3d1-  0.40235     2 1s    0.28641     2 1s   -1.37463     2 2px   0.30839
                                    2 2pz  -0.36778     2 3d2-  0.32605     2 3d1+ -0.38361     2 3d1- -0.40212     3 1s   -0.33200
                                    6 1s    0.33201
   30.1     0.00000     2.15672     1 1s    0.29485     1 1s   -1.50684     1 2px  -0.33211     1 2py   0.28254     1 2pz   0.41669
                                    1 3d0   0.53983     1 3d2+  0.38126     2 1s   -0.29496     2 1s    1.50716     2 2px  -0.33201
                                    2 2py   0.28234     2 2pz   0.41685     2 3d0  -0.53990     2 3d2+ -0.38131     3 1s    0.33874
                                    4 1s    0.33362     5 1s   -0.33361     6 1s   -0.33896
   31.1     0.00000     2.25729     1 1s    0.50758     1 1s   -0.36492     1 2px   0.26265     1 2px  -0.27456     1 3d2-  0.33101
                                    1 3d1+  0.41026     1 3d2+ -0.37737     2 1s    0.50752     2 1s   -0.36472     2 2px  -0.26263
                                    2 2px   0.27457     2 3d2-  0.33086     2 3d1+  0.41028     2 3d2+ -0.37742
   32.1     0.00000     2.35489     1 2py   0.32957     1 3d0   0.54239     1 3d2- -0.35409     1 3d1- -0.34393     2 2py  -0.32984
                                    2 3d0   0.54246     2 3d2- -0.35399     2 3d1- -0.34395     3 1s   -0.26393     4 1s    0.38114
                                    5 1s    0.38134     6 1s   -0.26372
   33.1     0.00000     2.57045     1 2py  -0.27886     1 3d2-  0.46054     1 3d1-  0.60917     2 2py  -0.27892     2 3d2- -0.46079
                                    2 3d1- -0.60912     3 1s    0.50151     4 1s   -0.40228     5 1s    0.40248     6 1s   -0.50145
   34.1     0.00000     2.67099     1 2py   0.29098     1 3d2-  0.48897     1 3d2+  0.49589     1 3d1- -0.49492     2 2py  -0.29114
                                    2 3d2-  0.48894     2 3d2+  0.49593     2 3d1- -0.49504     4 1s    0.37076     5 1s    0.37093
   35.1     0.00000     2.75039     1 3d0  -0.40014     1 3d2- -0.43427     1 3d1+  0.49691     1 3d1- -0.34304     2 3d0  -0.40015
                                    2 3d2- -0.43416     2 3d1+  0.49697     2 3d1- -0.34303     3 1s   -0.47618     4 1s    0.25435
                                    5 1s    0.25439     6 1s   -0.47607
   36.1     0.00000     2.96699     1 1s   -1.77109     1 2px  -0.45209     1 2px  -0.89066     1 2py   0.25844     1 2pz   0.45405
                                    1 3d2-  0.36346     1 3d1+  0.70340     1 3d2+ -0.63936     2 1s    1.77107     2 2px  -0.45211
                                    2 2px  -0.89064     2 2py   0.25837     2 2pz   0.45403     2 3d2- -0.36354     2 3d1+ -0.70330
                                    2 3d2+  0.63943


 HOMO      8.1    -0.365929 =      -9.9574eV
 LUMO      9.1     0.062534 =       1.7016eV
 LUMO-HOMO         0.428462 =      11.6591eV


 **********************************************************************************************************************************
 DATASETS  * FILE   NREC   LENGTH (MB)   RECORD NAMES
              1      19       31.13       500      610      700      900      950      970     1000      129      960     1100   
                                          VAR    BASINP    GEOM    SYMINP    ZMAT    AOBASIS   BASIS     P2S    ABASIS      S 
                                         1400     1410     1200     1210     1080     1600     1650     1300     1700   
                                           T        V       H0       H01     AOSYM     SMH    MOLCAS    ERIS     OPER   

              2       4        2.86       700     1000      520     2100   
                                         GEOM     BASIS   MCVARS     RHF  

 PROGRAMS   *        TOTAL    HF-SCF       INT
 CPU TIMES  *         0.44      0.13      0.19
 REAL TIME  *         0.92 SEC
 DISK USED  *        36.24 MB
 **********************************************************************************************************************************


 PROGRAM * MULTI (Direct Multiconfiguration SCF)       Authors: P.J. Knowles, H.-J. Werner (1984)


 Number of closed-shell orbitals:   7 (   7 )
 Number of active  orbitals:        2 (   2 )
 Number of external orbitals:      27 (  27 )

 State symmetry 1

 Number of electrons:     2    Spin symmetry=Singlet   Space symmetry=1
 Number of states:        3
 Number of CSFs:          3   (4 determinants, 4 intermediate states)

 Molecular orbitals read from record     2100.2  Type=RHF/CANONICAL (state 1.1)

 Wavefunction dump at record             2140.2

 Convergence thresholds  0.10E-01 (gradient)  0.10E-05 (energy)  0.10E-02 (step length)

 Weight factors for state symmetry  1:    0.33333   0.33333   0.33333

 Number of orbital rotations:      257   (    14 Core/Active    189 Core/Virtual   0 Active/Active     54 Active/Virtual)
 Total number of variables:        269

 Micro-Iterations solved by the two-step solver

 ITER. MIC  NCI  NEG     ENERGY(VAR)     ENERGY(PROJ)   ENERGY CHANGE     GRAD(0)  GRAD(ORB)   GRAD(CI)     STEP       TIME

   1    6    5    0     -77.69004372     -77.70888617   -0.01884245    0.16830313 0.00105428 0.00000000  0.14D+00      0.12
   2    5    5    0     -77.70857916     -77.70859660   -0.00001744    0.00611826 0.00000232 0.00000000  0.44D-02      0.21
   3    3    4    0     -77.70859662     -77.70859662   -0.00000000    0.00001097 0.00000000 0.00000000  0.16D-04      0.28

 ** WVFN ****  CONVERGENCE REACHED, FINAL GRADIENT:  0.10D-09



 Results for state 1.1
 =====================

 !MCSCF STATE  1.1 Energy             -77.815454517942
 Nuclear energy                        32.77996159
 Kinetic energy                        77.90225343
 One electron energy                 -168.65789020
 Two electron energy                   58.06247410
 Virial ratio                           1.99888580

 !MCSCF STATE  1.1 Dipole moment        0.00022306     0.00004190    -0.00018670
 Dipole moment /Debye                   0.00056691     0.00010649    -0.00047452

 Results for state 2.1
 =====================

 !MCSCF STATE  2.1 Energy             -77.735134209663
 Nuclear energy                        32.77996159
 Kinetic energy                        77.96716604
 One electron energy                 -168.36669821
 Two electron energy                   57.85160241
 Virial ratio                           1.99702398

 !MCSCF STATE  2.1 Dipole moment        0.00002593    -0.00007246    -0.00012026
 Dipole moment /Debye                   0.00006591    -0.00018416    -0.00030564

 Results for state 3.1
 =====================

 !MCSCF STATE  3.1 Energy             -77.575201132443
 Nuclear energy                        32.77996159
 Kinetic energy                        78.00817428
 One electron energy                 -168.11121525
 Two electron energy                   57.75605253
 Virial ratio                           1.99444964

 !MCSCF STATE  3.1 Dipole moment       -0.00016762    -0.00019160    -0.00007993
 Dipole moment /Debye                  -0.00042602    -0.00048697    -0.00020315

 State-averaged charge density matrix saved on record  2140.2 (density set 1)

 !MCSCF expec         <1.1|DMX|1.1>     0.000223055715 au =     0.000566913943 Debye
 !MCSCF trans         <2.1|DMX|1.1>     0.000003612478 au =     0.000009181402 Debye
 !MCSCF expec         <2.1|DMX|2.1>     0.000025933925 au =     0.000065913144 Debye
 !MCSCF trans         <3.1|DMX|1.1>     0.000023518063 au =     0.000059773040 Debye
 !MCSCF trans         <3.1|DMX|2.1>    -0.000015315122 au =    -0.000038924608 Debye
 !MCSCF expec         <3.1|DMX|3.1>    -0.000167621527 au =    -0.000426023521 Debye

 !MCSCF expec         <1.1|DMY|1.1>     0.000041899818 au =     0.000106491740 Debye
 !MCSCF trans         <2.1|DMY|1.1>     0.000013804918 au =     0.000035086303 Debye
 !MCSCF expec         <2.1|DMY|2.1>    -0.000072458445 au =    -0.000184158935 Debye
 !MCSCF trans         <3.1|DMY|1.1>     0.000012895874 au =     0.000032775896 Debye
 !MCSCF trans         <3.1|DMY|2.1>     0.000003951911 au =     0.000010044097 Debye
 !MCSCF expec         <3.1|DMY|3.1>    -0.000191600155 au =    -0.000486967122 Debye

 !MCSCF expec         <1.1|DMZ|1.1>    -0.000186703567 au =    -0.000474522052 Debye
 !MCSCF trans         <2.1|DMZ|1.1>     0.000041359972 au =     0.000105119678 Debye
 !MCSCF expec         <2.1|DMZ|2.1>    -0.000120257346 au =    -0.000305643664 Debye
 !MCSCF trans         <3.1|DMZ|1.1>    -0.000010647076 au =    -0.000027060394 Debye
 !MCSCF trans         <3.1|DMZ|2.1>     0.000051840575 au =     0.000131756968 Debye
 !MCSCF expec         <3.1|DMZ|3.1>    -0.000079930503 au =    -0.000203149768 Debye


 NATURAL ORBITALS (state averaged)
 =================================

  Orbital  Occupation    Energy     Coefficients
    1.1     2.00000   -11.25303     1 1s    0.70640     2 1s    0.70243
    2.1     2.00000   -11.25223     1 1s    0.70249     2 1s   -0.70646
    3.1     2.00000    -1.06634     1 1s    0.27688     2 1s    0.27689
    4.1     2.00000    -0.78601     1 1s   -0.31763     2 1s    0.31763
    5.1     2.00000    -0.63434     1 2py   0.30207     2 2py   0.30219
    6.1     2.00000    -0.56874     1 2px   0.26649     2 2px  -0.26650
    7.1     2.00000    -0.42509     1 2pz   0.32250     1 2pz   0.27413     2 2pz   0.32247     2 2pz   0.27412
    8.1     1.00000    -0.08792     1 1s    0.27031     1 2pz   0.40270     1 2pz   0.42850     2 1s    0.27030     2 2pz  -0.40274
                                    2 2pz  -0.42855
    9.1     1.00000    -0.20689     1 2px   0.30765     2 2px  -0.30766     4 1s   -0.31248     5 1s   -0.31243
   10.1    -0.00000     0.21650     1 1s   -1.10077     1 2px   0.43308     1 2py   0.39652     1 2pz   0.35893     2 1s   -1.10082
                                    2 2px  -0.43308     2 2py  -0.39624     2 2pz  -0.35884     3 1s    0.49426     4 1s    1.11464
                                    5 1s    1.11436     6 1s    0.49446
   11.1    -0.00000     0.27838     1 1s   -1.63750     1 2py  -0.29513     1 2pz   0.47298     2 1s    1.63731     2 2py  -0.29544
                                    2 2pz   0.47277     3 1s    1.43674     6 1s   -1.43670
   12.1    -0.00000     0.31362     1 1s   -0.86381     1 2px   0.44949     1 2py  -0.96742     1 2pz   0.46065     2 1s   -0.86332
                                    2 2px  -0.44959     2 2py   0.96745     2 2pz  -0.46039     3 1s    1.60693     4 1s   -0.32111
                                    5 1s   -0.32108     6 1s    1.60671
   13.1    -0.00000     0.33321     1 1s    1.06620     1 2py  -0.87668     1 2pz  -0.37140     2 1s   -1.06673     2 2py  -0.87707
                                    2 2pz  -0.37150     4 1s   -1.81012     5 1s    1.81087
   14.1    -0.00000     0.43422     1 1s    1.96755     1 2px   1.82929     1 2py  -0.55013     1 2pz  -0.75711     2 1s   -1.96754
                                    2 2px   1.82930     2 2py  -0.55012     2 2pz  -0.75717     3 1s    0.64781     6 1s   -0.64782
   15.1    -0.00000     0.70143     1 2px  -0.53457     1 2px   0.92907     2 2px   0.53453     2 2px  -0.92881     3 1s    0.26221
                                    4 1s   -0.53565     5 1s   -0.53550     6 1s    0.26219
   16.1    -0.00000     0.75176     1 1s   -0.53056     1 2py  -0.36332     1 2px  -0.69336     1 2py   0.85195     2 1s    0.53086
                                    2 2py  -0.36285     2 2px  -0.69337     2 2py   0.85122     3 1s   -0.47602     4 1s    0.27030
                                    5 1s   -0.26991     6 1s    0.47594
   17.1    -0.00000     0.77705     1 2py   0.55037     1 2py  -1.17022     1 2pz  -0.30392     2 2py  -0.55060     2 2py   1.17130
                                    2 2pz   0.30525     4 1s   -0.31058     5 1s   -0.31100
   18.1    -0.00000     0.79770     1 1s   -0.41022     1 2pz  -0.72207     1 2pz   0.79024     2 1s    0.41060     2 2pz  -0.72180
                                    2 2pz   0.78987
   19.1    -0.00000     0.86460     1 1s   -0.32250     1 2px  -0.25632     1 2pz  -0.66381     1 2px   0.51554     1 2py  -0.51981
                                    1 2pz   1.02290     2 1s   -0.32252     2 2px   0.25645     2 2pz   0.66381     2 2px  -0.51592
                                    2 2py   0.52023     2 2pz  -1.02273     3 1s    0.28127     6 1s    0.28140
   20.1    -0.00000     0.97595     1 2px   0.68572     1 2py   0.38733     1 2px  -0.94600     1 2py  -0.91272     2 2px   0.68558
                                    2 2py   0.38726     2 2px  -0.94599     2 2py  -0.91273     4 1s   -1.12014     5 1s    1.12039
   21.1    -0.00000     1.09142     1 1s   -0.62051     1 1s    1.14818     1 2px   0.25180     1 2py   0.44853     1 2px  -0.32743
                                    1 2py  -0.46656     2 1s   -0.62032     2 1s    1.14869     2 2px  -0.25215     2 2py  -0.44737
                                    2 2px   0.32712     2 2py   0.46527     4 1s    0.65419     4 1s   -1.18115     5 1s    0.65247
                                    5 1s   -1.17872
   22.1    -0.00000     1.13993     1 1s    0.54541     1 2py  -0.59339     1 2py   0.68176     2 1s   -0.54352     2 2py  -0.59443
                                    2 2py   0.68301     3 1s   -0.67322     4 1s   -0.70178     4 1s    1.01874     5 1s    0.70338
                                    5 1s   -1.02114     6 1s    0.67335
   23.1    -0.00000     1.14828     1 1s    1.05156     1 2px  -0.43982     1 2px   1.36261     1 2py  -0.64799     2 1s   -1.05087
                                    2 2px  -0.44033     2 2px   1.36286     2 2py  -0.64790     3 1s   -0.60432     3 1s    1.13775
                                    4 1s   -0.41077     4 1s    0.29200     5 1s    0.41137     5 1s   -0.29244     6 1s    0.60542
                                    6 1s   -1.13862
   24.1    -0.00000     1.19759     1 1s   -0.69995     1 1s    1.11082     1 2px   0.29301     1 2py  -0.31609     1 2px  -0.32438
                                    1 2py   0.32618     2 1s   -0.69955     2 1s    1.11119     2 2px  -0.29263     2 2py   0.31596
                                    2 2px   0.32307     2 2py  -0.32551     3 1s    0.74407     3 1s   -1.12463     6 1s    0.74334
                                    6 1s   -1.12318
   25.1    -0.00000     1.25368     1 1s    1.63754     1 1s   -4.96199     1 2px  -1.09289     1 2py   0.71739     1 2pz   1.18851
                                    2 1s   -1.64203     2 1s    4.97041     2 2px  -1.09084     2 2py   0.71531     2 2pz   1.19208
                                    3 1s    0.58503     4 1s    0.81196     5 1s   -0.81398     6 1s   -0.58839
   26.1    -0.00000     1.28034     1 1s   -1.19782     1 1s    2.25076     1 2px  -0.55233     1 2py   0.60517     1 2pz  -1.03493
                                    2 1s   -1.19198     2 1s    2.23176     2 2px   0.55674     2 2py  -0.60813     2 2pz   1.03011
                                    3 1s   -0.47652     3 1s   -0.93079     4 1s   -0.39986     4 1s   -0.44310     5 1s   -0.39908
                                    5 1s   -0.44054     6 1s   -0.47627     6 1s   -0.92881
   27.1    -0.00000     1.71515     1 1s    0.68208     1 3d0   0.39105     1 3d2- -0.28037     1 3d2+ -0.31379     2 1s   -0.68207
                                    2 3d0  -0.39107     2 3d2-  0.28037     2 3d2+  0.31375
   28.1    -0.00000     1.89100     1 1s    0.27965     1 1s   -0.62223     1 2pz   0.32884     1 3d0   0.33897     1 3d1+  0.32968
                                    1 3d2+  0.36142     1 3d1-  0.32828     2 1s    0.27942     2 1s   -0.62107     2 2pz  -0.32846
                                    2 3d0   0.33871     2 3d1+  0.32980     2 3d2+  0.36138     2 3d1-  0.32837     3 1s    0.26672
                                    6 1s    0.26672
   29.1    -0.00000     1.96531     1 1s   -0.28133     1 1s    1.35006     1 2px   0.29956     1 2pz  -0.36180     1 3d2- -0.32411
                                    1 3d1+  0.38654     1 3d1-  0.40087     2 1s    0.28117     2 1s   -1.34984     2 2px   0.29957
                                    2 2pz  -0.36165     2 3d2-  0.32417     2 3d1+ -0.38639     2 3d1- -0.40066     3 1s   -0.33555
                                    6 1s    0.33554
   30.1    -0.00000     2.15587     1 1s    0.29680     1 1s   -1.48632     1 2px  -0.32500     1 2py   0.28313     1 2pz   0.40887
                                    1 3d0   0.54441     1 3d2+  0.38352     2 1s   -0.29691     2 1s    1.48666     2 2px  -0.32488
                                    2 2py   0.28290     2 2pz   0.40904     2 3d0  -0.54446     2 3d2+ -0.38359     3 1s    0.33682
                                    4 1s    0.32624     5 1s   -0.32623     6 1s   -0.33705
   31.1    -0.00000     2.25244     1 1s    0.49912     1 1s   -0.36521     1 2px   0.26789     1 2px  -0.26571     1 3d2-  0.34277
                                    1 3d1+  0.41515     1 3d2+ -0.37461     2 1s    0.49907     2 1s   -0.36495     2 2px  -0.26788
                                    2 2px   0.26569     2 3d2-  0.34262     2 3d1+  0.41517     2 3d2+ -0.37464
   32.1    -0.00000     2.34996     1 2px  -0.25321     1 2py   0.34107     1 3d0   0.54116     1 3d2- -0.35011     1 3d1- -0.35204
                                    2 2px   0.25353     2 2py  -0.34135     2 3d0   0.54125     2 3d2- -0.35000     2 3d1- -0.35205
                                    3 1s   -0.27417     4 1s    0.37031     5 1s    0.37050     6 1s   -0.27393
   33.1    -0.00000     2.56586     1 2py  -0.28067     1 3d2-  0.46270     1 3d1-  0.61019     2 2py  -0.28073     2 3d2- -0.46296
                                    2 3d1- -0.61013     3 1s    0.50434     4 1s   -0.39382     5 1s    0.39401     6 1s   -0.50428
   34.1    -0.00000     2.66327     1 2py   0.29928     1 3d2-  0.48625     1 3d2+  0.49404     1 3d1- -0.50182     2 2py  -0.29946
                                    2 3d2-  0.48621     2 3d2+  0.49408     2 3d1- -0.50196     4 1s    0.36751     5 1s    0.36771
   35.1    -0.00000     2.75519     1 3d0  -0.40784     1 3d2- -0.43046     1 3d1+  0.50259     1 3d1- -0.33631     2 3d0  -0.40785
                                    2 3d2- -0.43037     2 3d1+  0.50267     2 3d1- -0.33632     3 1s   -0.47527     6 1s   -0.47519
   36.1    -0.00000     2.96277     1 1s   -1.79789     1 2px  -0.44594     1 2px  -0.90148     1 2py   0.26572     1 2pz   0.46124
                                    1 3d2-  0.36236     1 3d1+  0.70593     1 3d2+ -0.63660     2 1s    1.79787     2 2px  -0.44595
                                    2 2px  -0.90146     2 2py   0.26565     2 2pz   0.46123     2 3d2- -0.36245     2 3d1+ -0.70584
                                    2 3d2+  0.63668


 Natural orbital dump (state averaged) at molpro section  2140.2    (Orbital set 2)



 **********************************************************************************************************************************
 DATASETS  * FILE   NREC   LENGTH (MB)   RECORD NAMES
              1      20       31.86       500      610      700      900      950      970     1000      129      960     1100   
                                          VAR    BASINP    GEOM    SYMINP    ZMAT    AOBASIS   BASIS     P2S    ABASIS      S 
                                         1400     1410     1200     1210     1080     1600     1650     1300     1700     1380   
                                           T        V       H0       H01     AOSYM     SMH    MOLCAS    ERIS     OPER     JKOP   

              2       5        5.42       700     1000      520     2100     2140   
                                         GEOM     BASIS   MCVARS     RHF     MCSCF   

 PROGRAMS   *        TOTAL     MULTI    HF-SCF       INT
 CPU TIMES  *         0.77      0.33      0.13      0.19
 REAL TIME  *         1.36 SEC
 DISK USED  *        39.05 MB
 **********************************************************************************************************************************
 Molecular orbitals read from record     2140.2  Type=MCSCF/NATURAL (state averaged)
 Occupation numbers read from record     2140.2  Type=MCSCF/NATURAL (state averaged)
 Orbital energies read from record       2140.2  Type=MCSCF/NATURAL (state averaged)
 Redundancy group numbers read from rec  2140.2  Type=MCSCF/NATURAL (state averaged)

 MULTI/6-31G* energy=    -77.575201132443

           MULTI          HF-SCF
    -77.57520113    -77.82142719
 **********************************************************************************************************************************
 Molpro calculation terminated
