
 Primary working directories    : /scratch.local/johan406.molpro_temp/molpro.7ZIwGywoeJ
 Secondary working directories  : /scratch.local/johan406.molpro_temp/molpro.7ZIwGywoeJ
 Wavefunction directory         : /home/goodpast/johan406/wfu/
 Main file repository           : /scratch.local/johan406.molpro_temp/molpro.7ZIwGywoeJ/

 id        : roweumn

 Nodes     nprocs
 acn09        1

 Using customized tuning parameters: mindgm=1; mindgv=20; mindgc=4; mindgr=1; noblas=0; minvec=7
 default implementation of scratch files=df  


 Variables initialized (934), CPU time= 0.01 sec
                                                                                 !leave this line blank
 
 gprint, orbitals=30
 memory, 125., m
 symmetry, nosym
 nelect=16
 basis=6-31g*
 
 geometry={
 C -0.605 0.1538 0.2987
 C 0.6139 -0.2037 -0.359
 H -1.2912 0.8616 -0.1603
 H -0.8014 -0.8233 -0.2125
 H 0.8103 0.7734 0.1521
 H 1.3001 -0.9115 0.0999
 }
 
 hf
 {multi,
 closed 7
 occ 9
 wf,spin=0;STATE,3
 }
 
 Commands  initialized (763), CPU time= 0.01 sec, 617 directives.
 Default parameters read. Elapsed time= 0.08 sec

 Checking input...
 Passed
1


                                         ***  PROGRAM SYSTEM MOLPRO  ***
                                       Copyright, TTI GmbH Stuttgart, 2015
                                    Version 2019.2 linked Oct 25 2019 22:50:27


 **********************************************************************************************************************************
 LABEL *                                                                                 
  64 bit serial version                                                                  DATE: 07-Feb-23          TIME: 15:40:20  
 **********************************************************************************************************************************

 SHA1:             8dbd9ae1082e4ce945b0f27595c9eb2d4aa09004
 **********************************************************************************************************************************


 Variable memory set to  125000000 words,  buffer space 

 SETTING NELECT         =        16.00000000                                  
 SETTING BASIS          =    6-31G*
 ZSYMEL=NOSYM


Geometry recognized as XYZ



 Recomputing integrals since basis changed


 Using spherical harmonics

 Library entry C      S 6-31G                selected for orbital group  1
 Library entry C      P 6-31G                selected for orbital group  1
 Library entry C      D 6-31G*               selected for orbital group  1
 Library entry H      S 6-31G                selected for orbital group  2


 PROGRAM * SEWARD (Integral evaluation for generally contracted gaussian basis sets)     Author: Roland Lindh, 1990

 Geometry written to block  1 of record 700


 Point group  C1  



 ATOMIC COORDINATES

 NR  ATOM    CHARGE       X              Y              Z

   1  C       6.00   -1.143284305    0.290639878    0.564461193
   2  C       6.00    1.160102868   -0.384937212   -0.678411679
   3  H       1.00   -2.440014372    1.628188029   -0.302923098
   4  H       1.00   -1.514426516   -1.555811518   -0.401566801
   5  H       1.00    1.531245079    1.461514185    0.287427344
   6  H       1.00    2.456832935   -1.722485363    0.188783640

 Bond lengths in Bohr (Angstrom)

 1-2  2.703096345  1-3  2.054969448  1-4  2.116681220  2-5  2.116594982  2-6  2.054889691
     ( 1.430416985)     ( 1.087443001)     ( 1.120099464)     ( 1.120053829)     ( 1.087400795)

 Bond angles

  1-2-5   73.83396695   1-2-6  120.42245517   2-1-3  120.41834002   2-1-4   73.83219484

  3-1-4  105.33764367   5-2-6  105.34362617

 NUCLEAR CHARGE:                   16
 NUMBER OF PRIMITIVE AOS:          72
 NUMBER OF SYMMETRY AOS:           70
 NUMBER OF CONTRACTIONS:           36   (   36A   )
 NUMBER OF CORE ORBITALS:           2   (    2A   )
 NUMBER OF VALENCE ORBITALS:       12   (   12A   )


 NUCLEAR REPULSION ENERGY   33.31499295

 Eigenvalues of metric

         1 0.938E-02 0.241E-01 0.504E-01 0.596E-01 0.791E-01 0.208E+00 0.242E+00 0.256E+00


 Contracted 2-electron integrals neglected if value below      1.0D-11
 AO integral compression algorithm  1   Integral accuracy      1.0D-11

     1.573 MB (compressed) written to integral file ( 60.2%)


 NUMBER OF SORTED TWO-ELECTRON INTEGRALS:     222111.     BUFFER LENGTH:  32768
 NUMBER OF SEGMENTS:   1  SEGMENT LENGTH:     222111      RECORD LENGTH: 524288

 Memory used in sort:       0.78 MW

 SORT1 READ      284735. AND WROTE      212532. INTEGRALS IN      1 RECORDS. CPU TIME:     0.00 SEC, REAL TIME:     0.01 SEC
 SORT2 READ      212532. AND WROTE      222111. INTEGRALS IN      6 RECORDS. CPU TIME:     0.03 SEC, REAL TIME:     0.03 SEC

 FILE SIZES:   FILE 1:    31.7 MBYTE,  FILE 4:     4.2 MBYTE,   TOTAL:     35.9 MBYTE

 OPERATOR DM      FOR CENTER  0  COORDINATES:    0.000000    0.000000    0.000000


 **********************************************************************************************************************************
 DATASETS  * FILE   NREC   LENGTH (MB)   RECORD NAMES
              1      19       31.14       500      610      700      900      950      970     1000      129      960     1100   
                                          VAR    BASINP    GEOM    SYMINP    ZMAT    AOBASIS   BASIS     P2S    ABASIS      S 
                                         1400     1410     1200     1210     1080     1600     1650     1300     1700   
                                           T        V       H0       H01     AOSYM     SMH    MOLCAS    ERIS     OPER   

 PROGRAMS   *        TOTAL       INT
 CPU TIMES  *         0.32      0.22
 REAL TIME  *         0.51 SEC
 DISK USED  *        36.24 MB
 **********************************************************************************************************************************


 PROGRAM * RHF-SCF (CLOSED SHELL)       Authors: W. Meyer, H.-J. Werner


 NUMBER OF ELECTRONS:       8+    8-    SPACE SYMMETRY=1    SPIN SYMMETRY: Singlet 
 CONVERGENCE THRESHOLDS:    1.00E-05 (Density)    1.00E-07 (Energy)
 MAX. NUMBER OF ITERATIONS:       60
 INTERPOLATION TYPE:            DIIS
 INTERPOLATION STEPS:              2 (START)      1 (STEP)
 LEVEL SHIFTS:                  0.00 (CLOSED)  0.00 (OPEN) 



 Orbital guess generated from atomic densities. Full valence occupancy:    8

 Molecular orbital dump at record        2100.2

 Initial occupancy:   8

 ITERATION    DDIFF          GRAD             ENERGY        2-EL.EN.            DIPOLE MOMENTS         DIIS   ORB.
    1      0.000D+00      0.000D+00       -77.75880748    117.611421    0.00005    0.00001   -0.00012    0    start
    2      0.000D+00      0.711D-02       -77.77628610    116.543255    0.00008    0.00002   -0.00008    1    diag
    3      0.890D-02      0.220D-02       -77.77811128    116.964126    0.00010    0.00001   -0.00010    2    diag
    4      0.305D-02      0.766D-03       -77.77844039    116.832869    0.00010    0.00002   -0.00009    3    diag
    5      0.173D-02      0.217D-03       -77.77849489    116.838879    0.00011    0.00001   -0.00011    4    diag
    6      0.822D-03      0.847D-04       -77.77850876    116.839002    0.00010    0.00002   -0.00008    5    diag
    7      0.314D-03      0.543D-04       -77.77851934    116.840431    0.00013   -0.00000   -0.00013    6    diag
    8      0.301D-03      0.333D-04       -77.77852534    116.843329    0.00002    0.00008    0.00004    7    diag
    9      0.376D-03      0.828D-05       -77.77852557    116.843819    0.00022   -0.00007   -0.00028    8    diag
   10      0.739D-04      0.383D-05       -77.77852558    116.843884    0.00009    0.00003   -0.00007    9    orth
   11      0.109D-04      0.102D-05       -77.77852558    116.843906    0.00011    0.00001   -0.00010    9    diag
   12      0.404D-05      0.240D-06       -77.77852558    116.843905    0.00011    0.00001   -0.00010    0    orth

 Final occupancy:   8

 !RHF STATE  1.1 Energy               -77.778525584314
 Nuclear energy                        33.31499295
 One-electron energy                 -169.51547126
 Two-electron energy                   58.42195272
 Virial quotient                       -0.99796214
 !RHF STATE  1.1 Dipole moment          0.00010724     0.00001418    -0.00009673
 Dipole moment /Debye                   0.00027256     0.00003603    -0.00024585

 ELECTRON ORBITALS
 =================

  Orbital  Occupation    Energy     Coefficients
    1.1     2.00000   -11.25459     1 1s    0.70350     2 1s    0.70531
    2.1     2.00000   -11.25359     1 1s    0.70539     2 1s   -0.70359
    3.1     2.00000    -1.07660     1 1s    0.27839     2 1s    0.27841
    4.1     2.00000    -0.78214     1 1s   -0.30135     2 1s    0.30134
    5.1     2.00000    -0.64512     1 2py   0.30808     2 2py   0.30816
    6.1     2.00000    -0.57975     1 2px   0.30048     2 2px  -0.30049
    7.1     2.00000    -0.40901     1 1s    0.25149     1 2pz   0.30651     1 2pz   0.27056     2 1s   -0.25144     2 2pz   0.30652
                                    2 2pz   0.27058
    8.1     2.00000    -0.33498     1 2px   0.27830     2 2px  -0.27830     4 1s   -0.32277     5 1s   -0.32274
    9.1     0.00000     0.06230     1 1s    0.40624     1 2pz   0.32270     1 2pz   0.46496     2 1s    0.40623     2 2pz  -0.32271
                                    2 2pz  -0.46500
   10.1     0.00000     0.22000     1 1s   -1.06936     1 2px   0.35651     1 2py   0.41691     1 2pz   0.36930     2 1s   -1.06938
                                    2 2px  -0.35652     2 2py  -0.41690     2 2pz  -0.36921     3 1s    0.41598     4 1s    1.14340
                                    5 1s    1.14339     6 1s    0.41599
   11.1     0.00000     0.27605     1 1s   -1.58954     1 2py  -0.31566     1 2pz   0.46104     2 1s    1.58946     2 2py  -0.31554
                                    2 2pz   0.46089     3 1s    1.44035     6 1s   -1.44012
   12.1     0.00000     0.30926     1 1s   -0.91051     1 2px   0.53101     1 2py  -0.90181     1 2pz   0.54111     2 1s   -0.91088
                                    2 2px  -0.53109     2 2py   0.90189     2 2pz  -0.54118     3 1s    1.63668     4 1s   -0.25527
                                    5 1s   -0.25521     6 1s    1.63709
   13.1     0.00000     0.36166     1 1s   -0.91045     1 2px   0.37281     1 2py   0.84518     1 2pz   0.37737     2 1s    0.91055
                                    2 2px   0.37280     2 2py   0.84534     2 2pz   0.37733     4 1s    1.92134     5 1s   -1.92154
   14.1     0.00000     0.43553     1 1s    2.22137     1 2px   1.86243     1 2py  -0.70927     1 2pz  -0.85882     2 1s   -2.22127
                                    2 2px   1.86250     2 2py  -0.70932     2 2pz  -0.85882     3 1s    0.66673     6 1s   -0.66690
   15.1     0.00000     0.70630     1 2px  -0.54523     1 2pz   0.27124     1 2px   0.98842     2 2px   0.54524     2 2pz  -0.27126
                                    2 2px  -0.98843     3 1s    0.28582     4 1s   -0.51108     5 1s   -0.51102     6 1s    0.28590
   16.1     0.00000     0.74919     1 1s   -0.52952     1 2py  -0.37459     1 2px  -0.60766     1 2py   0.89993     1 2pz   0.26243
                                    2 1s    0.52934     2 2py  -0.37477     2 2px  -0.60781     2 2py   0.90047     2 2pz   0.26247
                                    3 1s   -0.45383     4 1s    0.29163     5 1s   -0.29171     6 1s    0.45388
   17.1     0.00000     0.77050     1 2py  -0.57517     1 2py   1.12102     2 2py   0.57503     2 2py  -1.12087     4 1s    0.35059
                                    5 1s    0.35054
   18.1     0.00000     0.79114     1 1s   -0.25498     1 2pz  -0.70442     1 2px   0.25898     1 2pz   0.73974     2 1s    0.25515
                                    2 2pz  -0.70443     2 2px   0.25908     2 2pz   0.73977
   19.1     0.00000     0.86839     1 1s   -0.37382     1 2px  -0.25714     1 2pz  -0.68964     1 2px   0.51833     1 2py  -0.46888
                                    1 2pz   0.97494     2 1s   -0.37382     2 2px   0.25717     2 2pz   0.68959     2 2px  -0.51845
                                    2 2py   0.46890     2 2pz  -0.97485
   20.1     0.00000     0.95110     1 1s   -0.50654     1 2px  -0.64365     1 2py  -0.34946     1 2px   0.81967     1 2py   0.98574
                                    2 1s    0.50686     2 2px  -0.64360     2 2py  -0.34947     2 2px   0.81968     2 2py   0.98580
                                    4 1s    1.18872     5 1s   -1.18892
   21.1     0.00000     1.09893     1 1s   -0.53093     1 1s    1.02416     1 2py   0.46961     1 2py  -0.49983     2 1s   -0.53133
                                    2 1s    1.02581     2 2py  -0.46924     2 2py   0.49957     4 1s    0.65669     4 1s   -1.20638
                                    5 1s    0.65605     5 1s   -1.20544
   22.1     0.00000     1.12658     1 1s   -0.46957     1 1s    2.32570     1 2px  -0.40735     1 2px   1.62169     1 2py  -0.39614
                                    1 2pz  -0.48369     2 1s    0.46952     2 1s   -2.32557     2 2px  -0.40747     2 2px   1.62171
                                    2 2py  -0.39565     2 2pz  -0.48386     3 1s   -0.45703     3 1s    0.64968     4 1s   -0.55580
                                    4 1s    0.59459     5 1s    0.55633     5 1s   -0.59528     6 1s    0.45691     6 1s   -0.64927
   23.1     0.00000     1.15245     1 1s    0.47283     1 1s   -1.20566     1 2px  -0.35579     1 2py   0.59200     1 2px   0.25034
                                    1 2py  -0.73590     2 1s   -0.47209     2 1s    1.20444     2 2px  -0.35547     2 2py   0.59210
                                    2 2px   0.25003     2 2py  -0.73606     3 1s   -0.41022     3 1s    1.19060     4 1s    0.43708
                                    4 1s   -0.67178     5 1s   -0.43751     5 1s    0.67252     6 1s    0.40978     6 1s   -1.19000
   24.1     0.00000     1.19763     1 1s   -0.85436     1 1s    1.42261     1 2px   0.32540     1 2py  -0.26911     1 2px  -0.41528
                                    1 2py   0.32325     1 2pz  -0.31575     2 1s   -0.85432     2 1s    1.42231     2 2px  -0.32573
                                    2 2py   0.26958     2 2px   0.41586     2 2py  -0.32396     2 2pz   0.31555     3 1s    0.68379
                                    3 1s   -1.19356     4 1s   -0.25647     5 1s   -0.25587     6 1s    0.68412     6 1s   -1.19437
   25.1     0.00000     1.26247     1 1s    1.48417     1 1s   -4.27582     1 2pz  -0.27653     1 2px  -0.83283     1 2py   0.80137
                                    1 2pz   1.09496     2 1s   -1.48506     2 1s    4.27758     2 2pz  -0.27664     2 2px  -0.83238
                                    2 2py   0.80103     2 2pz   1.09561     3 1s    0.50082     4 1s   -0.28364     4 1s    1.10584
                                    5 1s    0.28353     5 1s   -1.10637     6 1s   -0.50157
   26.1     0.00000     1.32267     1 1s   -1.15308     1 1s    2.28800     1 2px  -0.57295     1 2py   0.64869     1 2pz  -1.09455
                                    2 1s   -1.15208     2 1s    2.28481     2 2px   0.57372     2 2py  -0.64931     2 2pz   1.09360
                                    3 1s   -0.56342     3 1s   -0.91317     4 1s   -0.40977     4 1s   -0.49521     5 1s   -0.40971
                                    5 1s   -0.49461     6 1s   -0.56334     6 1s   -0.91297
   27.1     0.00000     1.76534     1 1s    0.45036     1 3d0   0.46040     1 3d2+ -0.28297     2 1s   -0.45013     2 3d0  -0.46040
                                    2 3d2+  0.28296
   28.1     0.00000     1.85768     1 1s   -0.54310     1 2pz   0.28789     1 3d0   0.32971     1 3d1+  0.32788     1 3d2+  0.36845
                                    1 3d1-  0.33353     2 1s   -0.54272     2 2pz  -0.28776     2 3d0   0.32961     2 3d1+  0.32797
                                    2 3d2+  0.36841     2 3d1-  0.33367
   29.1     0.00000     2.01264     1 1s    1.25575     1 2px   0.25910     1 2py  -0.25816     1 2pz  -0.35331     1 3d2- -0.34729
                                    1 3d1+  0.36737     1 3d1-  0.42182     2 1s   -1.25574     2 2px   0.25909     2 2py  -0.25817
                                    2 2pz  -0.35328     2 3d2-  0.34727     2 3d1+ -0.36726     2 3d1- -0.42174     3 1s   -0.31269
                                    4 1s   -0.28524     5 1s    0.28523     6 1s    0.31271
   30.1     0.00000     2.12721     1 1s   -1.33244     1 2px  -0.26536     1 2py   0.29070     1 2pz   0.38676     1 3d0   0.48536
                                    1 3d2+  0.41685     2 1s    1.33257     2 2px  -0.26529     2 2py   0.29062     2 2pz   0.38684
                                    2 3d0  -0.48536     2 3d2+ -0.41690     3 1s    0.32288     4 1s    0.35549     5 1s   -0.35550
                                    6 1s   -0.32299
   31.1     0.00000     2.26333     1 1s    0.50330     1 1s   -0.39528     1 2px   0.25950     1 3d2-  0.36923     1 3d1+  0.42988
                                    1 3d2+ -0.35995     2 1s    0.50327     2 1s   -0.39517     2 2px  -0.25948     2 3d2-  0.36916
                                    2 3d1+  0.42991     2 3d2+ -0.35997
   32.1     0.00000     2.36933     1 1s    0.27346     1 2px  -0.30116     1 2py   0.28403     1 3d0   0.56981     1 3d2- -0.32145
                                    1 3d1- -0.31824     2 1s    0.27351     2 2px   0.30130     2 2py  -0.28413     2 3d0   0.56986
                                    2 3d2- -0.32142     2 3d1- -0.31820     4 1s    0.36368     5 1s    0.36373
   33.1     0.00000     2.54130     1 3d2-  0.43747     1 3d1-  0.61277     2 3d2- -0.43748     2 3d1- -0.61269     3 1s    0.52023
                                    4 1s   -0.38106     5 1s    0.38110     6 1s   -0.52017
   34.1     0.00000     2.68240     1 1s   -0.29110     1 2py   0.27083     1 3d2-  0.50061     1 3d2+  0.47372     1 3d1- -0.51018
                                    2 1s   -0.29130     2 2py  -0.27090     2 3d2-  0.50063     2 3d2+  0.47374     2 3d1- -0.51019
                                    4 1s    0.37733     5 1s    0.37739
   35.1     0.00000     2.78580     1 3d0  -0.38982     1 3d2- -0.41963     1 3d1+  0.50178     1 3d1- -0.37745     2 3d0  -0.38981
                                    2 3d2- -0.41972     2 3d1+  0.50189     2 3d1- -0.37756     3 1s   -0.48440     4 1s    0.29051
                                    5 1s    0.29056     6 1s   -0.48457
   36.1     0.00000     2.97448     1 1s   -1.84862     1 2px  -0.47414     1 2pz   0.25616     1 2px  -0.91805     1 2py   0.28530
                                    1 2pz   0.47578     1 3d2-  0.38221     1 3d1+  0.71319     1 3d2+ -0.62965     2 1s    1.84859
                                    2 2px  -0.47415     2 2pz   0.25616     2 2px  -0.91804     2 2py   0.28528     2 2pz   0.47576
                                    2 3d2- -0.38224     2 3d1+ -0.71314     2 3d2+  0.62968


 HOMO      8.1    -0.334982 =      -9.1153eV
 LUMO      9.1     0.062300 =       1.6953eV
 LUMO-HOMO         0.397282 =      10.8106eV


 **********************************************************************************************************************************
 DATASETS  * FILE   NREC   LENGTH (MB)   RECORD NAMES
              1      19       31.14       500      610      700      900      950      970     1000      129      960     1100   
                                          VAR    BASINP    GEOM    SYMINP    ZMAT    AOBASIS   BASIS     P2S    ABASIS      S 
                                         1400     1410     1200     1210     1080     1600     1650     1300     1700   
                                           T        V       H0       H01     AOSYM     SMH    MOLCAS    ERIS     OPER   

              2       4        2.86       700     1000      520     2100   
                                         GEOM     BASIS   MCVARS     RHF  

 PROGRAMS   *        TOTAL    HF-SCF       INT
 CPU TIMES  *         0.45      0.13      0.22
 REAL TIME  *         0.75 SEC
 DISK USED  *        36.24 MB
 **********************************************************************************************************************************


 PROGRAM * MULTI (Direct Multiconfiguration SCF)       Authors: P.J. Knowles, H.-J. Werner (1984)


 Number of closed-shell orbitals:   7 (   7 )
 Number of active  orbitals:        2 (   2 )
 Number of external orbitals:      27 (  27 )

 State symmetry 1

 Number of electrons:     2    Spin symmetry=Singlet   Space symmetry=1
 Number of states:        3
 Number of CSFs:          3   (4 determinants, 4 intermediate states)

 Molecular orbitals read from record     2100.2  Type=RHF/CANONICAL (state 1.1)

 Wavefunction dump at record             2140.2

 Convergence thresholds  0.10E-01 (gradient)  0.10E-05 (energy)  0.10E-02 (step length)

 Weight factors for state symmetry  1:    0.33333   0.33333   0.33333

 Number of orbital rotations:      257   (    14 Core/Active    189 Core/Virtual   0 Active/Active     54 Active/Virtual)
 Total number of variables:        269

 Micro-Iterations solved by the two-step solver

 ITER. MIC  NCI  NEG     ENERGY(VAR)     ENERGY(PROJ)   ENERGY CHANGE     GRAD(0)  GRAD(ORB)   GRAD(CI)     STEP       TIME

   1    6    5    0     -77.68273889     -77.70028110   -0.01754221    0.16486725 0.00036680 0.00000000  0.14D+00      0.12
   2    5    5    0     -77.69997502     -77.69999202   -0.00001700    0.00598047 0.00000156 0.00000000  0.45D-02      0.21
   3    3    4    0     -77.69999204     -77.69999204   -0.00000000    0.00001077 0.00000000 0.00000000  0.17D-04      0.27

 ** WVFN ****  CONVERGENCE REACHED, FINAL GRADIENT:  0.99D-10



 Results for state 1.1
 =====================

 !MCSCF STATE  1.1 Energy             -77.773915527608
 Nuclear energy                        33.31499295
 Kinetic energy                        77.99750447
 One electron energy                 -169.59664931
 Two electron energy                   58.50774084
 Virial ratio                           1.99713338

 !MCSCF STATE  1.1 Dipole moment        0.00013453     0.00000730    -0.00012288
 Dipole moment /Debye                   0.00034191     0.00001855    -0.00031230

 Results for state 2.1
 =====================

 !MCSCF STATE  2.1 Energy             -77.723413054964
 Nuclear energy                        33.31499295
 Kinetic energy                        78.06865531
 One electron energy                 -169.36003082
 Two electron energy                   58.32162482
 Virial ratio                           1.99557771

 !MCSCF STATE  2.1 Dipole moment        0.00001444    -0.00000303    -0.00005347
 Dipole moment /Debye                   0.00003670    -0.00000770    -0.00013589

 Results for state 3.1
 =====================

 !MCSCF STATE  3.1 Energy             -77.602647549328
 Nuclear energy                        33.31499295
 Kinetic energy                        78.08800694
 One electron energy                 -169.12124738
 Two electron energy                   58.20360688
 Virial ratio                           1.99378446

 !MCSCF STATE  3.1 Dipole moment       -0.00007539    -0.00003806    -0.00003949
 Dipole moment /Debye                  -0.00019161    -0.00009673    -0.00010037

 State-averaged charge density matrix saved on record  2140.2 (density set 1)

 !MCSCF expec         <1.1|DMX|1.1>     0.000134526133 au =     0.000341908929 Debye
 !MCSCF trans         <2.1|DMX|1.1>    -0.000018017905 au =    -0.000045793948 Debye
 !MCSCF expec         <2.1|DMX|2.1>     0.000014440065 au =     0.000036700580 Debye
 !MCSCF trans         <3.1|DMX|1.1>     0.000024311729 au =     0.000061790204 Debye
 !MCSCF trans         <3.1|DMX|2.1>    -0.000041031636 au =    -0.000104285185 Debye
 !MCSCF expec         <3.1|DMX|3.1>    -0.000075388227 au =    -0.000191605209 Debye

 !MCSCF expec         <1.1|DMY|1.1>     0.000007298691 au =     0.000018550206 Debye
 !MCSCF trans         <2.1|DMY|1.1>     0.000024484000 au =     0.000062228044 Debye
 !MCSCF expec         <2.1|DMY|2.1>    -0.000003030494 au =    -0.000007702242 Debye
 !MCSCF trans         <3.1|DMY|1.1>    -0.000000039169 au =    -0.000000099552 Debye
 !MCSCF trans         <3.1|DMY|2.1>     0.000025340404 au =     0.000064404665 Debye
 !MCSCF expec         <3.1|DMY|3.1>    -0.000038057634 au =    -0.000096726521 Debye

 !MCSCF expec         <1.1|DMZ|1.1>    -0.000122875010 au =    -0.000312296667 Debye
 !MCSCF trans         <2.1|DMZ|1.1>     0.000046595599 au =     0.000118426442 Debye
 !MCSCF expec         <2.1|DMZ|2.1>    -0.000053467398 au =    -0.000135891668 Debye
 !MCSCF trans         <3.1|DMZ|1.1>    -0.000017012474 au =    -0.000043238565 Debye
 !MCSCF trans         <3.1|DMZ|2.1>     0.000063838474 au =     0.000162250588 Debye
 !MCSCF expec         <3.1|DMZ|3.1>    -0.000039490354 au =    -0.000100367894 Debye


 NATURAL ORBITALS (state averaged)
 =================================

  Orbital  Occupation    Energy     Coefficients
    1.1     2.00000   -11.25168     1 1s    0.70740     2 1s    0.70138
    2.1     2.00000   -11.25081     1 1s    0.70143     2 1s   -0.70746
    3.1     2.00000    -1.08990     1 1s    0.27554     2 1s    0.27555
    4.1     2.00000    -0.78537     1 1s   -0.31868     2 1s    0.31867
    5.1     2.00000    -0.64803     1 2py   0.30081     2 2py   0.30088
    6.1     2.00000    -0.57978     1 2px   0.27538     2 2px  -0.27538
    7.1     2.00000    -0.43270     1 2pz   0.31812     1 2pz   0.26426     2 2pz   0.31812     2 2pz   0.26426
    8.1     1.00000    -0.17211     1 2px   0.30148     2 2px  -0.30148     4 1s   -0.33767     5 1s   -0.33764
    9.1     1.00000    -0.08850     1 1s    0.27721     1 2pz   0.39557     1 2pz   0.42369     2 1s    0.27722     2 2pz  -0.39559
                                    2 2pz  -0.42371
   10.1    -0.00000     0.21125     1 1s   -1.09185     1 2px   0.35966     1 2py   0.40610     1 2pz   0.32655     2 1s   -1.09180
                                    2 2px  -0.35965     2 2py  -0.40608     2 2pz  -0.32644     3 1s    0.42391     4 1s    1.13896
                                    5 1s    1.13890     6 1s    0.42388
   11.1    -0.00000     0.27447     1 1s   -1.61695     1 2py  -0.28807     1 2pz   0.46559     2 1s    1.61682     2 2py  -0.28785
                                    2 2pz   0.46541     3 1s    1.43543     6 1s   -1.43507
   12.1    -0.00000     0.31105     1 1s   -0.93815     1 2px   0.51396     1 2py  -0.90873     1 2pz   0.50243     2 1s   -0.93875
                                    2 2px  -0.51404     2 2py   0.90877     2 2pz  -0.50257     3 1s    1.63883     6 1s    1.63934
   13.1    -0.00000     0.35065     1 1s   -0.99706     1 2py   0.91529     1 2pz   0.41029     2 1s    0.99712     2 2py   0.91552
                                    2 2pz   0.41024     4 1s    1.94015     5 1s   -1.94038
   14.1    -0.00000     0.44140     1 1s    2.08946     1 2px   1.88525     1 2py  -0.58378     1 2pz  -0.79831     2 1s   -2.08935
                                    2 2px   1.88532     2 2py  -0.58383     2 2pz  -0.79830     3 1s    0.66598     6 1s   -0.66615
   15.1    -0.00000     0.70654     1 2px  -0.54072     1 2pz   0.25153     1 2px   0.97717     2 2px   0.54070     2 2pz  -0.25153
                                    2 2px  -0.97712     3 1s    0.29603     4 1s   -0.57257     5 1s   -0.57251     6 1s    0.29609
   16.1    -0.00000     0.74527     1 1s   -0.68398     1 2py  -0.36091     1 2px  -0.68035     1 2py   0.92710     1 2pz   0.29398
                                    2 1s    0.68387     2 2py  -0.36093     2 2px  -0.68054     2 2py   0.92734     2 2pz   0.29400
                                    3 1s   -0.45294     4 1s    0.30254     5 1s   -0.30251     6 1s    0.45295
   17.1    -0.00000     0.76670     1 2py  -0.54869     1 2py   1.10485     1 2pz   0.28478     2 2py   0.54865     2 2py  -1.10493
                                    2 2pz  -0.28496     4 1s    0.35548     5 1s    0.35548
   18.1    -0.00000     0.79397     1 1s   -0.44173     1 2pz  -0.70085     1 2pz   0.79921     2 1s    0.44190     2 2pz  -0.70084
                                    2 2pz   0.79920     4 1s    0.25042     5 1s   -0.25049
   19.1    -0.00000     0.86611     1 1s   -0.33240     1 2px  -0.26217     1 2pz  -0.66611     1 2px   0.54920     1 2py  -0.47770
                                    1 2pz   1.03053     2 1s   -0.33240     2 2px   0.26221     2 2pz   0.66608     2 2px  -0.54931
                                    2 2py   0.47772     2 2pz  -1.03048     3 1s    0.28201     6 1s    0.28204
   20.1    -0.00000     0.95260     1 1s   -0.68967     1 2px  -0.63019     1 2py  -0.33458     1 2px   0.68917     1 2py   0.99082
                                    2 1s    0.68998     2 2px  -0.63014     2 2py  -0.33459     2 2px   0.68917     2 2py   0.99090
                                    4 1s    1.11502     5 1s   -1.11520
   21.1    -0.00000     1.07946     1 1s   -0.56190     1 1s    1.06421     1 2py   0.47703     1 2px  -0.25308     1 2py  -0.51893
                                    2 1s   -0.56215     2 1s    1.06540     2 2py  -0.47659     2 2px   0.25229     2 2py   0.51852
                                    4 1s    0.65520     4 1s   -1.19715     5 1s    0.65454     5 1s   -1.19603
   22.1    -0.00000     1.11694     1 1s   -0.44606     1 1s    2.12325     1 2px  -0.32782     1 2py  -0.28863     1 2px   1.43405
                                    1 2pz  -0.39482     2 1s    0.44578     2 1s   -2.12274     2 2px  -0.32802     2 2py  -0.28907
                                    2 2px   1.43419     2 2pz  -0.39491     3 1s   -0.32172     3 1s    0.31980     4 1s   -0.66483
                                    4 1s    0.92854     5 1s    0.66545     5 1s   -0.92944     6 1s    0.32167     6 1s   -0.31955
   23.1    -0.00000     1.15081     1 2px  -0.46710     1 2py   0.56170     1 2px   0.76238     1 2py  -0.86676     2 2px  -0.46680
                                    2 2py   0.56165     2 2px   0.76206     2 2py  -0.86674     3 1s   -0.51491     3 1s    1.29328
                                    4 1s    0.27604     4 1s   -0.53660     5 1s   -0.27628     5 1s    0.53713     6 1s    0.51438
                                    6 1s   -1.29246
   24.1    -0.00000     1.19975     1 1s   -0.81940     1 1s    1.34008     1 2px   0.30967     1 2py  -0.29442     1 2px  -0.38244
                                    1 2py   0.33651     1 2pz  -0.26625     2 1s   -0.81893     2 1s    1.33841     2 2px  -0.31008
                                    2 2py   0.29494     2 2px   0.38347     2 2py  -0.33746     2 2pz   0.26573     3 1s    0.70239
                                    3 1s   -1.18072     6 1s    0.70277     6 1s   -1.18151
   25.1    -0.00000     1.24703     1 1s    1.55088     1 1s   -4.50985     1 2px  -0.93106     1 2py   0.75337     1 2pz   1.12327
                                    2 1s   -1.55186     2 1s    4.51172     2 2px  -0.93057     2 2py   0.75301     2 2pz   1.12389
                                    3 1s    0.54897     4 1s    0.99605     5 1s   -0.99659     6 1s   -0.54990
   26.1    -0.00000     1.31697     1 1s   -1.17367     1 1s    2.32715     1 2px  -0.57887     1 2py   0.66502     1 2pz  -1.09434
                                    2 1s   -1.17281     2 1s    2.32436     2 2px   0.57957     2 2py  -0.66556     2 2pz   1.09349
                                    3 1s   -0.55648     3 1s   -0.93093     4 1s   -0.39553     4 1s   -0.51727     5 1s   -0.39546
                                    5 1s   -0.51679     6 1s   -0.55639     6 1s   -0.93077
   27.1    -0.00000     1.76370     1 1s    0.49403     1 3d0   0.45102     1 3d1+ -0.25203     1 3d2+ -0.28869     2 1s   -0.49379
                                    2 3d0  -0.45102     2 3d1+  0.25201     2 3d2+  0.28867
   28.1    -0.00000     1.85579     1 1s   -0.52904     1 2pz   0.28031     1 3d0   0.32773     1 3d1+  0.32417     1 3d2+  0.37359
                                    1 3d1-  0.33324     2 1s   -0.52869     2 2pz  -0.28019     2 3d0   0.32760     2 3d1+  0.32425
                                    2 3d2+  0.37355     2 3d1-  0.33336
   29.1    -0.00000     2.00826     1 1s    1.25959     1 2px   0.25683     1 2py  -0.26509     1 2pz  -0.35688     1 3d2- -0.35195
                                    1 3d1+  0.36686     1 3d1-  0.41998     2 1s   -1.25956     2 2px   0.25682     2 2py  -0.26511
                                    2 2pz  -0.35685     2 3d2-  0.35192     2 3d1+ -0.36675     2 3d1- -0.41991     3 1s   -0.32318
                                    4 1s   -0.28319     5 1s    0.28318     6 1s    0.32320
   30.1    -0.00000     2.12567     1 1s   -1.28911     1 2px  -0.25414     1 2py   0.28567     1 2pz   0.37297     1 3d0   0.49346
                                    1 3d2+  0.42019     2 1s    1.28924     2 2px  -0.25406     2 2py   0.28558     2 2pz   0.37305
                                    2 3d0  -0.49346     2 3d2+ -0.42025     3 1s    0.31694     4 1s    0.34156     5 1s   -0.34157
                                    6 1s   -0.31705
   31.1    -0.00000     2.25942     1 1s    0.49543     1 1s   -0.39381     1 2px   0.26450     1 3d2-  0.37504     1 3d1+  0.43076
                                    1 3d2+ -0.35779     2 1s    0.49541     2 1s   -0.39370     2 2px  -0.26449     2 3d2-  0.37497
                                    2 3d1+  0.43077     2 3d2+ -0.35780
   32.1    -0.00000     2.36640     1 1s    0.28745     1 2px  -0.30859     1 2py   0.28927     1 3d0   0.56638     1 3d2- -0.32349
                                    1 3d1- -0.31975     2 1s    0.28751     2 2px   0.30873     2 2py  -0.28937     2 3d0   0.56644
                                    2 3d2- -0.32345     2 3d1- -0.31970     4 1s    0.35558     5 1s    0.35562
   33.1    -0.00000     2.53909     1 3d2-  0.43744     1 3d1-  0.61476     2 3d2- -0.43747     2 3d1- -0.61469     3 1s    0.52142
                                    4 1s   -0.37469     5 1s    0.37473     6 1s   -0.52137
   34.1    -0.00000     2.67676     1 1s   -0.29465     1 2py   0.27588     1 3d2-  0.50186     1 3d2+  0.46933     1 3d1- -0.51239
                                    2 1s   -0.29488     2 2py  -0.27595     2 3d2-  0.50188     2 3d2+  0.46935     2 3d1- -0.51240
                                    4 1s    0.37340     5 1s    0.37346
   35.1    -0.00000     2.79141     1 3d0  -0.39565     1 3d2- -0.41056     1 3d1+  0.50566     1 3d1- -0.37785     2 3d0  -0.39565
                                    2 3d2- -0.41065     2 3d1+  0.50578     2 3d1- -0.37797     3 1s   -0.48209     4 1s    0.28351
                                    5 1s    0.28357     6 1s   -0.48227
   36.1    -0.00000     2.97103     1 1s   -1.87000     1 2px  -0.46834     1 2pz   0.25606     1 2px  -0.92631     1 2py   0.29081
                                    1 2pz   0.48145     1 3d2-  0.38294     1 3d1+  0.71490     1 3d2+ -0.62711     2 1s    1.86997
                                    2 2px  -0.46835     2 2pz   0.25606     2 2px  -0.92630     2 2py   0.29079     2 2pz   0.48144
                                    2 3d2- -0.38298     2 3d1+ -0.71485     2 3d2+  0.62715


 Natural orbital dump (state averaged) at molpro section  2140.2    (Orbital set 2)



 **********************************************************************************************************************************
 DATASETS  * FILE   NREC   LENGTH (MB)   RECORD NAMES
              1      20       31.87       500      610      700      900      950      970     1000      129      960     1100   
                                          VAR    BASINP    GEOM    SYMINP    ZMAT    AOBASIS   BASIS     P2S    ABASIS      S 
                                         1400     1410     1200     1210     1080     1600     1650     1300     1700     1380   
                                           T        V       H0       H01     AOSYM     SMH    MOLCAS    ERIS     OPER     JKOP   

              2       5        5.42       700     1000      520     2100     2140   
                                         GEOM     BASIS   MCVARS     RHF     MCSCF   

 PROGRAMS   *        TOTAL     MULTI    HF-SCF       INT
 CPU TIMES  *         0.77      0.31      0.13      0.22
 REAL TIME  *         1.16 SEC
 DISK USED  *        39.05 MB
 **********************************************************************************************************************************
 Molecular orbitals read from record     2140.2  Type=MCSCF/NATURAL (state averaged)
 Occupation numbers read from record     2140.2  Type=MCSCF/NATURAL (state averaged)
 Orbital energies read from record       2140.2  Type=MCSCF/NATURAL (state averaged)
 Redundancy group numbers read from rec  2140.2  Type=MCSCF/NATURAL (state averaged)

 MULTI/6-31G* energy=    -77.602647549328

           MULTI          HF-SCF
    -77.60264755    -77.77852558
 **********************************************************************************************************************************
 Molpro calculation terminated
