
 Primary working directories    : /scratch.local/johan406.molpro_temp/molpro.hjWtsfvSt8
 Secondary working directories  : /scratch.local/johan406.molpro_temp/molpro.hjWtsfvSt8
 Wavefunction directory         : /home/goodpast/johan406/wfu/
 Main file repository           : /scratch.local/johan406.molpro_temp/molpro.hjWtsfvSt8/

 id        : roweumn

 Nodes     nprocs
 acn09        1

 Using customized tuning parameters: mindgm=1; mindgv=20; mindgc=4; mindgr=1; noblas=0; minvec=7
 default implementation of scratch files=df  


 Variables initialized (934), CPU time= 0.00 sec
                                                                                 !leave this line blank
 
 gprint, orbitals=30
 memory, 125., m
 symmetry, nosym
 nelect=16
 basis=6-31g*
 
 geometry={
 C -0.6268 0.1369 0.2985
 C 0.635 -0.1884 -0.3592
 H -1.267 0.8953 -0.1542
 H -0.9585 -0.8556 -0.136
 H 0.9748 0.8267 0.0785
 H 1.2762 -0.9475 0.0953
 }
 
 hf
 {multi,
 closed 7
 occ 9
 wf,spin=0;STATE,3
 }
 
 Commands  initialized (763), CPU time= 0.01 sec, 617 directives.
 Default parameters read. Elapsed time= 0.08 sec

 Checking input...
 Passed
1


                                         ***  PROGRAM SYSTEM MOLPRO  ***
                                       Copyright, TTI GmbH Stuttgart, 2015
                                    Version 2019.2 linked Oct 25 2019 22:50:27


 **********************************************************************************************************************************
 LABEL *                                                                                 
  64 bit serial version                                                                  DATE: 07-Feb-23          TIME: 15:43:27  
 **********************************************************************************************************************************

 SHA1:             8dbd9ae1082e4ce945b0f27595c9eb2d4aa09004
 **********************************************************************************************************************************


 Variable memory set to  125000000 words,  buffer space 

 SETTING NELECT         =        16.00000000                                  
 SETTING BASIS          =    6-31G*
 ZSYMEL=NOSYM


Geometry recognized as XYZ



 Recomputing integrals since basis changed


 Using spherical harmonics

 Library entry C      S 6-31G                selected for orbital group  1
 Library entry C      P 6-31G                selected for orbital group  1
 Library entry C      D 6-31G*               selected for orbital group  1
 Library entry H      S 6-31G                selected for orbital group  2


 PROGRAM * SEWARD (Integral evaluation for generally contracted gaussian basis sets)     Author: Roland Lindh, 1990

 Geometry written to block  1 of record 700


 Point group  C1  



 ATOMIC COORDINATES

 NR  ATOM    CHARGE       X              Y              Z

   1  C       6.00   -1.184480335    0.258703506    0.564083248
   2  C       6.00    1.199976089   -0.356024402   -0.678789624
   3  H       1.00   -2.394283000    1.691871799   -0.291395768
   4  H       1.00   -1.811302490   -1.616849672   -0.257002753
   5  H       1.00    1.842105026    1.562236587    0.148343501
   6  H       1.00    2.411668480   -1.790515503    0.180090900

 Bond lengths in Bohr (Angstrom)

 1-2  2.758306693  1-3  2.061416550  1-4  2.141211798  2-5  2.185452813  2-6  2.064858088
     ( 1.459633043)     ( 1.090854660)     ( 1.133080487)     ( 1.156491824)     ( 1.092675844)

 Bond angles

  1-2-5   83.56030587   1-2-6  118.33879733   2-1-3  118.37789707   2-1-4   83.40002134

  3-1-4  106.14300985   5-2-6  106.25643624

 NUCLEAR CHARGE:                   16
 NUMBER OF PRIMITIVE AOS:          72
 NUMBER OF SYMMETRY AOS:           70
 NUMBER OF CONTRACTIONS:           36   (   36A   )
 NUMBER OF CORE ORBITALS:           2   (    2A   )
 NUMBER OF VALENCE ORBITALS:       12   (   12A   )


 NUCLEAR REPULSION ENERGY   32.36757156

 Eigenvalues of metric

         1 0.925E-02 0.273E-01 0.596E-01 0.644E-01 0.802E-01 0.218E+00 0.237E+00 0.272E+00


 Contracted 2-electron integrals neglected if value below      1.0D-11
 AO integral compression algorithm  1   Integral accuracy      1.0D-11

     1.573 MB (compressed) written to integral file ( 59.2%)


 NUMBER OF SORTED TWO-ELECTRON INTEGRALS:     222111.     BUFFER LENGTH:  32768
 NUMBER OF SEGMENTS:   1  SEGMENT LENGTH:     222111      RECORD LENGTH: 524288

 Memory used in sort:       0.78 MW

 SORT1 READ      284735. AND WROTE      212531. INTEGRALS IN      1 RECORDS. CPU TIME:     0.00 SEC, REAL TIME:     0.01 SEC
 SORT2 READ      212531. AND WROTE      222111. INTEGRALS IN      6 RECORDS. CPU TIME:     0.02 SEC, REAL TIME:     0.02 SEC

 FILE SIZES:   FILE 1:    31.7 MBYTE,  FILE 4:     4.2 MBYTE,   TOTAL:     35.9 MBYTE

 OPERATOR DM      FOR CENTER  0  COORDINATES:    0.000000    0.000000    0.000000


 **********************************************************************************************************************************
 DATASETS  * FILE   NREC   LENGTH (MB)   RECORD NAMES
              1      19       31.13       500      610      700      900      950      970     1000      129      960     1100   
                                          VAR    BASINP    GEOM    SYMINP    ZMAT    AOBASIS   BASIS     P2S    ABASIS      S 
                                         1400     1410     1200     1210     1080     1600     1650     1300     1700   
                                           T        V       H0       H01     AOSYM     SMH    MOLCAS    ERIS     OPER   

 PROGRAMS   *        TOTAL       INT
 CPU TIMES  *         0.30      0.20
 REAL TIME  *         0.49 SEC
 DISK USED  *        36.24 MB
 **********************************************************************************************************************************


 PROGRAM * RHF-SCF (CLOSED SHELL)       Authors: W. Meyer, H.-J. Werner


 NUMBER OF ELECTRONS:       8+    8-    SPACE SYMMETRY=1    SPIN SYMMETRY: Singlet 
 CONVERGENCE THRESHOLDS:    1.00E-05 (Density)    1.00E-07 (Energy)
 MAX. NUMBER OF ITERATIONS:       60
 INTERPOLATION TYPE:            DIIS
 INTERPOLATION STEPS:              2 (START)      1 (STEP)
 LEVEL SHIFTS:                  0.00 (CLOSED)  0.00 (OPEN) 



 Orbital guess generated from atomic densities. Full valence occupancy:    8

 Molecular orbital dump at record        2100.2

 Initial occupancy:   8

 ITERATION    DDIFF          GRAD             ENERGY        2-EL.EN.            DIPOLE MOMENTS         DIIS   ORB.
    1      0.000D+00      0.000D+00       -77.82765100    115.942852    0.01367   -0.00282   -0.01108    0    start
    2      0.000D+00      0.705D-02       -77.84565818    114.920037   -0.01047   -0.00209    0.01215    1    diag
    3      0.754D-02      0.229D-02       -77.84773992    115.336705    0.00145   -0.01143   -0.00775    2    diag
    4      0.296D-02      0.846D-03       -77.84818863    115.211034   -0.01171   -0.00534    0.00948    3    diag
    5      0.161D-02      0.322D-03       -77.84829989    115.211978   -0.00274   -0.01211   -0.00499    4    diag
    6      0.742D-03      0.220D-03       -77.84835439    115.217538   -0.00893   -0.00850    0.00372    5    diag
    7      0.491D-03      0.101D-03       -77.84838318    115.218773   -0.00855   -0.00898    0.00281    6    diag
    8      0.517D-03      0.288D-04       -77.84838524    115.219786   -0.00856   -0.00894    0.00286    7    diag
    9      0.143D-03      0.820D-05       -77.84838537    115.219978   -0.00853   -0.00892    0.00284    8    diag
   10      0.357D-04      0.231D-05       -77.84838538    115.219947   -0.00851   -0.00892    0.00284    9    orth
   11      0.639D-05      0.517D-06       -77.84838538    115.219953   -0.00851   -0.00892    0.00284    0    orth

 Final occupancy:   8

 !RHF STATE  1.1 Energy               -77.848385379604
 Nuclear energy                        32.36757156
 One-electron energy                 -167.82593326
 Two-electron energy                   57.60997631
 Virial quotient                       -1.00121503
 !RHF STATE  1.1 Dipole moment         -0.00851427    -0.00892231     0.00283740
 Dipole moment /Debye                  -0.02163971    -0.02267678     0.00721147

 ELECTRON ORBITALS
 =================

  Orbital  Occupation    Energy     Coefficients
    1.1     2.00000   -11.26082     2 1s    0.98389
    2.1     2.00000   -11.25808     1 1s    0.98390
    3.1     2.00000    -1.03722     1 1s    0.28482     2 1s    0.28117
    4.1     2.00000    -0.78430     1 1s   -0.28954     2 1s    0.29590
    5.1     2.00000    -0.62190     1 2py   0.31452     2 2py   0.30201
    6.1     2.00000    -0.56160     1 2px   0.30006     2 2px  -0.29808
    7.1     2.00000    -0.39190     1 2pz   0.30294     1 2pz   0.28261     2 2pz   0.31376     2 2pz   0.28797
    8.1     2.00000    -0.38717     1 2px  -0.26647     2 2px   0.27983     4 1s    0.28111     5 1s    0.28960
    9.1     0.00000     0.06330     1 1s   -0.39388     1 2pz  -0.33106     1 2pz  -0.47076     2 1s   -0.40229     2 2pz   0.33011
                                    2 2pz   0.46670
   10.1     0.00000     0.23147     1 1s   -1.10261     1 2px   0.47447     1 2py   0.35596     1 2pz   0.43409     2 1s   -1.09090
                                    2 2px  -0.49141     2 2py  -0.37786     2 2pz  -0.43176     3 1s    0.57775     4 1s    1.06951
                                    5 1s    1.10422     6 1s    0.56895
   11.1     0.00000     0.28219     1 1s    1.55866     1 2py   0.35349     1 2pz  -0.45402     2 1s   -1.57745     2 2py   0.36402
                                    2 2pz  -0.46880     3 1s   -1.43097     6 1s    1.46167
   12.1     0.00000     0.31310     1 1s   -0.81927     1 2px   0.41229     1 2py  -0.98037     1 2pz   0.47314     2 1s   -0.68774
                                    2 2px  -0.38436     2 2py   1.04561     2 2pz  -0.43441     3 1s    1.57709     4 1s   -0.34126
                                    5 1s   -0.50463     6 1s    1.54141
   13.1     0.00000     0.33549     1 1s   -1.06828     1 2px   0.27490     1 2py   0.82967     1 2pz   0.30842     2 1s    1.03891
                                    2 2px   0.29304     2 2py   0.68868     2 2pz   0.32981     4 1s    1.77615     5 1s   -1.61608
   14.1     0.00000     0.42355     1 1s    2.02769     1 2px   1.78623     1 2py  -0.63008     1 2pz  -0.78670     2 1s   -2.03446
                                    2 2px   1.77695     2 2py  -0.63605     2 2pz  -0.79236     3 1s    0.63229     6 1s   -0.62250
   15.1     0.00000     0.70262     1 2px   0.54740     1 2px  -0.91536     2 2px  -0.55234     2 2px   0.94380     4 1s    0.42181
                                    5 1s    0.43243
   16.1     0.00000     0.75824     1 1s   -0.30582     1 2py  -0.41452     1 2px  -0.64204     1 2py   0.88332     2 1s    0.32390
                                    2 2py  -0.33586     2 2px  -0.59333     2 2py   0.69617     3 1s   -0.49680     4 1s    0.26262
                                    6 1s    0.47156
   17.1     0.00000     0.78917     1 2py   0.55740     1 2pz   0.35014     1 2py  -1.19133     1 2pz  -0.33446     2 1s   -0.26803
                                    2 2py  -0.60436     2 2py   1.25502     4 1s   -0.28794     5 1s   -0.27276
   18.1     0.00000     0.80002     1 2pz  -0.69375     1 2pz   0.67213     2 2pz  -0.76248     2 2py   0.26402     2 2pz   0.73362
   19.1     0.00000     0.86473     1 1s    0.35646     1 2pz   0.69019     1 2px  -0.45142     1 2py   0.53993     1 2pz  -0.96214
                                    2 1s    0.35312     2 2pz  -0.68450     2 2px   0.45866     2 2py  -0.53704     2 2pz   0.95923
   20.1     0.00000     0.97400     1 2px   0.71276     1 2py   0.35960     1 2px  -1.14964     1 2py  -0.76298     2 2px   0.72046
                                    2 2py   0.38270     2 2px  -1.15376     2 2py  -0.78418     4 1s   -1.05456     5 1s    1.04291
   21.1     0.00000     1.11801     1 1s   -0.60266     1 1s    1.08291     1 2px   0.31773     1 2py   0.25704     1 2px  -0.44842
                                    2 1s   -0.69993     2 1s    1.30212     2 2py  -0.52289     2 2py   0.57242     4 1s    0.49500
                                    4 1s   -0.92941     5 1s    0.77584     5 1s   -1.38099
   22.1     0.00000     1.13778     1 1s    0.43999     1 2px  -0.33970     1 2py   0.66824     1 2px   0.65190     1 2py  -1.02312
                                    2 2px  -0.44149     2 2py   0.50390     2 2px   0.80528     2 2py  -0.86628     3 1s   -0.54273
                                    3 1s    1.21014     4 1s    0.40765     4 1s   -0.87851     5 1s    0.37861     6 1s    0.48279
                                    6 1s   -1.23932
   23.1     0.00000     1.18240     1 2py   0.29533     1 2px  -0.68028     2 1s    0.40070     2 2pz   0.28226     2 2px  -0.75227
                                    3 1s   -0.28404     4 1s    0.75816     4 1s   -0.99842     5 1s   -0.65613     5 1s    0.74459
                                    6 1s   -0.60503     6 1s    0.87290
   24.1     0.00000     1.19112     1 1s   -0.71919     1 1s    0.99031     1 2px   0.33500     1 2px  -0.50964     1 2py   0.29161
                                    2 1s   -0.50702     2 1s    0.96004     2 2py   0.33420     2 2py  -0.27756     3 1s    0.83716
                                    3 1s   -1.22170     4 1s    0.25822     4 1s   -0.33484     6 1s    0.61781     6 1s   -0.85873
   25.1     0.00000     1.25909     1 1s   -1.23110     1 1s    2.32835     1 2px  -0.48115     1 2py   0.52195     1 2pz  -1.03382
                                    2 1s   -1.13862     2 1s    1.93890     2 2px   0.57857     2 2py  -0.57452     2 2pz   0.94155
                                    3 1s   -0.41388     3 1s   -0.93976     4 1s   -0.45751     4 1s   -0.36707     5 1s   -0.40191
                                    5 1s   -0.32806     6 1s   -0.39818     6 1s   -0.91031
   26.1     0.00000     1.28619     1 1s    1.57221     1 1s   -5.07538     1 2px  -1.25757     1 2py   0.78648     1 2pz   1.19727
                                    2 1s   -1.63183     2 1s    5.14721     2 2px  -1.23310     2 2py   0.74084     2 2pz   1.25118
                                    3 1s    0.43118     4 1s    0.69518     5 1s   -0.26986     5 1s   -0.64464     6 1s   -0.49356
   27.1     0.00000     1.69563     1 1s    0.59513     1 3d0   0.35149     1 3d2- -0.29861     1 3d2+ -0.32438     2 1s   -0.58191
                                    2 3d0  -0.34735     2 3d2-  0.29570     2 3d2+  0.32841
   28.1     0.00000     1.91924     1 1s    0.29724     1 1s   -0.59038     1 2pz   0.33030     1 3d0   0.34969     1 3d1+  0.36335
                                    1 3d2+  0.35511     1 3d1-  0.33741     2 1s    0.33637     2 1s   -0.73903     2 2pz  -0.36902
                                    2 3d0   0.36025     2 3d1+  0.31938     2 3d2+  0.33383     2 3d1-  0.29639     3 1s    0.27874
                                    6 1s    0.27940
   29.1     0.00000     1.94045     1 1s    0.32927     1 1s   -1.42797     1 2px  -0.30914     1 2pz   0.38296     1 3d2-  0.30587
                                    1 3d1+ -0.37338     1 3d1- -0.36351     2 1s   -0.29037     2 1s    1.33460     2 2px  -0.33310
                                    2 2pz   0.33502     2 3d2- -0.30596     2 3d1+  0.41485     2 3d1-  0.40467     3 1s    0.34534
                                    6 1s   -0.31204
   30.1     0.00000     2.18172     1 1s   -0.35674     1 1s    1.66947     1 2px   0.38410     1 2py  -0.27140     1 2pz  -0.45237
                                    1 3d0  -0.56144     1 3d2+ -0.34478     2 1s    0.33618     2 1s   -1.63219     2 2px   0.37981
                                    2 2py  -0.28330     2 2pz  -0.43392     2 3d0   0.57219     2 3d2+  0.36608     3 1s   -0.36063
                                    4 1s   -0.32234     5 1s    0.34201     6 1s    0.34536
   31.1     0.00000     2.25076     1 1s   -0.48631     1 1s    0.27335     1 2px  -0.26131     1 2px   0.28393     1 3d2- -0.29114
                                    1 3d1+ -0.38357     1 3d2+  0.39733     2 1s   -0.50398     2 1s    0.37024     2 2px   0.26101
                                    2 2px  -0.30970     2 3d2- -0.30990     2 3d1+ -0.38775     2 3d2+  0.38167
   32.1     0.00000     2.34938     1 2py   0.36810     1 3d0   0.52199     1 3d2- -0.34754     1 3d1- -0.35045     2 2py  -0.35776
                                    2 3d0   0.50426     2 3d2- -0.38909     2 3d1- -0.37623     3 1s   -0.25100     4 1s    0.40618
                                    5 1s    0.39219     6 1s   -0.30038
   33.1     0.00000     2.58273     1 1s   -0.27374     1 2py   0.27365     1 3d2- -0.51527     1 3d1- -0.55995     2 1s    0.29126
                                    2 2py   0.31558     2 3d2-  0.44495     2 3d1-  0.63110     3 1s   -0.48567     4 1s    0.39826
                                    5 1s   -0.42092     6 1s    0.48989
   34.1     0.00000     2.64474     1 1s    0.26570     1 2py  -0.34915     1 3d2- -0.41323     1 3d2+ -0.51884     1 3d1-  0.55162
                                    2 2py   0.28873     2 3d2- -0.47805     2 3d2+ -0.51345     2 3d1-  0.45245     4 1s   -0.40056
                                    5 1s   -0.31852
   35.1     0.00000     2.72165     1 3d0  -0.40101     1 3d2- -0.49390     1 3d1+  0.50527     1 3d1- -0.29548     2 3d0  -0.41206
                                    2 3d2- -0.47194     2 3d1+  0.48753     2 3d1- -0.25843     3 1s   -0.48777     6 1s   -0.46148
   36.1     0.00000     2.96007     1 1s    1.71571     1 2px   0.43713     1 2px   0.87469     1 2pz  -0.43672     1 3d2- -0.34861
                                    1 3d1+ -0.69469     1 3d2+  0.65101     2 1s   -1.72214     2 2px   0.43476     2 2px   0.87298
                                    2 2pz  -0.44257     2 3d2-  0.34582     2 3d1+  0.69805     2 3d2+ -0.63843


 HOMO      8.1    -0.387172 =     -10.5355eV
 LUMO      9.1     0.063302 =       1.7225eV
 LUMO-HOMO         0.450474 =      12.2580eV


 **********************************************************************************************************************************
 DATASETS  * FILE   NREC   LENGTH (MB)   RECORD NAMES
              1      19       31.13       500      610      700      900      950      970     1000      129      960     1100   
                                          VAR    BASINP    GEOM    SYMINP    ZMAT    AOBASIS   BASIS     P2S    ABASIS      S 
                                         1400     1410     1200     1210     1080     1600     1650     1300     1700   
                                           T        V       H0       H01     AOSYM     SMH    MOLCAS    ERIS     OPER   

              2       4        2.86       700     1000      520     2100   
                                         GEOM     BASIS   MCVARS     RHF  

 PROGRAMS   *        TOTAL    HF-SCF       INT
 CPU TIMES  *         0.42      0.12      0.20
 REAL TIME  *         0.70 SEC
 DISK USED  *        36.24 MB
 **********************************************************************************************************************************


 PROGRAM * MULTI (Direct Multiconfiguration SCF)       Authors: P.J. Knowles, H.-J. Werner (1984)


 Number of closed-shell orbitals:   7 (   7 )
 Number of active  orbitals:        2 (   2 )
 Number of external orbitals:      27 (  27 )

 State symmetry 1

 Number of electrons:     2    Spin symmetry=Singlet   Space symmetry=1
 Number of states:        3
 Number of CSFs:          3   (4 determinants, 4 intermediate states)

 Molecular orbitals read from record     2100.2  Type=RHF/CANONICAL (state 1.1)

 Wavefunction dump at record             2140.2

 Convergence thresholds  0.10E-01 (gradient)  0.10E-05 (energy)  0.10E-02 (step length)

 Weight factors for state symmetry  1:    0.33333   0.33333   0.33333

 Number of orbital rotations:      257   (    14 Core/Active    189 Core/Virtual   0 Active/Active     54 Active/Virtual)
 Total number of variables:        269

 Micro-Iterations solved by the two-step solver

 ITER. MIC  NCI  NEG     ENERGY(VAR)     ENERGY(PROJ)   ENERGY CHANGE     GRAD(0)  GRAD(ORB)   GRAD(CI)     STEP       TIME

   1   11    6    0     -77.69146959     -77.71130778   -0.01983819    0.16695835 0.00179432 0.00000000  0.14D+00      0.15
   2    7    5    0     -77.71099855     -77.71102160   -0.00002305    0.00707024 0.00000695 0.00000000  0.49D-02      0.25
   3    5    4    0     -77.71102163     -77.71102163   -0.00000000    0.00001546 0.00000000 0.00000000  0.22D-04      0.34

 ** WVFN ****  CONVERGENCE REACHED, FINAL GRADIENT:  0.28D-09



 Results for state 1.1
 =====================

 !MCSCF STATE  1.1 Energy             -77.842000454223
 Nuclear energy                        32.36757156
 Kinetic energy                        77.80969381
 One electron energy                 -167.90235519
 Two electron energy                   57.69278317
 Virial ratio                           2.00041520

 !MCSCF STATE  1.1 Dipole moment       -0.01231909    -0.01428004     0.00337258
 Dipole moment /Debye                  -0.03130995    -0.03629388     0.00857169

 Results for state 2.1
 =====================

 !MCSCF STATE  2.1 Energy             -77.738727531125
 Nuclear energy                        32.36757156
 Kinetic energy                        77.88542394
 One electron energy                 -167.59763865
 Two electron energy                   57.49133956
 Virial ratio                           1.99811651

 !MCSCF STATE  2.1 Dipole moment        0.00379708     0.00267655    -0.00010220
 Dipole moment /Debye                   0.00965058     0.00680268    -0.00025976

 Results for state 3.1
 =====================

 !MCSCF STATE  3.1 Energy             -77.552336913906
 Nuclear energy                        32.36757156
 Kinetic energy                        77.94694762
 One electron energy                 -167.33970102
 Two electron energy                   57.41979254
 Virial ratio                           1.99493745

 !MCSCF STATE  3.1 Dipole moment        0.02476954     0.02302415    -0.00329292
 Dipole moment /Debye                   0.06295377     0.05851772    -0.00836923

 State-averaged charge density matrix saved on record  2140.2 (density set 1)

 !MCSCF expec         <1.1|DMX|1.1>    -0.012319089660 au =    -0.031309951899 Debye
 !MCSCF trans         <2.1|DMX|1.1>    -0.011229342927 au =    -0.028540273397 Debye
 !MCSCF expec         <2.1|DMX|2.1>     0.003797077166 au =     0.009650575385 Debye
 !MCSCF trans         <3.1|DMX|1.1>    -0.000942181847 au =    -0.002394630539 Debye
 !MCSCF trans         <3.1|DMX|2.1>    -0.010919046695 au =    -0.027751630699 Debye
 !MCSCF expec         <3.1|DMX|3.1>     0.024769542056 au =     0.062953772699 Debye

 !MCSCF expec         <1.1|DMY|1.1>    -0.014280044980 au =    -0.036293876721 Debye
 !MCSCF trans         <2.1|DMY|1.1>    -0.008059886305 au =    -0.020484845835 Debye
 !MCSCF expec         <2.1|DMY|2.1>     0.002676553760 au =     0.006802675504 Debye
 !MCSCF trans         <3.1|DMY|1.1>    -0.001197691180 au =    -0.003044027949 Debye
 !MCSCF trans         <3.1|DMY|2.1>    -0.007425362481 au =    -0.018872152775 Debye
 !MCSCF expec         <3.1|DMY|3.1>     0.023024151491 au =     0.058517722947 Debye

 !MCSCF expec         <1.1|DMZ|1.1>     0.003372582101 au =     0.008571687217 Debye
 !MCSCF trans         <2.1|DMZ|1.1>    -0.000487377248 au =    -0.001238708266 Debye
 !MCSCF expec         <2.1|DMZ|2.1>    -0.000102202372 au =    -0.000259755504 Debye
 !MCSCF trans         <3.1|DMZ|1.1>     0.000362993729 au =     0.000922577601 Debye
 !MCSCF trans         <3.1|DMZ|2.1>    -0.000792880828 au =    -0.002015170054 Debye
 !MCSCF expec         <3.1|DMZ|3.1>    -0.003292924164 au =    -0.008369230198 Debye


 NATURAL ORBITALS (state averaged)
 =================================

  Orbital  Occupation    Energy     Coefficients
    1.1     2.00000   -11.25564     2 1s    0.98764
    2.1     2.00000   -11.25279     1 1s    0.98764
    3.1     2.00000    -1.04996     1 1s    0.27981     2 1s    0.27607
    4.1     2.00000    -0.78517     1 1s   -0.31483     2 1s    0.32103
    5.1     2.00000    -0.62486     1 2py   0.30662     2 2py   0.29702
    6.1     2.00000    -0.55997     1 2px   0.25995     2 2px  -0.25844
    7.1     2.00000    -0.41937     1 2pz   0.32433     1 2pz   0.28049     2 2pz   0.32574     2 2pz   0.28090
    8.1     1.00000    -0.08684     1 1s   -0.26573     1 2pz  -0.40504     1 2pz  -0.43087     2 1s   -0.26921     2 2pz   0.40389
                                    2 2pz   0.42854
    9.1     1.00000    -0.23075     1 2px  -0.31006     2 2px   0.31024     4 1s    0.29222     5 1s    0.29645
   10.1    -0.00000     0.21944     1 1s   -1.09704     1 2px   0.47181     1 2py   0.36760     1 2pz   0.37151     2 1s   -1.11177
                                    2 2px  -0.48566     2 2py  -0.39663     2 2pz  -0.37768     3 1s    0.54190     4 1s    1.07108
                                    5 1s    1.12168     6 1s    0.54016
   11.1    -0.00000     0.28121     1 1s    1.65950     1 2py   0.28746     1 2pz  -0.47570     2 1s   -1.65755     2 2py   0.29772
                                    2 2pz  -0.48178     3 1s   -1.42772     6 1s    1.44393
   12.1    -0.00000     0.31532     1 1s   -1.07321     1 2px   0.42937     1 2py  -0.75468     1 2pz   0.50536     2 1s   -0.51393
                                    2 2py   0.25617     2 2px  -0.34898     2 2py   1.18212     2 2pz  -0.33200     3 1s    1.49894
                                    5 1s   -0.79341     6 1s    1.55739
   13.1    -0.00000     0.32009     1 1s   -0.86076     1 2py   0.27787     1 2py   1.09617     2 1s    1.16890     2 2py   0.53494
                                    2 2pz   0.41614     3 1s   -0.55415     4 1s    1.81247     5 1s   -1.49229
   14.1    -0.00000     0.42974     1 1s    1.88589     1 2px   1.79759     1 2py  -0.52163     1 2pz  -0.72863     2 1s   -1.89907
                                    2 2px   1.78894     2 2py  -0.53177     2 2pz  -0.73484     3 1s    0.63184     6 1s   -0.62403
   15.1    -0.00000     0.69923     1 2px   0.53174     1 2px  -0.89017     2 2px  -0.53797     2 2px   0.92218     4 1s   -0.25488
                                    4 1s    0.47697     5 1s    0.49149
   16.1    -0.00000     0.75532     1 1s   -0.42058     1 2py  -0.39752     1 2px  -0.69300     1 2py   0.88852     2 1s    0.42669
                                    2 2py  -0.33271     2 2px  -0.64194     2 2py   0.72550     3 1s   -0.49309     4 1s    0.27365
                                    6 1s    0.46960
   17.1    -0.00000     0.78831     1 2py   0.53517     1 2pz   0.33777     1 2py  -1.18118     1 2pz  -0.39168     2 2py  -0.57961
                                    2 2py   1.23381     4 1s   -0.28983     5 1s   -0.27836
   18.1    -0.00000     0.80006     1 1s   -0.39406     1 2pz  -0.69382     1 2pz   0.73272     2 1s    0.33259     2 2pz  -0.75727
                                    2 2py   0.25850     2 2pz   0.80585
   19.1    -0.00000     0.86284     1 1s    0.31382     1 2px   0.25187     1 2pz   0.66624     1 2px  -0.48774     1 2py   0.54754
                                    1 2pz  -1.01898     2 1s    0.31007     2 2px  -0.25388     2 2pz  -0.65848     2 2px   0.49530
                                    2 2py  -0.54268     2 2pz   1.01222     3 1s   -0.27815     6 1s   -0.27704
   20.1    -0.00000     0.98069     1 2px   0.70888     1 2py   0.36527     1 2px  -1.06819     1 2py  -0.78140     2 2px   0.71852
                                    2 2py   0.39115     2 2px  -1.07528     2 2py  -0.80452     4 1s   -1.01586     5 1s    1.01125
   21.1    -0.00000     1.09158     1 1s   -0.54452     1 1s    1.01762     1 2px   0.31912     1 2py   0.28123     1 2px  -0.36990
                                    1 2py  -0.25754     2 1s   -0.69793     2 1s    1.23473     2 2py  -0.52971     2 2px   0.32564
                                    2 2py   0.57722     4 1s    0.46162     4 1s   -0.85403     5 1s    0.82327     5 1s   -1.39069
   22.1    -0.00000     1.12583     1 1s   -0.30620     1 1s    0.54531     1 2py   0.70336     1 2py  -0.93797     2 2px  -0.32121
                                    2 2py   0.49369     2 2px   0.36631     2 2py  -0.73184     3 1s   -0.28721     3 1s    0.73948
                                    4 1s    0.75651     4 1s   -1.30471     5 1s   -0.45893     5 1s    0.73821     6 1s   -0.74578
   23.1    -0.00000     1.15978     1 1s   -0.34325     1 2px   0.37098     1 2px  -1.07954     1 2py   0.42995     2 1s    0.28280
                                    2 2px   0.36171     2 2px  -1.04471     2 2py   0.52035     3 1s    0.52689     3 1s   -1.09563
                                    4 1s    0.52678     4 1s   -0.57238     5 1s   -0.44443     5 1s    0.39739     6 1s   -0.63868
                                    6 1s    1.19202
   24.1    -0.00000     1.19505     1 1s   -0.57379     1 1s    0.85048     1 2px   0.29755     1 2py  -0.32246     1 2px  -0.30080
                                    1 2py   0.30970     2 1s   -0.52014     2 1s    0.82527     2 2px  -0.26399     2 2py   0.32012
                                    2 2py  -0.27389     3 1s    0.81739     3 1s   -1.08913     6 1s    0.75766     6 1s   -0.97297
   25.1    -0.00000     1.25011     1 1s   -1.26239     1 1s    2.33527     1 2px  -0.53255     1 2py   0.55306     1 2pz  -1.01441
                                    2 1s   -1.22332     2 1s    2.13216     2 2px   0.57421     2 2py  -0.58072     2 2pz   0.96657
                                    3 1s   -0.38421     3 1s   -0.98456     4 1s   -0.41278     4 1s   -0.41718     5 1s   -0.37747
                                    5 1s   -0.38633     6 1s   -0.37493     6 1s   -0.96674
   26.1    -0.00000     1.28008     1 1s    1.59682     1 1s   -5.11334     1 2px  -1.25970     1 2py   0.74003     1 2pz   1.19753
                                    2 1s   -1.62130     2 1s    5.12287     2 2px  -1.25128     2 2py   0.71364     2 2pz   1.21982
                                    3 1s    0.46602     4 1s    0.66022     5 1s   -0.26569     5 1s   -0.60755     6 1s   -0.49875
   27.1    -0.00000     1.69033     1 1s    0.62343     1 3d0   0.34506     1 3d2- -0.30256     1 3d2+ -0.32635     2 1s   -0.60920
                                    2 3d0  -0.34112     2 3d2-  0.29988     2 3d2+  0.33043
   28.1    -0.00000     1.91649     1 1s    0.28812     1 1s   -0.58297     1 2pz   0.32551     1 3d0   0.34712     1 3d1+  0.35819
                                    1 3d2+  0.36153     1 3d1-  0.33573     2 1s    0.32543     2 1s   -0.72334     2 2pz  -0.36201
                                    2 3d0   0.35841     2 3d1+  0.31596     2 3d2+  0.34170     2 3d1-  0.29650     3 1s    0.27576
                                    6 1s    0.27578
   29.1    -0.00000     1.93730     1 1s    0.32081     1 1s   -1.39315     1 2px  -0.29847     1 2pz   0.37292     1 3d2-  0.30289
                                    1 3d1+ -0.37757     1 3d1- -0.36295     2 1s   -0.28413     2 1s    1.30354     2 2px  -0.32228
                                    2 2pz   0.32685     2 3d2- -0.30382     2 3d1+  0.41694     2 3d1-  0.40279     3 1s    0.34642
                                    6 1s   -0.31406
   30.1    -0.00000     2.18186     1 1s   -0.36195     1 1s    1.65870     1 2px   0.37878     1 2py  -0.27266     1 2pz  -0.44753
                                    1 3d0  -0.56458     1 3d2+ -0.34611     2 1s    0.33785     2 1s   -1.61742     2 2px   0.37383
                                    2 2py  -0.28617     2 2pz  -0.42661     2 3d0   0.57548     2 3d2+  0.36975     3 1s   -0.36048
                                    4 1s   -0.31594     5 1s    0.33771     6 1s    0.34319
   31.1    -0.00000     2.24611     1 1s   -0.47931     1 1s    0.26863     1 2px  -0.26759     1 2px   0.27367     1 3d2- -0.30367
                                    1 3d1+ -0.39151     1 3d2+  0.39739     2 1s   -0.50054     2 1s    0.38381     2 2px   0.26726
                                    2 2px  -0.30362     2 3d2- -0.32471     2 3d1+ -0.39675     2 3d2+  0.37887
   32.1    -0.00000     2.34334     1 2py   0.38476     1 3d0   0.52328     1 3d2- -0.34182     1 3d1- -0.36353     2 2py  -0.37331
                                    2 3d0   0.50341     2 3d2- -0.38352     2 3d1- -0.38984     3 1s   -0.26375     4 1s    0.39492
                                    5 1s    0.38023     6 1s   -0.31450
   33.1    -0.00000     2.57732     1 1s   -0.25772     1 2py   0.27262     1 3d2- -0.52170     1 3d1- -0.55952     2 1s    0.27657
                                    2 2py   0.31654     2 3d2-  0.44364     2 3d1-  0.63319     3 1s   -0.49091     4 1s    0.38874
                                    5 1s   -0.41157     6 1s    0.49137
   34.1    -0.00000     2.63647     1 1s    0.26707     1 2py  -0.35660     1 3d2- -0.41559     1 3d2+ -0.51502     1 3d1-  0.55651
                                    2 2py   0.29316     2 3d2- -0.48496     2 3d2+ -0.50772     2 3d1-  0.45206     4 1s   -0.39327
                                    5 1s   -0.30898
   35.1    -0.00000     2.72653     1 3d0  -0.40934     1 3d2- -0.48298     1 3d1+  0.50969     1 3d1- -0.29322     2 3d0  -0.41951
                                    2 3d2- -0.46251     2 3d1+  0.49289     2 3d1- -0.25855     3 1s   -0.48500     6 1s   -0.46024
   36.1    -0.00000     2.95566     1 1s    1.74636     1 2px   0.43083     1 2px   0.88685     1 2pz  -0.44481     1 3d2- -0.34643
                                    1 3d1+ -0.69757     1 3d2+  0.64819     2 1s   -1.75234     2 2px   0.42859     2 2px   0.88519
                                    2 2py  -0.25320     2 2pz  -0.45049     2 3d2-  0.34358     2 3d1+  0.70095     2 3d2+ -0.63579


 Natural orbital dump (state averaged) at molpro section  2140.2    (Orbital set 2)



 **********************************************************************************************************************************
 DATASETS  * FILE   NREC   LENGTH (MB)   RECORD NAMES
              1      20       31.86       500      610      700      900      950      970     1000      129      960     1100   
                                          VAR    BASINP    GEOM    SYMINP    ZMAT    AOBASIS   BASIS     P2S    ABASIS      S 
                                         1400     1410     1200     1210     1080     1600     1650     1300     1700     1380   
                                           T        V       H0       H01     AOSYM     SMH    MOLCAS    ERIS     OPER     JKOP   

              2       5        5.42       700     1000      520     2100     2140   
                                         GEOM     BASIS   MCVARS     RHF     MCSCF   

 PROGRAMS   *        TOTAL     MULTI    HF-SCF       INT
 CPU TIMES  *         0.81      0.39      0.12      0.20
 REAL TIME  *         1.16 SEC
 DISK USED  *        39.04 MB
 **********************************************************************************************************************************
 Molecular orbitals read from record     2140.2  Type=MCSCF/NATURAL (state averaged)
 Occupation numbers read from record     2140.2  Type=MCSCF/NATURAL (state averaged)
 Orbital energies read from record       2140.2  Type=MCSCF/NATURAL (state averaged)
 Redundancy group numbers read from rec  2140.2  Type=MCSCF/NATURAL (state averaged)

 MULTI/6-31G* energy=    -77.552336913906

           MULTI          HF-SCF
    -77.55233691    -77.84838538
 **********************************************************************************************************************************
 Molpro calculation terminated
