
 Primary working directories    : /scratch.local/johan406.molpro_temp/molpro.Nf2EympcVL
 Secondary working directories  : /scratch.local/johan406.molpro_temp/molpro.Nf2EympcVL
 Wavefunction directory         : /home/goodpast/johan406/wfu/
 Main file repository           : /scratch.local/johan406.molpro_temp/molpro.Nf2EympcVL/

 id        : roweumn

 Nodes     nprocs
 acn09        1

 Using customized tuning parameters: mindgm=1; mindgv=20; mindgc=4; mindgr=1; noblas=0; minvec=7
 default implementation of scratch files=df  


 Variables initialized (934), CPU time= 0.00 sec
                                                                                 !leave this line blank
 
 gprint, orbitals=30
 memory, 125., m
 symmetry, nosym
 nelect=16
 basis=6-31g*
 
 geometry={
 C -0.6273 0.1357 0.2983
 C 0.6346 -0.1896 -0.3594
 H -1.2667 0.8936 -0.153
 H -0.953 -0.8398 -0.1338
 H 0.9803 0.8423 0.0806
 H 1.2764 -0.9491 0.0965
 }
 
 hf
 {multi,
 closed 7
 occ 9
 wf,spin=0;STATE,3
 }
 
 Commands  initialized (763), CPU time= 0.01 sec, 617 directives.
 Default parameters read. Elapsed time= 0.07 sec

 Checking input...
 Passed
1


                                         ***  PROGRAM SYSTEM MOLPRO  ***
                                       Copyright, TTI GmbH Stuttgart, 2015
                                    Version 2019.2 linked Oct 25 2019 22:50:27


 **********************************************************************************************************************************
 LABEL *                                                                                 
  64 bit serial version                                                                  DATE: 07-Feb-23          TIME: 15:44:01  
 **********************************************************************************************************************************

 SHA1:             8dbd9ae1082e4ce945b0f27595c9eb2d4aa09004
 **********************************************************************************************************************************


 Variable memory set to  125000000 words,  buffer space 

 SETTING NELECT         =        16.00000000                                  
 SETTING BASIS          =    6-31G*
 ZSYMEL=NOSYM


Geometry recognized as XYZ



 Recomputing integrals since basis changed


 Using spherical harmonics

 Library entry C      S 6-31G                selected for orbital group  1
 Library entry C      P 6-31G                selected for orbital group  1
 Library entry C      D 6-31G*               selected for orbital group  1
 Library entry H      S 6-31G                selected for orbital group  2


 PROGRAM * SEWARD (Integral evaluation for generally contracted gaussian basis sets)     Author: Roland Lindh, 1990

 Geometry written to block  1 of record 700


 Point group  C1  



 ATOMIC COORDINATES

 NR  ATOM    CHARGE       X              Y              Z

   1  C       6.00   -1.185425198    0.256435835    0.563705303
   2  C       6.00    1.199220199   -0.358292073   -0.679167569
   3  H       1.00   -2.393716082    1.688659265   -0.289128097
   4  H       1.00   -1.800908997   -1.586991999   -0.252845355
   5  H       1.00    1.852498520    1.591716315    0.152311926
   6  H       1.00    2.412046425   -1.793539065    0.182358571

 Bond lengths in Bohr (Angstrom)

 1-2  2.758470055  1-3  2.058775272  1-4  2.108032605  2-5  2.218256845  2-6  2.067149891
     ( 1.459719490)     ( 1.089456956)     ( 1.115522815)     ( 1.173850970)     ( 1.093888614)

 Bond angles

  1-2-5   83.67317887   1-2-6  118.30396370   2-1-3  118.40810178   2-1-4   83.28084531

  3-1-4  106.05327841   5-2-6  106.34036971

 NUCLEAR CHARGE:                   16
 NUMBER OF PRIMITIVE AOS:          72
 NUMBER OF SYMMETRY AOS:           70
 NUMBER OF CONTRACTIONS:           36   (   36A   )
 NUMBER OF CORE ORBITALS:           2   (    2A   )
 NUMBER OF VALENCE ORBITALS:       12   (   12A   )


 NUCLEAR REPULSION ENERGY   32.37108838

 Eigenvalues of metric

         1 0.925E-02 0.273E-01 0.595E-01 0.639E-01 0.809E-01 0.218E+00 0.237E+00 0.272E+00


 Contracted 2-electron integrals neglected if value below      1.0D-11
 AO integral compression algorithm  1   Integral accuracy      1.0D-11

     1.573 MB (compressed) written to integral file ( 59.2%)


 NUMBER OF SORTED TWO-ELECTRON INTEGRALS:     222111.     BUFFER LENGTH:  32768
 NUMBER OF SEGMENTS:   1  SEGMENT LENGTH:     222111      RECORD LENGTH: 524288

 Memory used in sort:       0.78 MW

 SORT1 READ      284735. AND WROTE      212531. INTEGRALS IN      1 RECORDS. CPU TIME:     0.01 SEC, REAL TIME:     0.01 SEC
 SORT2 READ      212531. AND WROTE      222111. INTEGRALS IN      6 RECORDS. CPU TIME:     0.02 SEC, REAL TIME:     0.02 SEC

 FILE SIZES:   FILE 1:    31.7 MBYTE,  FILE 4:     4.2 MBYTE,   TOTAL:     35.9 MBYTE

 OPERATOR DM      FOR CENTER  0  COORDINATES:    0.000000    0.000000    0.000000


 **********************************************************************************************************************************
 DATASETS  * FILE   NREC   LENGTH (MB)   RECORD NAMES
              1      19       31.13       500      610      700      900      950      970     1000      129      960     1100   
                                          VAR    BASINP    GEOM    SYMINP    ZMAT    AOBASIS   BASIS     P2S    ABASIS      S 
                                         1400     1410     1200     1210     1080     1600     1650     1300     1700   
                                           T        V       H0       H01     AOSYM     SMH    MOLCAS    ERIS     OPER   

 PROGRAMS   *        TOTAL       INT
 CPU TIMES  *         0.31      0.20
 REAL TIME  *         0.51 SEC
 DISK USED  *        36.24 MB
 **********************************************************************************************************************************


 PROGRAM * RHF-SCF (CLOSED SHELL)       Authors: W. Meyer, H.-J. Werner


 NUMBER OF ELECTRONS:       8+    8-    SPACE SYMMETRY=1    SPIN SYMMETRY: Singlet 
 CONVERGENCE THRESHOLDS:    1.00E-05 (Density)    1.00E-07 (Energy)
 MAX. NUMBER OF ITERATIONS:       60
 INTERPOLATION TYPE:            DIIS
 INTERPOLATION STEPS:              2 (START)      1 (STEP)
 LEVEL SHIFTS:                  0.00 (CLOSED)  0.00 (OPEN) 



 Orbital guess generated from atomic densities. Full valence occupancy:    8

 Molecular orbital dump at record        2100.2

 Initial occupancy:   8

 ITERATION    DDIFF          GRAD             ENERGY        2-EL.EN.            DIPOLE MOMENTS         DIIS   ORB.
    1      0.000D+00      0.000D+00       -77.82682837    115.948914    0.03398   -0.00690   -0.02755    0    start
    2      0.000D+00      0.707D-02       -77.84489034    114.924306   -0.02610   -0.00521    0.03026    1    diag
    3      0.759D-02      0.234D-02       -77.84698342    115.335818    0.00325   -0.02819   -0.01874    2    diag
    4      0.299D-02      0.933D-03       -77.84745530    115.224024   -0.02753   -0.01413    0.02134    3    diag
    5      0.163D-02      0.414D-03       -77.84756139    115.212130   -0.01528   -0.02394    0.00103    4    diag
    6      0.608D-03      0.232D-03       -77.84764385    115.221417   -0.02105   -0.02198    0.00745    5    diag
    7      0.705D-03      0.102D-03       -77.84767334    115.222635   -0.02143   -0.02229    0.00716    6    diag
    8      0.523D-03      0.292D-04       -77.84767545    115.223666   -0.02137   -0.02225    0.00715    7    diag
    9      0.144D-03      0.840D-05       -77.84767559    115.223855   -0.02128   -0.02221    0.00711    8    diag
   10      0.363D-04      0.242D-05       -77.84767560    115.223831   -0.02125   -0.02222    0.00709    9    orth
   11      0.680D-05      0.566D-06       -77.84767560    115.223835   -0.02125   -0.02221    0.00710    0    orth

 Final occupancy:   8

 !RHF STATE  1.1 Energy               -77.847675598272
 Nuclear energy                        32.37108838
 One-electron energy                 -167.83068161
 Two-electron energy                   57.61191763
 Virial quotient                       -1.00117224
 !RHF STATE  1.1 Dipole moment         -0.02124856    -0.02221231     0.00709732
 Dipole moment /Debye                  -0.05400492    -0.05645436     0.01803841

 ELECTRON ORBITALS
 =================

  Orbital  Occupation    Energy     Coefficients
    1.1     2.00000   -11.26271     2 1s    0.99418
    2.1     2.00000   -11.25617     1 1s    0.99417
    3.1     2.00000    -1.03748     1 1s    0.28751     2 1s    0.27843
    4.1     2.00000    -0.78444     1 1s   -0.28459     2 1s    0.30040
    5.1     2.00000    -0.62204     1 2py   0.32364     2 2py   0.29261
    6.1     2.00000    -0.56157     1 2px   0.30165     2 2px  -0.29677
    7.1     2.00000    -0.39204     1 2pz   0.29190     1 2pz   0.27522     2 2pz   0.31768     2 2pz   0.28795
    8.1     2.00000    -0.38696     1 2px  -0.25346     2 2px   0.28537     4 1s    0.27181     5 1s    0.29249
    9.1     0.00000     0.06323     1 1s   -0.38732     1 2pz  -0.33179     1 2pz  -0.47373     2 1s   -0.40825     2 2pz   0.32942
                                    2 2pz   0.46362
   10.1     0.00000     0.23111     1 1s   -1.10665     1 2px   0.46032     1 2py   0.34015     1 2pz   0.43427     2 1s   -1.07737
                                    2 2px  -0.50220     2 2py  -0.39450     2 2pz  -0.42841     3 1s    0.58074     4 1s    1.04105
                                    5 1s    1.12686     6 1s    0.55884
   11.1     0.00000     0.28219     1 1s    1.54459     1 2py   0.34575     1 2pz  -0.44305     2 1s   -1.59108     2 2py   0.37118
                                    2 2pz  -0.47968     3 1s   -1.40813     6 1s    1.48374
   12.1     0.00000     0.31280     1 1s   -0.92235     1 2px   0.43264     1 2py  -0.92340     1 2pz   0.50110     2 1s   -0.60567
                                    2 2px  -0.36621     2 2py   1.07914     2 2pz  -0.40802     3 1s    1.59609     5 1s   -0.59944
                                    6 1s    1.50953
   13.1     0.00000     0.33612     1 1s   -1.08828     1 2px   0.25965     1 2py   0.92714     1 2pz   0.29314     2 1s    1.01035
                                    2 2px   0.30166     2 2py   0.58675     2 2pz   0.34259     4 1s    1.88567     5 1s   -1.49374
   14.1     0.00000     0.42350     1 1s    2.01973     1 2px   1.79292     1 2py  -0.62447     1 2pz  -0.78157     2 1s   -2.03674
                                    2 2px   1.76986     2 2py  -0.63945     2 2pz  -0.79564     3 1s    0.63999     6 1s   -0.61565
   15.1     0.00000     0.70259     1 2px   0.54306     1 2px  -0.89316     2 2px  -0.55550     2 2px   0.96434     4 1s    0.41205
                                    5 1s    0.43891
   16.1     0.00000     0.75741     1 1s   -0.30518     1 2px   0.25151     1 2py  -0.46443     1 2px  -0.66971     1 2py   1.01048
                                    2 1s    0.34706     2 2py  -0.27528     2 2px  -0.54928     2 2py   0.55836     3 1s   -0.50630
                                    4 1s    0.28814     6 1s    0.44495
   17.1     0.00000     0.78895     1 2py   0.49463     1 2pz   0.45965     1 2py  -1.08538     1 2pz  -0.45075     2 1s   -0.30161
                                    2 2py  -0.60664     2 2px  -0.26271     2 2py   1.23808     4 1s   -0.28250     6 1s    0.25250
                                    6 1s    0.25252
   18.1     0.00000     0.80087     1 2pz  -0.62205     1 2pz   0.60081     2 2pz  -0.78155     2 2py   0.48008     2 2pz   0.74344
   19.1     0.00000     0.86472     1 1s    0.35872     1 2pz   0.69416     1 2px  -0.44606     1 2py   0.54416     1 2pz  -0.96409
                                    2 1s    0.35036     2 2pz  -0.67987     2 2px   0.46386     2 2py  -0.53664     2 2pz   0.95694
   20.1     0.00000     0.97384     1 2px   0.70625     1 2py   0.34319     1 2px  -1.14635     1 2py  -0.74811     2 1s    0.25468
                                    2 2px   0.72547     2 2py   0.40062     2 2px  -1.15655     2 2py  -0.80075     4 1s   -1.06587
                                    5 1s    1.03716
   21.1     0.00000     1.11209     1 1s   -0.49050     1 1s    0.86998     1 2px   0.35759     1 2px  -0.48935     2 1s   -0.70941
                                    2 1s    1.32499     2 2py  -0.58740     2 2py   0.68025     3 1s   -0.31222     4 1s    0.32513
                                    4 1s   -0.64736     5 1s    0.86859     5 1s   -1.49029
   22.1     0.00000     1.14061     1 1s    0.57768     1 2px  -0.29943     1 2py   0.67260     1 2px   0.62864     1 2py  -1.02463
                                    2 1s   -0.38021     2 1s    0.36751     2 2px  -0.47235     2 2py   0.41563     2 2px   0.88910
                                    2 2py  -0.77951     3 1s   -0.57050     3 1s    1.20260     4 1s    0.39130     4 1s   -0.91121
                                    6 1s    0.49381     6 1s   -1.28672
   23.1     0.00000     1.18311     1 1s    0.29096     1 2py  -0.44302     1 2px   0.47663     1 2py   0.29706     2 1s   -0.40191
                                    2 2pz  -0.26728     2 2px   0.63992     3 1s    0.26661     4 1s   -0.67409     4 1s    0.97690
                                    5 1s    0.47069     5 1s   -0.46558     6 1s    0.78474     6 1s   -1.02075
   24.1     0.00000     1.19520     1 1s   -0.84101     1 1s    1.03686     1 2px   0.35711     1 2pz   0.31420     1 2px  -0.74584
                                    2 1s   -0.42770     2 1s    1.03403     2 2py   0.29477     3 1s    0.77848     3 1s   -1.22988
                                    4 1s    0.55405     4 1s   -0.78557     5 1s   -0.36347     5 1s    0.34957     6 1s    0.34859
                                    6 1s   -0.54481
   25.1     0.00000     1.25937     1 1s   -1.28689     1 1s    2.60497     1 2px  -0.39928     1 2py   0.48144     1 2pz  -1.09700
                                    2 1s   -1.05419     2 1s    1.62366     2 2px   0.64773     2 2py  -0.61296     2 2pz   0.86465
                                    3 1s   -0.42804     3 1s   -0.95110     4 1s   -0.50248     4 1s   -0.38968     5 1s   -0.35964
                                    5 1s   -0.29632     6 1s   -0.38771     6 1s   -0.87830
   26.1     0.00000     1.28669     1 1s    1.52549     1 1s   -5.00060     1 2px  -1.26600     1 2py   0.82099     1 2pz   1.15197
                                    2 1s   -1.67251     2 1s    5.17771     2 2px  -1.20586     2 2py   0.70576     2 2pz   1.28639
                                    3 1s    0.38376     4 1s    0.74026     5 1s   -0.30554     5 1s   -0.61210     6 1s   -0.53887
   27.1     0.00000     1.69554     1 1s    0.60432     1 3d0   0.35455     1 3d2- -0.30075     1 3d2+ -0.32138     2 1s   -0.57140
                                    2 3d0  -0.34431     2 3d2-  0.29353     2 3d2+  0.33133
   28.1     0.00000     1.91874     1 1s    0.26609     1 1s   -0.47684     1 2pz   0.29865     1 3d0   0.34063     1 3d1+  0.39153
                                    1 3d2+  0.36841     1 3d1-  0.36299     2 1s    0.36104     2 1s   -0.83676     2 2pz  -0.39245
                                    2 3d0   0.36610     2 3d1+  0.28513     2 3d2+  0.31685     2 3d1-  0.26384     3 1s    0.27522
                                    6 1s    0.26271     6 1s    0.27684
   29.1     0.00000     1.94067     1 1s    0.35355     1 1s   -1.48418     1 2px  -0.28891     1 2pz   0.41445     1 3d2-  0.30388
                                    1 3d1+ -0.34077     1 3d1- -0.33149     2 1s   -0.25935     2 1s    1.25727     2 2px  -0.34707
                                    2 2pz   0.29801     2 3d2- -0.30382     2 3d1+  0.44131     2 3d1-  0.43145     3 1s    0.36707
                                    6 1s   -0.28605
   30.1     0.00000     2.18089     1 1s   -0.36973     1 1s    1.68643     1 2px   0.38434     1 2py  -0.26142     1 2pz  -0.46308
                                    1 3d0  -0.55220     1 3d2+ -0.32886     2 1s    0.31936     2 1s   -1.59438     2 2px   0.37416
                                    2 2py  -0.29104     2 2pz  -0.41753     2 3d0   0.57891     2 3d2+  0.38117     3 1s   -0.36879
                                    4 1s   -0.30609     5 1s    0.35449     6 1s    0.33095
   31.1     0.00000     2.25090     1 1s   -0.47358     1 2px  -0.26083     1 2px   0.26588     1 3d2- -0.27550     1 3d1+ -0.37904
                                    1 3d2+  0.40791     2 1s   -0.51663     2 1s    0.43851     2 2px   0.26015     2 2px  -0.32883
                                    2 3d2- -0.32151     2 3d1+ -0.38919     2 3d2+  0.36964
   32.1     0.00000     2.34928     1 2py   0.37439     1 3d0   0.53279     1 3d2- -0.31611     1 3d1- -0.33037     2 2py  -0.34855
                                    2 3d0   0.48873     2 3d2- -0.41909     2 3d1- -0.39409     4 1s    0.41536     5 1s    0.38031
                                    6 1s   -0.33578
   33.1     0.00000     2.58174     1 3d2- -0.55713     1 3d1- -0.49868     2 1s    0.28815     2 2py   0.33756     2 3d2-  0.38720
                                    2 3d1-  0.66938     3 1s   -0.47475     4 1s    0.37391     5 1s   -0.42696     6 1s    0.48493
   34.1     0.00000     2.64666     1 1s    0.35682     1 2py  -0.38621     1 3d2- -0.36714     1 3d2+ -0.51288     1 3d1-  0.61148
                                    2 3d2- -0.52112     2 3d2+ -0.50061     2 3d1-  0.37396     4 1s   -0.45746     5 1s   -0.25988
   35.1     0.00000     2.72223     1 3d0  -0.39015     1 3d2- -0.50659     1 3d1+  0.51652     1 3d1- -0.32974     2 3d0  -0.41822
                                    2 3d2- -0.45154     2 3d1+  0.47147     3 1s   -0.50674     6 1s   -0.44076
   36.1     0.00000     2.96033     1 1s    1.70777     1 2px   0.43858     1 2px   0.87497     1 2pz  -0.43141     1 3d2- -0.35143
                                    1 3d1+ -0.69165     1 3d2+  0.66069     2 1s   -1.72388     2 2px   0.43263     2 2px   0.87071
                                    2 2py  -0.25123     2 2pz  -0.44605     2 3d2-  0.34427     2 3d1+  0.70010     2 3d2+ -0.62922


 HOMO      8.1    -0.386961 =     -10.5297eV
 LUMO      9.1     0.063230 =       1.7206eV
 LUMO-HOMO         0.450190 =      12.2503eV


 **********************************************************************************************************************************
 DATASETS  * FILE   NREC   LENGTH (MB)   RECORD NAMES
              1      19       31.13       500      610      700      900      950      970     1000      129      960     1100   
                                          VAR    BASINP    GEOM    SYMINP    ZMAT    AOBASIS   BASIS     P2S    ABASIS      S 
                                         1400     1410     1200     1210     1080     1600     1650     1300     1700   
                                           T        V       H0       H01     AOSYM     SMH    MOLCAS    ERIS     OPER   

              2       4        2.86       700     1000      520     2100   
                                         GEOM     BASIS   MCVARS     RHF  

 PROGRAMS   *        TOTAL    HF-SCF       INT
 CPU TIMES  *         0.42      0.11      0.20
 REAL TIME  *         0.67 SEC
 DISK USED  *        36.24 MB
 **********************************************************************************************************************************


 PROGRAM * MULTI (Direct Multiconfiguration SCF)       Authors: P.J. Knowles, H.-J. Werner (1984)


 Number of closed-shell orbitals:   7 (   7 )
 Number of active  orbitals:        2 (   2 )
 Number of external orbitals:      27 (  27 )

 State symmetry 1

 Number of electrons:     2    Spin symmetry=Singlet   Space symmetry=1
 Number of states:        3
 Number of CSFs:          3   (4 determinants, 4 intermediate states)

 Molecular orbitals read from record     2100.2  Type=RHF/CANONICAL (state 1.1)

 Wavefunction dump at record             2140.2

 Convergence thresholds  0.10E-01 (gradient)  0.10E-05 (energy)  0.10E-02 (step length)

 Weight factors for state symmetry  1:    0.33333   0.33333   0.33333

 Number of orbital rotations:      257   (    14 Core/Active    189 Core/Virtual   0 Active/Active     54 Active/Virtual)
 Total number of variables:        269

 Micro-Iterations solved by the two-step solver

 ITER. MIC  NCI  NEG     ENERGY(VAR)     ENERGY(PROJ)   ENERGY CHANGE     GRAD(0)  GRAD(ORB)   GRAD(CI)     STEP       TIME

   1   12    7    0     -77.68924921     -77.71078990   -0.02154068    0.16536771 0.00121310 0.00000000  0.16D+00      0.16
   2    7    5    0     -77.71028068     -77.71035274   -0.00007206    0.01307800 0.00002756 0.00000000  0.74D-02      0.26
   3    7    5    0     -77.71035291     -77.71035292   -0.00000000    0.00004889 0.00000000 0.00000000  0.54D-04      0.36
   4    3    3    0     -77.71035292     -77.71035292    0.00000000    0.00000000 0.00000000 0.00000000  0.18D-08      0.42

 ** WVFN ****  CONVERGENCE REACHED, FINAL GRADIENT:  0.91D-13



 Results for state 1.1
 =====================

 !MCSCF STATE  1.1 Energy             -77.841286890669
 Nuclear energy                        32.37108838
 Kinetic energy                        77.81215078
 One electron energy                 -167.90670308
 Two electron energy                   57.69432781
 Virial ratio                           2.00037444

 !MCSCF STATE  1.1 Dipole moment       -0.03069868    -0.03558753     0.00843529
 Dipole moment /Debye                  -0.07802315    -0.09044856     0.02143896

 Results for state 2.1
 =====================

 !MCSCF STATE  2.1 Energy             -77.738072362828
 Nuclear energy                        32.37108838
 Kinetic energy                        77.88796163
 One electron energy                 -167.60254251
 Two electron energy                   57.49338177
 Virial ratio                           1.99807558

 !MCSCF STATE  2.1 Dipole moment        0.00936465     0.00673130    -0.00021499
 Dipole moment /Debye                   0.02380100     0.01710815    -0.00054643

 Results for state 3.1
 =====================

 !MCSCF STATE  3.1 Energy             -77.551699491682
 Nuclear energy                        32.37108838
 Kinetic energy                        77.94955514
 One electron energy                 -167.34549277
 Two electron energy                   57.42270490
 Virial ratio                           1.99489599

 !MCSCF STATE  3.1 Dipole moment        0.06161607     0.05747744    -0.00822480
 Dipole moment /Debye                   0.15660218     0.14608352    -0.02090400

 State-averaged charge density matrix saved on record  2140.2 (density set 1)

 !MCSCF expec         <1.1|DMX|1.1>    -0.030698678734 au =    -0.078023147898 Debye
 !MCSCF trans         <2.1|DMX|1.1>    -0.028098479632 au =    -0.071414533863 Debye
 !MCSCF expec         <2.1|DMX|2.1>     0.009364646402 au =     0.023800998002 Debye
 !MCSCF trans         <3.1|DMX|1.1>    -0.002331431792 au =    -0.005925520413 Debye
 !MCSCF trans         <3.1|DMX|2.1>    -0.027333078986 au =    -0.069469206890 Debye
 !MCSCF expec         <3.1|DMX|3.1>     0.061616071915 au =     0.156602176057 Debye

 !MCSCF expec         <1.1|DMY|1.1>    -0.035587532016 au =    -0.090448559621 Debye
 !MCSCF trans         <2.1|DMY|1.1>    -0.019990681339 au =    -0.050807915876 Debye
 !MCSCF expec         <2.1|DMY|2.1>     0.006731303877 au =     0.017108147308 Debye
 !MCSCF trans         <3.1|DMY|1.1>    -0.002996566136 au =    -0.007616012561 Debye
 !MCSCF trans         <3.1|DMY|2.1>    -0.018387490474 au =    -0.046733278039 Debye
 !MCSCF expec         <3.1|DMY|3.1>     0.057477441923 au =     0.146083516842 Debye

 !MCSCF expec         <1.1|DMZ|1.1>     0.008435288634 au =     0.021438960886 Debye
 !MCSCF trans         <2.1|DMZ|1.1>    -0.001062767417 au =    -0.002701108412 Debye
 !MCSCF expec         <2.1|DMZ|2.1>    -0.000214994453 au =    -0.000546425602 Debye
 !MCSCF trans         <3.1|DMZ|1.1>     0.000896217579 au =     0.002277808673 Debye
 !MCSCF trans         <3.1|DMZ|2.1>    -0.001812766573 au =    -0.004607291267 Debye
 !MCSCF expec         <3.1|DMZ|3.1>    -0.008224804839 au =    -0.020903999483 Debye


 NATURAL ORBITALS (state averaged)
 =================================

  Orbital  Occupation    Energy     Coefficients
    1.1     2.00000   -11.25764     2 1s    0.99482
    2.1     2.00000   -11.25075     1 1s    0.99480
    3.1     2.00000    -1.05022     1 1s    0.28256     2 1s    0.27327
    4.1     2.00000    -0.78528     1 1s   -0.31001     2 1s    0.32542
    5.1     2.00000    -0.62492     1 2py   0.31360     2 2py   0.28978
    6.1     2.00000    -0.55992     1 2px   0.26102     2 2px  -0.25727
    7.1     2.00000    -0.41937     1 2pz   0.32329     1 2pz   0.28017     2 2pz   0.32682     2 2pz   0.28121
    8.1     1.00000    -0.08690     1 1s   -0.26302     1 2pz  -0.40588     1 2pz  -0.43255     2 1s   -0.27168     2 2pz   0.40302
                                    2 2pz   0.42673
    9.1     1.00000    -0.23076     1 2px  -0.30991     2 2px   0.31038     4 1s    0.28917     5 1s    0.29969
   10.1    -0.00000     0.21899     1 1s   -1.08045     1 2px   0.45980     1 2py   0.34624     1 2pz   0.36526     2 1s   -1.11643
                                    2 2px  -0.49397     2 2py  -0.41814     2 2pz  -0.38040     3 1s    0.53960     4 1s    1.02959
                                    5 1s    1.15447     6 1s    0.53509
   11.1    -0.00000     0.28121     1 1s    1.66023     1 2py   0.28081     1 2pz  -0.47093     2 1s   -1.65574     2 2py   0.30568
                                    2 2pz  -0.48619     3 1s   -1.41572     6 1s    1.45583
   12.1    -0.00000     0.31418     1 1s   -1.26907     1 2px   0.44145     1 2py  -0.52293     1 2pz   0.54976     2 1s   -0.30730
                                    2 2py   0.28249     2 2px  -0.30612     2 2py   1.24258     2 2pz  -0.25286     3 1s    1.38827
                                    4 1s    0.46775     5 1s   -1.01731     6 1s    1.47353
   13.1    -0.00000     0.32167     1 1s   -0.71473     1 2py   0.29990     1 2py   1.25049     2 1s    1.17216     2 2px   0.28287
                                    2 2py   0.27513     2 2pz   0.45514     3 1s   -0.82552     4 1s    1.85051     5 1s   -1.23464
                                    6 1s   -0.51836
   14.1    -0.00000     0.42971     1 1s    1.87287     1 2px   1.80379     1 2py  -0.51281     1 2pz  -0.72300     2 1s   -1.90589
                                    2 2px   1.78226     2 2py  -0.53815     2 2pz  -0.73845     3 1s    0.63792     6 1s   -0.61851
   15.1    -0.00000     0.69918     1 2px   0.52629     1 2px  -0.86514     2 2px  -0.54194     2 2px   0.94519     4 1s   -0.26163
                                    4 1s    0.46390     5 1s    0.50046
   16.1    -0.00000     0.75468     1 1s   -0.42678     1 2px   0.25411     1 2py  -0.43898     1 2px  -0.72403     1 2py   1.00068
                                    2 1s    0.44000     2 2py  -0.28217     2 2px  -0.59763     2 2py   0.60445     3 1s   -0.50311
                                    4 1s    0.29296     6 1s    0.44571
   17.1    -0.00000     0.78813     1 2py   0.48077     1 2pz   0.43713     1 2py  -1.09561     1 2pz  -0.50289     2 1s   -0.29900
                                    2 2py  -0.58747     2 2px  -0.26293     2 2py   1.22284     4 1s   -0.28496     5 1s   -0.25885
   18.1    -0.00000     0.80080     1 1s   -0.41496     1 2pz  -0.62949     1 2pz   0.65651     2 1s    0.26933     2 2pz  -0.77910
                                    2 2py   0.44929     2 2pz   0.82894
   19.1    -0.00000     0.86284     1 1s    0.31634     1 2px   0.25017     1 2pz   0.67172     1 2px  -0.48220     1 2py   0.55325
                                    1 2pz  -1.02363     2 1s    0.30694     2 2px  -0.25524     2 2pz  -0.65221     2 2px   0.50080
                                    2 2py  -0.54080     2 2pz   1.00685     3 1s   -0.27961     6 1s   -0.27668
   20.1    -0.00000     0.98051     1 2px   0.70049     1 2py   0.34748     1 2px  -1.06266     1 2py  -0.76586     2 2px   0.72480
                                    2 2py   0.41211     2 2px  -1.08051     2 2py  -0.82362     4 1s   -1.02352     5 1s    1.01314
   21.1    -0.00000     1.08358     1 1s   -0.41285     1 1s    0.80401     1 2px   0.34148     1 2px  -0.36024     2 1s   -0.71397
                                    2 1s    1.23786     2 2py  -0.58295     2 2px   0.27788     2 2py   0.65674     4 1s    0.26299
                                    4 1s   -0.54273     5 1s    0.93056     5 1s   -1.51032
   22.1    -0.00000     1.13316     1 1s   -0.35715     1 1s    0.72681     1 2py   0.76056     1 2py  -1.02179     2 1s    0.34766
                                    2 2px  -0.39382     2 2py   0.40244     2 2px   0.54879     2 2py  -0.67349     3 1s   -0.38791
                                    3 1s    0.85958     4 1s    0.74174     4 1s   -1.37120     5 1s    0.38667     6 1s    0.25641
                                    6 1s   -0.88558
   23.1    -0.00000     1.16153     1 1s    0.39229     1 2px  -0.34879     1 2px   1.07063     1 2py  -0.26189     2 1s   -0.31685
                                    2 2px  -0.32079     2 2px   0.97067     2 2py  -0.50422     3 1s   -0.39297     3 1s    0.91114
                                    4 1s   -0.64144     4 1s    0.81178     5 1s    0.41655     5 1s   -0.32738     6 1s    0.69047
                                    6 1s   -1.15875
   24.1    -0.00000     1.19587     1 1s   -0.63460     1 1s    0.90301     1 2px   0.32570     1 2py  -0.30798     1 2px  -0.39061
                                    1 2py   0.32388     2 1s   -0.50145     2 1s    0.84965     2 2py   0.30967     3 1s    0.84866
                                    3 1s   -1.17227     6 1s    0.69966     6 1s   -0.88716
   25.1    -0.00000     1.25040     1 1s   -1.28385     1 1s    2.48034     1 2px  -0.49544     1 2py   0.53252     1 2pz  -1.04828
                                    2 1s   -1.18467     2 1s    1.96561     2 2px   0.60366     2 2py  -0.60195     2 2pz   0.92718
                                    3 1s   -0.39421     3 1s   -0.99158     4 1s   -0.44350     4 1s   -0.43525     5 1s   -0.35246
                                    5 1s   -0.36085     6 1s   -0.37012     6 1s   -0.94770
   26.1    -0.00000     1.28038     1 1s    1.57862     1 1s   -5.09958     1 2px  -1.26143     1 2py   0.76161     1 2pz   1.17911
                                    2 1s   -1.63956     2 1s    5.12357     2 2px  -1.24062     2 2py   0.69450     2 2pz   1.23539
                                    3 1s    0.44117     4 1s    0.70583     5 1s   -0.28970     5 1s   -0.57331     6 1s   -0.52326
   27.1    -0.00000     1.69027     1 1s    0.63341     1 3d0   0.34795     1 3d2- -0.30451     1 3d2+ -0.32331     2 1s   -0.59798
                                    2 3d0  -0.33822     2 3d2-  0.29789     2 3d2+  0.33341
   28.1    -0.00000     1.91604     1 1s    0.25839     1 1s   -0.47543     1 2pz   0.29557     1 3d0   0.33769     1 3d1+  0.38545
                                    1 3d2+  0.37393     1 3d1-  0.36030     2 1s    0.34907     2 1s   -0.81592     2 2pz  -0.38415
                                    2 3d0   0.36507     2 3d1+  0.28313     2 3d2+  0.32587     2 3d1-  0.26532     3 1s    0.27284
                                    6 1s    0.26149     6 1s    0.27293
   29.1    -0.00000     1.93751     1 1s    0.34381     1 1s   -1.44765     1 2px  -0.27853     1 2pz   0.40338     1 3d2-  0.30046
                                    1 3d1+ -0.34664     1 3d1- -0.33203     2 1s   -0.25484     2 1s    1.22953     2 2px  -0.33642
                                    2 2pz   0.29131     2 3d2- -0.30245     2 3d1+  0.44222     2 3d1-  0.42892     3 1s    0.36764
                                    6 1s   -0.28880
   30.1    -0.00000     2.18093     1 1s   -0.37703     1 1s    1.67642     1 2px   0.37891     1 2py  -0.26125     1 2pz  -0.45945
                                    1 3d0  -0.55481     1 3d2+ -0.32842     2 1s    0.31820     2 1s   -1.57473     2 2px   0.36725
                                    2 2py  -0.29483     2 2pz  -0.40792     2 3d0   0.58186     2 3d2+  0.38623     3 1s   -0.36952
                                    4 1s   -0.29783     5 1s    0.35123     6 1s    0.32672
   31.1    -0.00000     2.24634     1 1s   -0.46404     1 2px  -0.26698     1 2px   0.25283     1 3d2- -0.28603     1 3d1+ -0.38593
                                    1 3d2+  0.40980     2 1s   -0.51559     2 1s    0.46441     2 2px   0.26622     2 2px  -0.32582
                                    2 3d2- -0.33748     2 3d1+ -0.39861     2 3d2+  0.36470
   32.1    -0.00000     2.34326     1 2py   0.39175     1 3d0   0.53557     1 3d2- -0.31033     1 3d1- -0.34296     2 2py  -0.36314
                                    2 3d0   0.48621     2 3d2- -0.41366     2 3d1- -0.40795     4 1s    0.40460     5 1s    0.36782
                                    6 1s   -0.35085
   33.1    -0.00000     2.57634     1 3d2- -0.56813     1 3d1- -0.49585     2 1s    0.27370     2 2py   0.33923     2 3d2-  0.38000
                                    2 3d1-  0.67214     3 1s   -0.48201     4 1s    0.36391     5 1s   -0.41716     6 1s    0.48314
   34.1    -0.00000     2.63854     1 1s    0.35946     1 2py  -0.39589     1 3d2- -0.36393     1 3d2+ -0.51008     1 3d1-  0.62020
                                    2 3d2- -0.52853     2 3d2+ -0.49329     2 3d1-  0.37029     4 1s   -0.45244
   35.1    -0.00000     2.72707     1 3d0  -0.39936     1 3d2- -0.49546     1 3d1+  0.52049     1 3d1- -0.32457     2 3d0  -0.42514
                                    2 3d2- -0.44425     2 3d1+  0.47791     3 1s   -0.50299     6 1s   -0.44098
   36.1    -0.00000     2.95595     1 1s    1.73872     1 2px   0.43218     1 2px   0.88708     1 2pz  -0.43963     1 3d2- -0.34932
                                    1 3d1+ -0.69452     1 3d2+  0.65777     2 1s   -1.75373     2 2px   0.42656     2 2px   0.88296
                                    2 2py  -0.25890     2 2pz  -0.45384     2 3d2-  0.34199     2 3d1+  0.70303     2 3d2+ -0.62674


 Natural orbital dump (state averaged) at molpro section  2140.2    (Orbital set 2)



 **********************************************************************************************************************************
 DATASETS  * FILE   NREC   LENGTH (MB)   RECORD NAMES
              1      20       31.86       500      610      700      900      950      970     1000      129      960     1100   
                                          VAR    BASINP    GEOM    SYMINP    ZMAT    AOBASIS   BASIS     P2S    ABASIS      S 
                                         1400     1410     1200     1210     1080     1600     1650     1300     1700     1380   
                                           T        V       H0       H01     AOSYM     SMH    MOLCAS    ERIS     OPER     JKOP   

              2       5        5.42       700     1000      520     2100     2140   
                                         GEOM     BASIS   MCVARS     RHF     MCSCF   

 PROGRAMS   *        TOTAL     MULTI    HF-SCF       INT
 CPU TIMES  *         0.88      0.46      0.11      0.20
 REAL TIME  *         1.21 SEC
 DISK USED  *        39.04 MB
 **********************************************************************************************************************************
 Molecular orbitals read from record     2140.2  Type=MCSCF/NATURAL (state averaged)
 Occupation numbers read from record     2140.2  Type=MCSCF/NATURAL (state averaged)
 Orbital energies read from record       2140.2  Type=MCSCF/NATURAL (state averaged)
 Redundancy group numbers read from rec  2140.2  Type=MCSCF/NATURAL (state averaged)

 MULTI/6-31G* energy=    -77.551699491682

           MULTI          HF-SCF
    -77.55169949    -77.84767560
 **********************************************************************************************************************************
 Molpro calculation terminated
