
 Primary working directories    : /scratch.local/johan406.molpro_temp/molpro.cKqOP3UrAy
 Secondary working directories  : /scratch.local/johan406.molpro_temp/molpro.cKqOP3UrAy
 Wavefunction directory         : /home/goodpast/johan406/wfu/
 Main file repository           : /scratch.local/johan406.molpro_temp/molpro.cKqOP3UrAy/

 id        : roweumn

 Nodes     nprocs
 acn09        1

 Using customized tuning parameters: mindgm=1; mindgv=20; mindgc=4; mindgr=1; noblas=0; minvec=7
 default implementation of scratch files=df  


 Variables initialized (934), CPU time= 0.01 sec
                                                                                 !leave this line blank
 
 gprint, orbitals=30
 memory, 125., m
 symmetry, nosym
 nelect=16
 basis=6-31g*
 
 geometry={
 C -0.63 0.1289 0.2969
 C 0.6318 -0.1964 -0.3608
 H -1.2654 0.8841 -0.1462
 H -0.9217 -0.75 -0.1216
 H 1.0116 0.9307 0.0929
 H 1.2778 -0.9587 0.1033
 }
 
 hf
 {multi,
 closed 7
 occ 9
 wf,spin=0;STATE,3
 }
 
 Commands  initialized (763), CPU time= 0.01 sec, 617 directives.
 Default parameters read. Elapsed time= 0.07 sec

 Checking input...
 Passed
1


                                         ***  PROGRAM SYSTEM MOLPRO  ***
                                       Copyright, TTI GmbH Stuttgart, 2015
                                    Version 2019.2 linked Oct 25 2019 22:50:27


 **********************************************************************************************************************************
 LABEL *                                                                                 
  64 bit serial version                                                                  DATE: 07-Feb-23          TIME: 15:46:51  
 **********************************************************************************************************************************

 SHA1:             8dbd9ae1082e4ce945b0f27595c9eb2d4aa09004
 **********************************************************************************************************************************


 Variable memory set to  125000000 words,  buffer space 

 SETTING NELECT         =        16.00000000                                  
 SETTING BASIS          =    6-31G*
 ZSYMEL=NOSYM


Geometry recognized as XYZ



 Recomputing integrals since basis changed


 Using spherical harmonics

 Library entry C      S 6-31G                selected for orbital group  1
 Library entry C      P 6-31G                selected for orbital group  1
 Library entry C      D 6-31G*               selected for orbital group  1
 Library entry H      S 6-31G                selected for orbital group  2


 PROGRAM * SEWARD (Integral evaluation for generally contracted gaussian basis sets)     Author: Roland Lindh, 1990

 Geometry written to block  1 of record 700


 Point group  C1  



 ATOMIC COORDINATES

 NR  ATOM    CHARGE       X              Y              Z

   1  C       6.00   -1.190527458    0.243585697    0.561059686
   2  C       6.00    1.193928966   -0.371142211   -0.681813186
   3  H       1.00   -2.391259438    1.670706867   -0.276277959
   4  H       1.00   -1.741760569   -1.417294593   -0.229790697
   5  H       1.00    1.911646948    1.758768104    0.175555557
   6  H       1.00    2.414692042   -1.811680436    0.195208709

 Bond lengths in Bohr (Angstrom)

 1-2  2.758306693  1-3  2.044398800  1-4  1.920371217  2-5  2.405559854  2-6  2.081965482
     ( 1.459633043)     ( 1.081849255)     ( 1.016216685)     ( 1.272967454)     ( 1.101728687)

 Bond angles

  1-2-5   84.26064531   1-2-6  118.11684328   2-1-3  118.60345904   2-1-4   82.52039109

  3-1-4  105.45466628   5-2-6  106.71119053

 NUCLEAR CHARGE:                   16
 NUMBER OF PRIMITIVE AOS:          72
 NUMBER OF SYMMETRY AOS:           70
 NUMBER OF CONTRACTIONS:           36   (   36A   )
 NUMBER OF CORE ORBITALS:           2   (    2A   )
 NUMBER OF VALENCE ORBITALS:       12   (   12A   )


 NUCLEAR REPULSION ENERGY   32.44417933

 Eigenvalues of metric

         1 0.908E-02 0.262E-01 0.557E-01 0.611E-01 0.905E-01 0.214E+00 0.234E+00 0.273E+00


 Contracted 2-electron integrals neglected if value below      1.0D-11
 AO integral compression algorithm  1   Integral accuracy      1.0D-11

     1.573 MB (compressed) written to integral file ( 59.2%)


 NUMBER OF SORTED TWO-ELECTRON INTEGRALS:     222111.     BUFFER LENGTH:  32768
 NUMBER OF SEGMENTS:   1  SEGMENT LENGTH:     222111      RECORD LENGTH: 524288

 Memory used in sort:       0.78 MW

 SORT1 READ      284735. AND WROTE      212530. INTEGRALS IN      1 RECORDS. CPU TIME:     0.00 SEC, REAL TIME:     0.00 SEC
 SORT2 READ      212530. AND WROTE      222111. INTEGRALS IN      6 RECORDS. CPU TIME:     0.02 SEC, REAL TIME:     0.02 SEC

 FILE SIZES:   FILE 1:    31.7 MBYTE,  FILE 4:     4.2 MBYTE,   TOTAL:     35.9 MBYTE

 OPERATOR DM      FOR CENTER  0  COORDINATES:    0.000000    0.000000    0.000000


 **********************************************************************************************************************************
 DATASETS  * FILE   NREC   LENGTH (MB)   RECORD NAMES
              1      19       31.13       500      610      700      900      950      970     1000      129      960     1100   
                                          VAR    BASINP    GEOM    SYMINP    ZMAT    AOBASIS   BASIS     P2S    ABASIS      S 
                                         1400     1410     1200     1210     1080     1600     1650     1300     1700   
                                           T        V       H0       H01     AOSYM     SMH    MOLCAS    ERIS     OPER   

 PROGRAMS   *        TOTAL       INT
 CPU TIMES  *         0.26      0.17
 REAL TIME  *         0.42 SEC
 DISK USED  *        36.24 MB
 **********************************************************************************************************************************


 PROGRAM * RHF-SCF (CLOSED SHELL)       Authors: W. Meyer, H.-J. Werner


 NUMBER OF ELECTRONS:       8+    8-    SPACE SYMMETRY=1    SPIN SYMMETRY: Singlet 
 CONVERGENCE THRESHOLDS:    1.00E-05 (Density)    1.00E-07 (Energy)
 MAX. NUMBER OF ITERATIONS:       60
 INTERPOLATION TYPE:            DIIS
 INTERPOLATION STEPS:              2 (START)      1 (STEP)
 LEVEL SHIFTS:                  0.00 (CLOSED)  0.00 (OPEN) 



 Orbital guess generated from atomic densities. Full valence occupancy:    8

 Molecular orbital dump at record        2100.2

 Initial occupancy:   8

 ITERATION    DDIFF          GRAD             ENERGY        2-EL.EN.            DIPOLE MOMENTS         DIIS   ORB.
    1      0.000D+00      0.000D+00       -77.80787988    116.079110    0.15248   -0.03091   -0.12376    0    start
    2      0.000D+00      0.761D-02       -77.82714541    115.009230   -0.11646   -0.02271    0.13504    1    diag
    3      0.849D-02      0.328D-02       -77.82997495    115.343849   -0.00440   -0.10993   -0.05141    2    diag
    4      0.354D-02      0.157D-02       -77.83092073    115.350111   -0.08580   -0.08012    0.04606    3    diag
    5      0.202D-02      0.572D-03       -77.83110127    115.289146   -0.08186   -0.09548    0.02708    4    diag
    6      0.842D-03      0.238D-03       -77.83120080    115.299403   -0.09162   -0.09820    0.03069    5    diag
    7      0.817D-03      0.104D-03       -77.83123012    115.300021   -0.09419   -0.09880    0.03105    6    diag
    8      0.492D-03      0.355D-04       -77.83123332    115.301225   -0.09410   -0.09876    0.03091    7    diag
    9      0.166D-03      0.129D-04       -77.83123366    115.301545   -0.09373   -0.09858    0.03076    8    diag
   10      0.564D-04      0.409D-05       -77.83123368    115.301573   -0.09359   -0.09860    0.03066    9    orth
   11      0.140D-04      0.112D-05       -77.83123368    115.301572   -0.09356   -0.09859    0.03064    9    diag
   12      0.305D-05      0.314D-06       -77.83123368    115.301576   -0.09356   -0.09859    0.03064    0    orth

 Final occupancy:   8

 !RHF STATE  1.1 Energy               -77.831233680578
 Nuclear energy                        32.44417933
 One-electron energy                 -167.92620106
 Two-electron energy                   57.65078805
 Virial quotient                       -1.00031237
 !RHF STATE  1.1 Dipole moment         -0.09355507    -0.09859121     0.03064204
 Dipole moment /Debye                  -0.23777770    -0.25057744     0.07787919

 ELECTRON ORBITALS
 =================

  Orbital  Occupation    Energy     Coefficients
    1.1     2.00000   -11.27386     2 1s    0.99624
    2.1     2.00000   -11.24558     1 1s    0.99613
    3.1     2.00000    -1.04361     1 1s    0.30242     2 1s    0.26237
    4.1     2.00000    -0.78642     1 1s   -0.25323     2 1s    0.25375     2 1s    0.32360
    5.1     2.00000    -0.62472     1 2py   0.37036
    6.1     2.00000    -0.56087     1 2px   0.31290     2 2px  -0.29298
    7.1     2.00000    -0.39410     1 2pz   0.25993     2 2pz   0.31935     2 2pz   0.27593
    8.1     2.00000    -0.38316     2 2px   0.28548     5 1s    0.30732
    9.1     0.00000     0.06178     1 1s   -0.34674     1 2pz  -0.33618     1 2pz  -0.48914     2 1s   -0.43898     2 2pz   0.32562
                                    2 2pz   0.44500
   10.1     0.00000     0.22328     1 1s   -1.06206     1 2px   0.36784     1 2py   0.27090     1 2pz   0.41483     2 1s   -0.93375
                                    2 2px  -0.53255     2 2py  -0.47880     2 2pz  -0.38886     3 1s    0.54205     4 1s    0.86600
                                    5 1s    1.18571     6 1s    0.45963
   11.1     0.00000     0.28141     1 1s    1.45702     1 2py   0.29896     1 2pz  -0.37847     2 1s   -1.64929     2 2py   0.40864
                                    2 2pz  -0.53525     3 1s   -1.27321     6 1s    1.59454
   12.1     0.00000     0.30844     1 1s   -1.42856     1 2px   0.50149     1 2py  -0.68458     1 2pz   0.62347     2 1s   -0.41723
                                    2 2px  -0.34823     2 2py   1.07153     2 2pz  -0.33110     3 1s    1.68157     4 1s    0.36488
                                    5 1s   -0.69448     6 1s    1.34269
   13.1     0.00000     0.34621     1 1s   -1.33210     1 2py   0.26073     1 2py   1.27463     1 2pz   0.28989     2 1s    0.79687
                                    2 2px   0.26790     2 2pz   0.35701     3 1s   -0.48462     4 1s    2.39432     5 1s   -0.96828
                                    6 1s   -0.40974
   14.1     0.00000     0.42298     1 1s    1.93833     1 2px   1.83366     1 2py  -0.57006     1 2pz  -0.74213     2 1s   -2.03202
                                    2 2px   1.73161     2 2py  -0.64538     2 2pz  -0.80723     3 1s    0.68254     6 1s   -0.57856
   15.1     0.00000     0.70103     1 1s    0.41680     1 2px   0.50242     1 2px  -0.73535     1 2py  -0.27767     2 2px  -0.56088
                                    2 2pz   0.25230     2 2px   1.07307     4 1s   -0.27355     4 1s    0.31224     5 1s    0.45764
   16.1     0.00000     0.74447     1 1s   -0.45445     1 2px   0.31010     1 2py  -0.56463     1 2px  -0.76570     1 2py   1.40318
                                    1 2pz   0.39726     2 1s    0.50291     2 2px  -0.25148     3 1s   -0.47119     4 1s    0.35133
                                    6 1s    0.27091
   17.1     0.00000     0.78751     1 2pz  -0.64404     1 2px   0.25777     1 2py   0.45144     1 2pz   0.66151     2 1s    0.28310
                                    2 2py   0.46979     2 2pz  -0.36103     2 2px   0.41751     2 2py  -0.90135     2 2pz   0.39195
                                    6 1s   -0.37839     6 1s   -0.26308
   18.1     0.00000     0.81248     1 2pz  -0.33357     1 2py  -0.53901     1 2pz   0.26285     2 1s   -0.28704     2 2py  -0.54393
                                    2 2pz  -0.72300     2 2py   0.97324     2 2pz   0.62187     5 1s   -0.30960
   19.1     0.00000     0.86467     1 1s    0.37116     1 2pz   0.71415     1 2px  -0.41212     1 2py   0.60152     1 2pz  -0.96984
                                    2 1s    0.32960     2 2px  -0.25332     2 2pz  -0.64192     2 2px   0.49452     2 2py  -0.57320
                                    2 2pz   0.93785
   20.1     0.00000     0.97073     1 2px   0.64985     1 2py   0.26616     1 2px  -1.10719     1 2py  -0.68564     2 1s    0.27197
                                    2 2px   0.74245     2 2py   0.51300     2 2px  -1.16543     2 2py  -0.90551     4 1s   -1.16184
                                    5 1s    1.06804
   21.1     0.00000     1.06813     1 1s    0.29569     1 2px   0.40792     1 2px  -0.54745     2 1s   -0.78006     2 1s    1.49523
                                    2 2py  -0.46212     2 2py   0.54957     2 2pz   0.25778     3 1s   -0.25550     4 1s   -0.32380
                                    5 1s    0.99314     5 1s   -1.44803
   22.1     0.00000     1.14324     1 1s    0.54707     1 2px  -0.29139     1 2py   0.40562     1 2px   0.77081     1 2py  -0.78403
                                    2 1s   -0.52436     2 1s    0.47526     2 2px  -0.50128     2 2py   0.46962     2 2px   1.03692
                                    2 2py  -0.83298     3 1s   -0.42794     3 1s    1.02931     4 1s   -0.39948     6 1s    0.77422
                                    6 1s   -1.62252
   23.1     0.00000     1.18754     1 1s   -0.43416     1 1s    0.79900     1 2px   0.26478     1 2py  -0.60504     1 2py   0.63010
                                    3 1s    0.86111     3 1s   -1.25874     4 1s   -0.28150     4 1s    0.63254     6 1s    0.65873
                                    6 1s   -0.58344
   24.1     0.00000     1.24476     1 1s   -1.35682     1 1s    2.21311     1 2pz   0.31257     1 2px  -1.04704     1 2pz  -0.84987
                                    2 1s   -1.21971     2 1s    2.41152     2 2py  -0.42131     2 2pz   0.87250     3 1s   -1.09855
                                    4 1s    0.35741     4 1s   -1.49012     5 1s   -0.50964     6 1s   -0.26826     6 1s   -0.79099
   25.1     0.00000     1.27260     1 1s   -1.29173     1 1s    4.32754     1 2py  -0.32867     1 2px   0.83337     1 2pz  -1.29148
                                    2 1s    0.48669     2 1s   -2.52170     2 2px   1.20170     2 2py  -0.78179     2 2pz  -0.32865
                                    3 1s   -0.47788     3 1s   -0.56239     4 1s   -0.84287
   26.1     0.00000     1.30827     1 1s    1.15198     1 1s   -3.57011     1 2py  -0.41374     1 2px  -0.79959     1 2py   1.03497
                                    1 2pz   0.63943     2 1s   -1.48591     2 1s    3.94069     2 2px  -0.66803     2 2py   0.34400
                                    2 2pz   1.18164     4 1s   -0.57826     4 1s    1.32889     5 1s   -0.30022     5 1s   -0.45765
                                    6 1s   -0.64705
   27.1     0.00000     1.69411     1 1s    0.64612     1 3d0   0.37338     1 3d2- -0.31252     1 3d2+ -0.30277     2 1s   -0.50178
                                    2 3d0  -0.32677     2 3d2-  0.27992     2 3d2+  0.34818
   28.1     0.00000     1.90853     1 2px   0.30544     1 3d0   0.30015     1 3d1+  0.46406     1 3d2+  0.40529     1 3d1-  0.41831
                                    2 1s    0.41965     2 1s   -1.08621     2 2pz  -0.43251     2 3d0   0.38458     2 3d2+  0.25120
                                    6 1s    0.30010
   29.1     0.00000     1.94404     1 1s    0.41005     1 1s   -1.63000     1 2pz   0.51370     1 3d2-  0.28989     2 1s    0.90106
                                    2 2px  -0.37241     2 2py   0.28630     2 3d2- -0.27742     2 3d1+  0.51398     2 3d2+  0.26896
                                    2 3d1-  0.51232     3 1s    0.43905
   30.1     0.00000     2.16397     1 1s   -0.39295     1 1s    1.63184     1 2px   0.33743     1 2pz  -0.47735     1 3d0  -0.49390
                                    1 3d1+ -0.25817     1 3d2+ -0.26595     2 1s   -1.27815     2 2px   0.32361     2 2py  -0.31962
                                    2 2pz  -0.30216     2 3d0   0.60103     2 3d2+  0.43855     3 1s   -0.37362     4 1s   -0.25749
                                    5 1s    0.37947
   31.1     0.00000     2.25465     1 1s   -0.43920     1 2px  -0.25101     1 3d1+ -0.34791     1 3d2+  0.43886     1 3d1-  0.25206
                                    2 1s   -0.55984     2 1s    0.64620     2 2px   0.25248     2 2px  -0.40597     2 2py   0.26994
                                    2 3d0  -0.30200     2 3d2- -0.33837     2 3d1+ -0.37581     2 3d2+  0.32035
   32.1     0.00000     2.34652     1 1s   -0.67162     1 2px  -0.29388     1 2py   0.38704     1 3d0   0.55293     2 1s    0.61821
                                    2 2py  -0.27864     2 2pz   0.30887     2 3d0   0.37246     2 3d2- -0.56532     2 3d1- -0.47056
                                    4 1s    0.45076     5 1s    0.29548     6 1s   -0.50222
   33.1     0.00000     2.56724     1 3d0   0.29280     1 3d2- -0.64193     2 2py   0.33917     2 3d1+ -0.28310     2 3d2+ -0.34397
                                    2 3d1-  0.69367     3 1s   -0.38212     4 1s    0.26144     5 1s   -0.34958     6 1s    0.40550
   34.1     0.00000     2.67321     1 1s   -0.68589     1 2py   0.40849     1 3d0   0.29133     1 3d2-  0.34309     1 3d2+  0.38090
                                    1 3d1- -0.62150     2 1s    0.25861     2 2px  -0.32082     2 3d2-  0.64632     2 3d1+ -0.36582
                                    2 3d2+  0.37654     4 1s    0.56937     6 1s    0.37159
   35.1     0.00000     2.74014     1 1s    0.52252     1 2py  -0.40091     1 3d2-  0.50612     1 3d1+ -0.54365     1 3d1-  0.65482
                                    2 1s   -0.43464     2 3d0   0.41174     2 3d1+ -0.27199     2 3d2+ -0.26920     3 1s    0.58801
                                    4 1s   -0.57774     6 1s    0.26196
   36.1     0.00000     2.96776     1 1s    1.60467     1 2px   0.44525     1 2px   0.85912     1 2pz  -0.38316     1 3d2- -0.38328
                                    1 3d1+ -0.66559     1 3d2+  0.72412     2 1s   -1.68585     2 2px   0.41489     2 2px   0.83924
                                    2 2py  -0.27040     2 2pz  -0.45312     2 3d2-  0.34227     2 3d1+  0.70329     2 3d2+ -0.57379
                                    4 1s    0.29971


 HOMO      8.1    -0.383159 =     -10.4263eV
 LUMO      9.1     0.061779 =       1.6811eV
 LUMO-HOMO         0.444937 =      12.1074eV


 **********************************************************************************************************************************
 DATASETS  * FILE   NREC   LENGTH (MB)   RECORD NAMES
              1      19       31.13       500      610      700      900      950      970     1000      129      960     1100   
                                          VAR    BASINP    GEOM    SYMINP    ZMAT    AOBASIS   BASIS     P2S    ABASIS      S 
                                         1400     1410     1200     1210     1080     1600     1650     1300     1700   
                                           T        V       H0       H01     AOSYM     SMH    MOLCAS    ERIS     OPER   

              2       4        2.86       700     1000      520     2100   
                                         GEOM     BASIS   MCVARS     RHF  

 PROGRAMS   *        TOTAL    HF-SCF       INT
 CPU TIMES  *         0.36      0.10      0.17
 REAL TIME  *         0.66 SEC
 DISK USED  *        36.24 MB
 **********************************************************************************************************************************


 PROGRAM * MULTI (Direct Multiconfiguration SCF)       Authors: P.J. Knowles, H.-J. Werner (1984)


 Number of closed-shell orbitals:   7 (   7 )
 Number of active  orbitals:        2 (   2 )
 Number of external orbitals:      27 (  27 )

 State symmetry 1

 Number of electrons:     2    Spin symmetry=Singlet   Space symmetry=1
 Number of states:        3
 Number of CSFs:          3   (4 determinants, 4 intermediate states)

 Molecular orbitals read from record     2100.2  Type=RHF/CANONICAL (state 1.1)

 Wavefunction dump at record             2140.2

 Convergence thresholds  0.10E-01 (gradient)  0.10E-05 (energy)  0.10E-02 (step length)

 Weight factors for state symmetry  1:    0.33333   0.33333   0.33333

 Number of orbital rotations:      257   (    14 Core/Active    189 Core/Virtual   0 Active/Active     54 Active/Virtual)
 Total number of variables:        269

 Micro-Iterations solved by the two-step solver

 ITER. MIC  NCI  NEG     ENERGY(VAR)     ENERGY(PROJ)   ENERGY CHANGE     GRAD(0)  GRAD(ORB)   GRAD(CI)     STEP       TIME

   1   10    6    0     -77.66626992     -77.69535322   -0.02908330    0.15761402 0.00049293 0.00000000  0.21D+00      0.16
   2    7    5    0     -77.69450085     -77.69480675   -0.00030590    0.02807197 0.00004075 0.00000000  0.13D-01      0.25
   3    7    5    0     -77.69480786     -77.69480788   -0.00000001    0.00016552 0.00000000 0.00000000  0.12D-03      0.35
   4    3    3    0     -77.69480788     -77.69480788    0.00000000    0.00000001 0.00000000 0.00000000  0.12D-07      0.40

 ** WVFN ****  CONVERGENCE REACHED, FINAL GRADIENT:  0.12D-12



 Results for state 1.1
 =====================

 !MCSCF STATE  1.1 Energy             -77.824786210152
 Nuclear energy                        32.44417933
 Kinetic energy                        77.85771907
 One electron energy                 -167.99118512
 Two electron energy                   57.72221957
 Virial ratio                           1.99957701

 !MCSCF STATE  1.1 Dipole moment       -0.13474785    -0.15774848     0.03639184
 Dipole moment /Debye                  -0.34247245    -0.40093039     0.09249278

 Results for state 2.1
 =====================

 !MCSCF STATE  2.1 Energy             -77.722858381582
 Nuclear energy                        32.44417933
 Kinetic energy                        77.93631822
 One electron energy                 -167.70324142
 Two electron energy                   57.53620371
 Virial ratio                           1.99726110

 !MCSCF STATE  2.1 Dipole moment        0.03935518     0.02836399    -0.00100379
 Dipole moment /Debye                   0.10002433     0.07208935    -0.00255121

 Results for state 3.1
 =====================

 !MCSCF STATE  3.1 Energy             -77.536779039139
 Nuclear energy                        32.44417933
 Kinetic energy                        78.00046031
 One electron energy                 -167.47145417
 Two electron energy                   57.49049580
 Virial ratio                           1.99405540

 !MCSCF STATE  3.1 Dipole moment        0.27127335     0.25439771    -0.03545512
 Dipole moment /Debye                   0.68946291     0.64657212    -0.09011202

 State-averaged charge density matrix saved on record  2140.2 (density set 1)

 !MCSCF expec         <1.1|DMX|1.1>    -0.134747851783 au =    -0.342472445134 Debye
 !MCSCF trans         <2.1|DMX|1.1>    -0.123589487709 au =    -0.314112570173 Debye
 !MCSCF expec         <2.1|DMX|2.1>     0.039355178513 au =     0.100024334605 Debye
 !MCSCF trans         <3.1|DMX|1.1>    -0.009862655821 au =    -0.025066728781 Debye
 !MCSCF trans         <3.1|DMX|2.1>    -0.119124423566 au =    -0.302764252448 Debye
 !MCSCF expec         <3.1|DMX|3.1>     0.271273345818 au =     0.689462910265 Debye

 !MCSCF expec         <1.1|DMY|1.1>    -0.157748482912 au =    -0.400930389200 Debye
 !MCSCF trans         <2.1|DMY|1.1>    -0.088086432288 au =    -0.223878714573 Debye
 !MCSCF expec         <2.1|DMY|2.1>     0.028363988661 au =     0.072089346302 Debye
 !MCSCF trans         <3.1|DMY|1.1>    -0.013153572638 au =    -0.033430857145 Debye
 !MCSCF trans         <3.1|DMY|2.1>    -0.079758928607 au =    -0.202713697770 Debye
 !MCSCF expec         <3.1|DMY|3.1>     0.254397707245 au =     0.646572124779 Debye

 !MCSCF expec         <1.1|DMZ|1.1>     0.036391843244 au =     0.092492780952 Debye
 !MCSCF trans         <2.1|DMZ|1.1>    -0.004364595949 au =    -0.011092969771 Debye
 !MCSCF expec         <2.1|DMZ|2.1>    -0.001003789708 au =    -0.002551211845 Debye
 !MCSCF trans         <3.1|DMZ|1.1>     0.003951202612 au =     0.010042297535 Debye
 !MCSCF trans         <3.1|DMZ|2.1>    -0.007819083370 au =    -0.019872825912 Debye
 !MCSCF expec         <3.1|DMZ|3.1>    -0.035455118968 au =    -0.090112021268 Debye


 NATURAL ORBITALS (state averaged)
 =================================

  Orbital  Occupation    Energy     Coefficients
    1.1     2.00000   -11.26887     2 1s    0.99623
    2.1     2.00000   -11.23897     1 1s    0.99612
    3.1     2.00000    -1.05588     1 1s    0.29781     2 1s    0.25703
    4.1     2.00000    -0.78664     1 1s   -0.27986     2 1s    0.25047     2 1s    0.34798
    5.1     2.00000    -0.62576     1 2py   0.34963
    6.1     2.00000    -0.55856     1 2px   0.26700     2 2px  -0.25117     2 2py   0.27643
    7.1     2.00000    -0.41959     1 2pz   0.31783     1 2pz   0.27808     2 2pz   0.33312     2 2pz   0.28267
    8.1     1.00000    -0.08779     1 2pz  -0.41056     1 2pz  -0.44130     2 1s   -0.28496     2 2pz   0.39783     2 2pz   0.41576
    9.1     1.00000    -0.23079     1 2px  -0.30819     2 2px   0.31028     4 1s    0.27525     5 1s    0.32044
   10.1    -0.00000     0.20965     1 1s   -0.93094     1 2px   0.37880     1 2pz   0.31555     2 1s   -1.04322     2 2px  -0.51033
                                    2 2py  -0.51775     2 2pz  -0.36727     3 1s    0.48081     4 1s    0.78271     5 1s    1.23798
                                    6 1s    0.45955
   11.1    -0.00000     0.28067     1 1s    1.62398     1 2pz  -0.42968     2 1s   -1.64904     2 2py   0.36198     2 2pz  -0.51321
                                    3 1s   -1.32439     6 1s    1.53500
   12.1    -0.00000     0.30808     1 1s   -1.70283     1 2px   0.48343     1 2py  -0.36284     1 2pz   0.64768     2 1s   -0.33885
                                    2 2py   0.27226     2 2px  -0.35549     2 2py   1.13043     3 1s    1.46303     4 1s    0.89207
                                    5 1s   -0.82287     6 1s    1.36923
   13.1    -0.00000     0.33585     1 1s   -1.04638     1 2py   0.30092     1 2py   1.44463     2 1s    0.90539     2 2pz   0.41758
                                    3 1s   -0.93815     4 1s    2.27886     5 1s   -0.80747     6 1s   -0.54416
   14.1    -0.00000     0.42984     1 1s    1.76136     1 2px   1.84053     1 2py  -0.44088     1 2pz  -0.68003     2 1s   -1.92501
                                    2 2px   1.74527     2 2py  -0.56046     2 2pz  -0.75137     3 1s    0.66946     6 1s   -0.58683
   15.1    -0.00000     0.69763     1 1s    0.42402     1 2px   0.47952     1 2px  -0.69297     1 2py  -0.32814     2 2px  -0.54927
                                    2 2px   1.06384     4 1s   -0.31025     4 1s    0.34087     5 1s    0.52606
   16.1    -0.00000     0.74455     1 1s   -0.58472     1 2px   0.32296     1 2py  -0.52867     1 2px  -0.83227     1 2py   1.37516
                                    1 2pz   0.45120     2 1s    0.55365     2 2px  -0.30005     3 1s   -0.47714     4 1s    0.33790
                                    4 1s    0.28771     6 1s    0.28016
   17.1    -0.00000     0.78693     1 1s   -0.25392     1 2pz  -0.62108     1 2py   0.52064     1 2pz   0.70557     2 1s    0.36920
                                    2 2py   0.48433     2 2pz  -0.34438     2 2px   0.40498     2 2py  -0.92936     2 2pz   0.38041
                                    6 1s   -0.37797     6 1s   -0.26803
   18.1    -0.00000     0.81190     1 1s   -0.30328     1 2pz  -0.34455     1 2py  -0.50017     1 2pz   0.28509     2 2py  -0.49634
                                    2 2pz  -0.73768     2 2py   0.93608     2 2pz   0.74569     5 1s   -0.32341
   19.1    -0.00000     0.86331     1 1s    0.32967     1 2pz   0.69962     1 2px  -0.44691     1 2py   0.61977     1 2pz  -1.04141
                                    2 1s    0.28279     2 2px  -0.26535     2 2pz  -0.60360     2 2px   0.53514     2 2py  -0.56847
                                    2 2pz   0.96634     3 1s   -0.29724     6 1s   -0.28288
   20.1    -0.00000     0.97601     1 2px   0.60036     1 2py   0.26508     1 2px  -0.97832     1 2py  -0.69949     2 2px   0.74432
                                    2 2py   0.57162     2 2px  -1.10304     2 2py  -0.97607     4 1s   -1.09079     5 1s    1.18361
   21.1    -0.00000     1.03049     1 1s    0.29618     1 2px   0.45672     1 2px  -0.51798     2 1s   -0.73129     2 1s    1.31017
                                    2 2py  -0.41098     2 2py   0.44635     4 1s   -0.35252     5 1s    1.01504     5 1s   -1.32510
   22.1    -0.00000     1.14594     1 1s    0.59792     1 2px  -0.33950     1 2py   0.40267     1 2px   0.86244     1 2py  -0.80246
                                    2 1s   -0.43299     2 1s    0.26167     2 2px  -0.51682     2 2py   0.48409     2 2px   1.07523
                                    2 2py  -0.85680     3 1s   -0.43044     3 1s    1.05694     4 1s   -0.37088     6 1s    0.77240
                                    6 1s   -1.59818
   23.1    -0.00000     1.19045     1 1s    0.50053     1 2py  -0.64953     1 2py   0.63681     2 1s   -0.37428     3 1s    0.82584
                                    3 1s   -1.08468     4 1s   -0.38398     4 1s    0.88738     6 1s    0.68313     6 1s   -0.49298
   24.1    -0.00000     1.23066     1 1s   -1.21781     1 1s    1.68257     1 2px   0.29738     1 2pz   0.31657     1 2px  -1.17516
                                    1 2pz  -0.59735     2 1s   -1.24348     2 1s    2.63787     2 2py  -0.29908     2 2pz   0.80192
                                    3 1s   -1.14938     4 1s    0.52307     4 1s   -1.45158     5 1s   -0.43834     6 1s   -0.79494
   25.1    -0.00000     1.26356     1 1s   -1.30386     1 1s    3.92265     1 2py  -0.38727     1 2px   0.43385     1 2pz  -1.28457
                                    2 1s   -1.14150     2 2px   1.05395     2 2py  -0.77135     3 1s   -0.51242     3 1s   -0.74138
                                    4 1s   -0.83614     6 1s   -0.28930     6 1s   -0.39467
   26.1    -0.00000     1.29341     1 1s    1.35405     1 1s   -4.30232     1 2py  -0.31579     1 2px  -0.98853     1 2py   1.00605
                                    1 2pz   0.83773     2 1s   -1.61809     2 1s    4.49654     2 2px  -0.89686     2 2py   0.44519
                                    2 2pz   1.25385     4 1s   -0.37556     4 1s    1.24567     5 1s   -0.33717     5 1s   -0.45009
                                    6 1s   -0.65872
   27.1    -0.00000     1.68947     1 1s    0.68125     1 3d0   0.36559     1 3d2- -0.31526     1 3d2+ -0.30476     2 1s   -0.52519
                                    2 3d0  -0.32125     2 3d2-  0.28533     2 3d2+  0.35075
   28.1    -0.00000     1.90674     1 2px   0.30173     1 3d0   0.29495     1 3d1+  0.45755     1 3d2+  0.40767     1 3d1-  0.41447
                                    2 1s    0.40650     2 1s   -1.05647     2 2pz  -0.42196     2 3d0   0.38927     2 3d2+  0.26430
                                    6 1s    0.29920
   29.1    -0.00000     1.94097     1 1s    0.39867     1 1s   -1.59333     1 2pz   0.50183     1 3d2-  0.28480     2 1s    0.88201
                                    2 2px  -0.36424     2 2py   0.28737     2 3d2- -0.27968     2 3d1+  0.51358     2 3d2+  0.27212
                                    2 3d1-  0.51037     3 1s    0.43887
   30.1    -0.00000     2.16283     1 1s   -0.40165     1 1s    1.60740     1 2px   0.32436     1 2pz  -0.47355     1 3d0  -0.49258
                                    1 3d1+ -0.26301     1 3d2+ -0.26316     2 1s   -1.22753     2 2px   0.31264     2 2py  -0.32642
                                    2 2pz  -0.28075     2 3d0   0.59978     2 3d2+  0.44295     3 1s   -0.37371     4 1s   -0.26368
                                    5 1s    0.37391
   31.1    -0.00000     2.25166     1 1s   -0.42575     1 2px  -0.25631     1 3d1+ -0.35046     1 3d2+  0.44349     2 1s   -0.56411
                                    2 1s    0.69678     2 2px   0.25715     2 2px  -0.41198     2 2py   0.26161     2 3d0  -0.30784
                                    2 3d2- -0.35491     2 3d1+ -0.38465     2 3d2+  0.31155
   32.1    -0.00000     2.34108     1 1s   -0.70977     1 2px  -0.31213     1 2py   0.40650     1 3d0   0.56189     2 1s    0.62622
                                    2 2py  -0.28760     2 2pz   0.31212     2 3d0   0.36150     2 3d2- -0.55991     2 3d1- -0.48388
                                    4 1s    0.44182     5 1s    0.28077     6 1s   -0.51993
   33.1    -0.00000     2.56267     1 3d0   0.28027     1 3d2- -0.66184     2 2py   0.33875     2 3d1+ -0.26850     2 3d2+ -0.34921
                                    2 3d1-  0.69187     3 1s   -0.39491     4 1s    0.25143     5 1s   -0.33670     6 1s    0.39176
   34.1    -0.00000     2.66876     1 1s   -0.72222     1 2py   0.44099     1 3d0   0.29145     1 3d2-  0.29864     1 3d2+  0.38855
                                    1 3d1- -0.66551     2 1s    0.28733     2 2px  -0.32503     2 3d2-  0.63469     2 3d1+ -0.35259
                                    2 3d2+  0.37444     4 1s    0.60036     6 1s    0.36511
   35.1    -0.00000     2.74364     1 1s    0.48202     1 2py  -0.38043     1 3d0   0.26845     1 3d2-  0.51116     1 3d1+ -0.55402
                                    1 3d1-  0.62049     2 1s   -0.41434     2 3d0   0.42249     2 3d2-  0.26856     2 3d1+ -0.30030
                                    3 1s    0.58763     4 1s   -0.53155     6 1s    0.28166
   36.1    -0.00000     2.96405     1 1s    1.63647     1 2px   0.43859     1 2px   0.87079     1 2pz  -0.39181     1 3d2- -0.38195
                                    1 3d1+ -0.66838     1 3d2+  0.72107     2 1s   -1.71323     2 2px   0.40961     2 2px   0.85160
                                    2 2py  -0.27720     2 2pz  -0.46006     2 3d2-  0.34002     2 3d1+  0.70671     2 3d2+ -0.57240
                                    4 1s    0.28849


 Natural orbital dump (state averaged) at molpro section  2140.2    (Orbital set 2)



 **********************************************************************************************************************************
 DATASETS  * FILE   NREC   LENGTH (MB)   RECORD NAMES
              1      20       31.86       500      610      700      900      950      970     1000      129      960     1100   
                                          VAR    BASINP    GEOM    SYMINP    ZMAT    AOBASIS   BASIS     P2S    ABASIS      S 
                                         1400     1410     1200     1210     1080     1600     1650     1300     1700     1380   
                                           T        V       H0       H01     AOSYM     SMH    MOLCAS    ERIS     OPER     JKOP   

              2       5        5.42       700     1000      520     2100     2140   
                                         GEOM     BASIS   MCVARS     RHF     MCSCF   

 PROGRAMS   *        TOTAL     MULTI    HF-SCF       INT
 CPU TIMES  *         0.81      0.45      0.10      0.17
 REAL TIME  *         1.20 SEC
 DISK USED  *        39.04 MB
 **********************************************************************************************************************************
 Molecular orbitals read from record     2140.2  Type=MCSCF/NATURAL (state averaged)
 Occupation numbers read from record     2140.2  Type=MCSCF/NATURAL (state averaged)
 Orbital energies read from record       2140.2  Type=MCSCF/NATURAL (state averaged)
 Redundancy group numbers read from rec  2140.2  Type=MCSCF/NATURAL (state averaged)

 MULTI/6-31G* energy=    -77.536779039139

           MULTI          HF-SCF
    -77.53677904    -77.83123368
 **********************************************************************************************************************************
 Molpro calculation terminated
