
 Primary working directories    : /scratch.local/johan406.molpro_temp/molpro.3HtCaPQLdf
 Secondary working directories  : /scratch.local/johan406.molpro_temp/molpro.3HtCaPQLdf
 Wavefunction directory         : /home/goodpast/johan406/wfu/
 Main file repository           : /scratch.local/johan406.molpro_temp/molpro.3HtCaPQLdf/

 id        : roweumn

 Nodes     nprocs
 acn09        1

 Using customized tuning parameters: mindgm=1; mindgv=20; mindgc=4; mindgr=1; noblas=0; minvec=7
 default implementation of scratch files=df  


 Variables initialized (934), CPU time= 0.00 sec
                                                                                 !leave this line blank
 
 gprint, orbitals=30
 memory, 125., m
 symmetry, nosym
 nelect=16
 basis=6-31g*
 
 geometry={
 C -0.6307 0.1271 0.2965
 C 0.6311 -0.1982 -0.3611
 H -1.265 0.8816 -0.1444
 H -0.9134 -0.7263 -0.1184
 H 1.0199 0.9541 0.0961
 H 1.2781 -0.9612 0.1051
 }
 
 hf
 {multi,
 closed 7
 occ 9
 wf,spin=0;STATE,3
 }
 
 Commands  initialized (763), CPU time= 0.01 sec, 617 directives.
 Default parameters read. Elapsed time= 0.08 sec

 Checking input...
 Passed
1


                                         ***  PROGRAM SYSTEM MOLPRO  ***
                                       Copyright, TTI GmbH Stuttgart, 2015
                                    Version 2019.2 linked Oct 25 2019 22:50:27


 **********************************************************************************************************************************
 LABEL *                                                                                 
  64 bit serial version                                                                  DATE: 07-Feb-23          TIME: 15:47:45  
 **********************************************************************************************************************************

 SHA1:             8dbd9ae1082e4ce945b0f27595c9eb2d4aa09004
 **********************************************************************************************************************************


 Variable memory set to  125000000 words,  buffer space 

 SETTING NELECT         =        16.00000000                                  
 SETTING BASIS          =    6-31G*
 ZSYMEL=NOSYM


Geometry recognized as XYZ



 Recomputing integrals since basis changed


 Using spherical harmonics

 Library entry C      S 6-31G                selected for orbital group  1
 Library entry C      P 6-31G                selected for orbital group  1
 Library entry C      D 6-31G*               selected for orbital group  1
 Library entry H      S 6-31G                selected for orbital group  2


 PROGRAM * SEWARD (Integral evaluation for generally contracted gaussian basis sets)     Author: Roland Lindh, 1990

 Geometry written to block  1 of record 700


 Point group  C1  



 ATOMIC COORDINATES

 NR  ATOM    CHARGE       X              Y              Z

   1  C       6.00   -1.191850267    0.240184190    0.560303796
   2  C       6.00    1.192606157   -0.374543718   -0.682380104
   3  H       1.00   -2.390503548    1.665982551   -0.272876452
   4  H       1.00   -1.726075842   -1.372508084   -0.223743573
   5  H       1.00    1.927331674    1.802987695    0.181602681
   6  H       1.00    2.415258960   -1.816404751    0.198610216

 Bond lengths in Bohr (Angstrom)

 1-2  2.758221549  1-3  2.040553841  1-4  1.871070179  2-5  2.455184493  2-6  2.085662259
     ( 1.459587986)     ( 1.079814591)     ( 0.990127699)     ( 1.299227682)     ( 1.103684937)

 Bond angles

  1-2-5   84.40425036   1-2-6  118.06978213   2-1-3  118.65814840   2-1-4   82.29582141

  3-1-4  105.27351475   5-2-6  106.80212769

 NUCLEAR CHARGE:                   16
 NUMBER OF PRIMITIVE AOS:          72
 NUMBER OF SYMMETRY AOS:           70
 NUMBER OF CONTRACTIONS:           36   (   36A   )
 NUMBER OF CORE ORBITALS:           2   (    2A   )
 NUMBER OF VALENCE ORBITALS:       12   (   12A   )


 NUCLEAR REPULSION ENERGY   32.47908530

 Eigenvalues of metric

         1 0.900E-02 0.258E-01 0.540E-01 0.609E-01 0.938E-01 0.211E+00 0.233E+00 0.273E+00


 Contracted 2-electron integrals neglected if value below      1.0D-11
 AO integral compression algorithm  1   Integral accuracy      1.0D-11

     1.573 MB (compressed) written to integral file ( 59.2%)


 NUMBER OF SORTED TWO-ELECTRON INTEGRALS:     222111.     BUFFER LENGTH:  32768
 NUMBER OF SEGMENTS:   1  SEGMENT LENGTH:     222111      RECORD LENGTH: 524288

 Memory used in sort:       0.78 MW

 SORT1 READ      284735. AND WROTE      212531. INTEGRALS IN      1 RECORDS. CPU TIME:     0.00 SEC, REAL TIME:     0.00 SEC
 SORT2 READ      212531. AND WROTE      222111. INTEGRALS IN      6 RECORDS. CPU TIME:     0.02 SEC, REAL TIME:     0.03 SEC

 FILE SIZES:   FILE 1:    31.7 MBYTE,  FILE 4:     4.2 MBYTE,   TOTAL:     35.9 MBYTE

 OPERATOR DM      FOR CENTER  0  COORDINATES:    0.000000    0.000000    0.000000


 **********************************************************************************************************************************
 DATASETS  * FILE   NREC   LENGTH (MB)   RECORD NAMES
              1      19       31.13       500      610      700      900      950      970     1000      129      960     1100   
                                          VAR    BASINP    GEOM    SYMINP    ZMAT    AOBASIS   BASIS     P2S    ABASIS      S 
                                         1400     1410     1200     1210     1080     1600     1650     1300     1700   
                                           T        V       H0       H01     AOSYM     SMH    MOLCAS    ERIS     OPER   

 PROGRAMS   *        TOTAL       INT
 CPU TIMES  *         0.30      0.19
 REAL TIME  *         0.51 SEC
 DISK USED  *        36.24 MB
 **********************************************************************************************************************************


 PROGRAM * RHF-SCF (CLOSED SHELL)       Authors: W. Meyer, H.-J. Werner


 NUMBER OF ELECTRONS:       8+    8-    SPACE SYMMETRY=1    SPIN SYMMETRY: Singlet 
 CONVERGENCE THRESHOLDS:    1.00E-05 (Density)    1.00E-07 (Energy)
 MAX. NUMBER OF ITERATIONS:       60
 INTERPOLATION TYPE:            DIIS
 INTERPOLATION STEPS:              2 (START)      1 (STEP)
 LEVEL SHIFTS:                  0.00 (CLOSED)  0.00 (OPEN) 



 Orbital guess generated from atomic densities. Full valence occupancy:    8

 Molecular orbital dump at record        2100.2

 Initial occupancy:   8

 ITERATION    DDIFF          GRAD             ENERGY        2-EL.EN.            DIPOLE MOMENTS         DIIS   ORB.
    1      0.000D+00      0.000D+00       -77.79845260    116.140743    0.18529   -0.03745   -0.15068    0    start
    2      0.000D+00      0.787D-02       -77.81830179    115.049035   -0.14086   -0.02727    0.16327    1    diag
    3      0.891D-02      0.366D-02       -77.82164437    115.360357   -0.01125   -0.12791   -0.05200    2    diag
    4      0.375D-02      0.165D-02       -77.82270666    115.393331   -0.09914   -0.09858    0.04987    3    diag
    5      0.213D-02      0.583D-03       -77.82290066    115.325916   -0.09863   -0.11520    0.03252    4    diag
    6      0.885D-03      0.243D-03       -77.82300323    115.335909   -0.10999   -0.11876    0.03628    5    diag
    7      0.832D-03      0.105D-03       -77.82303239    115.336316   -0.11300   -0.11945    0.03673    6    diag
    8      0.479D-03      0.379D-04       -77.82303607    115.337559   -0.11300   -0.11941    0.03658    7    diag
    9      0.176D-03      0.144D-04       -77.82303650    115.337933   -0.11257   -0.11921    0.03640    8    diag
   10      0.642D-04      0.453D-05       -77.82303653    115.337978   -0.11241   -0.11923    0.03628    9    orth
   11      0.161D-04      0.126D-05       -77.82303653    115.337979   -0.11237   -0.11923    0.03625    9    diag
   12      0.342D-05      0.348D-06       -77.82303653    115.337984   -0.11237   -0.11923    0.03626    0    orth

 Final occupancy:   8

 !RHF STATE  1.1 Energy               -77.823036531430
 Nuclear energy                        32.47908530
 One-electron energy                 -167.97111379
 Two-electron energy                   57.66899196
 Virial quotient                       -0.99989781
 !RHF STATE  1.1 Dipole moment         -0.11237181    -0.11922828     0.03625530
 Dipole moment /Debye                  -0.28560195    -0.30302821     0.09214576

 ELECTRON ORBITALS
 =================

  Orbital  Occupation    Energy     Coefficients
    1.1     2.00000   -11.27683     2 1s    0.99629
    2.1     2.00000   -11.24294     1 1s    0.99615
    3.1     2.00000    -1.04650     1 1s    0.30620     2 1s    0.25803
    4.1     2.00000    -0.78734     2 1s    0.25836     2 1s    0.32895
    5.1     2.00000    -0.62588     1 2py   0.38081
    6.1     2.00000    -0.56064     1 2px   0.31626     2 2px  -0.29300     2 2py   0.25343
    7.1     2.00000    -0.39476     1 2pz   0.25911     2 2pz   0.32046     2 2pz   0.27460
    8.1     2.00000    -0.38168     2 2px   0.28440     5 1s    0.31448
    9.1     0.00000     0.06111     1 1s   -0.33498     1 2pz  -0.33740     1 2pz  -0.49274     2 1s   -0.44602     2 2pz   0.32468
                                    2 2pz   0.43991
   10.1     0.00000     0.21987     1 1s   -1.03944     1 2px   0.34376     1 2py   0.25865     1 2pz   0.40685     2 1s   -0.88467
                                    2 2px  -0.53312     2 2py  -0.49475     2 2pz  -0.37515     3 1s    0.52216     4 1s    0.82386
                                    5 1s    1.18207     6 1s    0.42878
   11.1     0.00000     0.28107     1 1s    1.43388     1 2py   0.28707     1 2pz  -0.36177     2 1s   -1.65956     2 2py   0.41698
                                    2 2pz  -0.54783     3 1s   -1.23864     6 1s    1.61890
   12.1     0.00000     0.30720     1 1s   -1.53635     1 2px   0.50825     1 2py  -0.65386     1 2pz   0.64785     2 1s   -0.40850
                                    2 2px  -0.35901     2 2py   1.04815     2 2pz  -0.32367     3 1s    1.70800     4 1s    0.45807
                                    5 1s   -0.65949     6 1s    1.31278
   13.1     0.00000     0.34980     1 1s   -1.44181     1 2py   0.26068     1 2py   1.33239     1 2pz   0.31061     2 1s    0.75082
                                    2 2pz   0.35609     3 1s   -0.52720     4 1s    2.52609     5 1s   -0.88206     6 1s   -0.40962
   14.1     0.00000     0.42276     1 1s    1.90132     1 2px   1.84478     1 2py  -0.54737     1 2pz  -0.72740     2 1s   -2.02492
                                    2 2px   1.72187     2 2py  -0.64396     2 2pz  -0.80758     3 1s    0.69291     6 1s   -0.57047
   15.1     0.00000     0.70007     1 1s    0.51019     1 2px   0.48386     1 2px  -0.67727     1 2py  -0.38703     2 2px  -0.55614
                                    2 2pz   0.25388     2 2px   1.09779     2 2pz  -0.25071     4 1s   -0.29453     4 1s    0.26468
                                    5 1s    0.45718
   16.1     0.00000     0.74007     1 1s   -0.50324     1 2px   0.33184     1 2py  -0.55390     1 2pz  -0.27096     1 2px  -0.79598
                                    1 2py   1.43357     1 2pz   0.44762     2 1s    0.52809     3 1s   -0.45406     4 1s    0.34554
                                    4 1s    0.30881
   17.1     0.00000     0.78723     1 2pz  -0.64732     1 2px   0.28897     1 2py   0.34694     1 2pz   0.66841     2 1s    0.26344
                                    2 2py   0.43772     2 2pz  -0.40073     2 2px   0.42760     2 2py  -0.83201     2 2pz   0.43062
                                    6 1s   -0.38616     6 1s   -0.25569
   18.1     0.00000     0.81597     1 2pz  -0.29189     1 2py  -0.53581     2 1s   -0.34666     2 2py  -0.57126     2 2pz  -0.71425
                                    2 2py   0.99313     2 2pz   0.60011     5 1s   -0.29822
   19.1     0.00000     0.86467     1 1s    0.37450     1 2pz   0.71948     1 2px  -0.40090     1 2py   0.62566     1 2pz  -0.96950
                                    2 1s    0.32199     2 2px  -0.25672     2 2pz  -0.62710     2 2px   0.50234     2 2py  -0.59434
                                    2 2pz   0.93054
   20.1     0.00000     0.96905     1 2px   0.62855     1 2py   0.25023     1 2px  -1.08701     1 2py  -0.67588     2 1s    0.25113
                                    2 2px   0.74321     2 2py   0.54228     2 2px  -1.16340     2 2py  -0.93200     4 1s   -1.19163
                                    5 1s    1.09399
   21.1     0.00000     1.05879     1 2px   0.42674     1 2px  -0.59389     2 1s   -0.79816     2 1s    1.56153     2 2py  -0.40881
                                    2 2py   0.48563     2 2pz   0.26526     4 1s   -0.33318     5 1s    1.00169     5 1s   -1.40289
   22.1     0.00000     1.14169     1 1s    0.57092     1 2px  -0.28646     1 2py   0.35856     1 2px   0.77727     1 2py  -0.73667
                                    2 1s   -0.52220     2 1s    0.46030     2 2px  -0.50228     2 2py   0.48889     2 2px   1.04189
                                    2 2py  -0.84534     3 1s   -0.38074     3 1s    0.96325     4 1s   -0.34328     6 1s    0.81269
                                    6 1s   -1.65652
   23.1     0.00000     1.18907     1 1s   -0.48866     1 1s    0.87989     1 2px   0.28403     1 2py  -0.61490     1 2py   0.65946
                                    3 1s    0.89306     3 1s   -1.34239     4 1s    0.60509     6 1s    0.61090     6 1s   -0.48313
   24.1     0.00000     1.25003     1 1s   -1.47447     1 1s    2.77719     1 2pz   0.27046     1 2px  -0.93933     1 2pz  -1.05080
                                    2 1s   -1.24555     2 1s    2.20658     2 2px   0.30611     2 2py  -0.54512     2 2pz   0.89508
                                    3 1s   -1.14830     4 1s   -1.46497     5 1s   -0.47362     6 1s   -0.32102     6 1s   -0.85268
   25.1     0.00000     1.27896     1 1s   -1.26030     1 1s    4.62560     1 2py  -0.25914     1 2px   1.15348     1 2py  -0.30081
                                    1 2pz  -1.23733     2 1s    1.02880     2 1s   -3.73394     2 2px   1.27171     2 2py  -0.75804
                                    2 2pz  -0.74580     3 1s   -0.40045     3 1s   -0.38789     4 1s   -0.72255     4 1s   -0.28563
                                    5 1s    0.36343
   26.1     0.00000     1.32813     1 1s    1.03612     1 1s   -2.86588     1 2py  -0.52325     1 2pz  -0.25961     1 2px  -0.45470
                                    1 2py   1.00555     1 2pz   0.47331     2 1s   -1.13667     2 1s    2.86089     2 2px  -0.42220
                                    2 2pz   0.92914     4 1s   -0.80517     4 1s    1.51185     5 1s   -0.38733     6 1s   -0.52589
   27.1     0.00000     1.69352     1 1s    0.65187     1 3d0   0.37902     1 3d2- -0.31560     1 3d2+ -0.29706     2 1s   -0.47894
                                    2 3d0  -0.32193     2 3d2-  0.27580     2 3d2+  0.35286
   28.1     0.00000     1.90448     1 2px   0.30867     1 3d0   0.29533     1 3d1+  0.46895     1 3d2+  0.40977     1 3d1-  0.41790
                                    2 1s    0.42108     2 1s   -1.09473     2 2pz  -0.42788     2 3d0   0.38987     6 1s    0.29668
   29.1     0.00000     1.94499     1 1s    0.41084     1 1s   -1.64599     1 2pz   0.52658     1 3d2-  0.28906     2 1s    0.83997
                                    2 2px  -0.37152     2 2py   0.29463     2 3d2- -0.27050     2 3d1+  0.52112     2 3d2+  0.26888
                                    2 3d1-  0.52287     3 1s    0.45054     4 1s    0.25912
   30.1     0.00000     2.15723     1 1s   -0.38750     1 1s    1.59150     1 2px   0.31604     1 2pz  -0.47201     1 3d0  -0.48090
                                    1 3d1+ -0.26988     1 3d2+ -0.25876     2 1s   -1.18458     2 2px   0.30935     2 2py  -0.32341
                                    2 2pz  -0.27080     2 3d0   0.60421     2 3d2+  0.44636     3 1s   -0.36793     4 1s   -0.27333
                                    5 1s    0.37506
   31.1     0.00000     2.25575     1 1s   -0.44250     1 3d1+ -0.34049     1 3d2+  0.44009     1 3d1-  0.26652     2 1s   -0.56223
                                    2 1s    0.64650     2 2px   0.25123     2 2px  -0.41539     2 2py   0.28058     2 3d0  -0.31893
                                    2 3d2- -0.33053     2 3d1+ -0.36858     2 3d2+  0.31510
   32.1     0.00000     2.34570     1 1s    0.78413     1 2px   0.30656     1 2py  -0.38334     1 3d0  -0.54769     2 1s   -0.72579
                                    2 2py   0.25655     2 2pz  -0.33570     2 3d0  -0.33757     2 3d2-  0.59630     2 3d1-  0.48201
                                    4 1s   -0.45694     5 1s   -0.26983     6 1s    0.53430
   33.1     0.00000     2.56315     1 3d0   0.30806     1 3d2- -0.64425     2 2py   0.32628     2 3d1+ -0.29015     2 3d2+ -0.36390
                                    2 3d1-  0.67879     3 1s   -0.36153     5 1s   -0.32227     6 1s    0.38399
   34.1     0.00000     2.67934     1 1s   -0.69744     1 2py   0.36883     1 3d0   0.34424     1 3d2-  0.38761     1 3d2+  0.33319
                                    1 3d1- -0.54982     2 1s    0.27304     2 2px  -0.32002     2 3d2-  0.65270     2 3d1+ -0.42529
                                    2 3d2+  0.33663     4 1s    0.53352     6 1s    0.40260
   35.1     0.00000     2.75142     1 1s    0.71332     1 2px   0.29595     1 2py  -0.46550     1 2pz  -0.30165     1 3d2-  0.47873
                                    1 3d1+ -0.53464     1 3d1-  0.74908     2 1s   -0.56524     2 2px   0.26203     2 3d0   0.39156
                                    2 3d2+ -0.31679     3 1s    0.58575     4 1s   -0.69327
   36.1     0.00000     2.97174     1 1s    1.55325     1 2px   0.44630     1 2px   0.84758     1 2pz  -0.36266     1 3d2- -0.39755
                                    1 3d1+ -0.65465     1 3d2+  0.74425     2 1s   -1.65720     2 2px   0.40707     2 2px   0.82296
                                    2 2py  -0.27134     2 2pz  -0.45028     2 3d2-  0.34231     2 3d1+  0.70015     2 3d2+ -0.55591
                                    4 1s    0.36313


 HOMO      8.1    -0.381677 =     -10.3860eV
 LUMO      9.1     0.061109 =       1.6629eV
 LUMO-HOMO         0.442787 =      12.0488eV


 **********************************************************************************************************************************
 DATASETS  * FILE   NREC   LENGTH (MB)   RECORD NAMES
              1      19       31.13       500      610      700      900      950      970     1000      129      960     1100   
                                          VAR    BASINP    GEOM    SYMINP    ZMAT    AOBASIS   BASIS     P2S    ABASIS      S 
                                         1400     1410     1200     1210     1080     1600     1650     1300     1700   
                                           T        V       H0       H01     AOSYM     SMH    MOLCAS    ERIS     OPER   

              2       4        2.86       700     1000      520     2100   
                                         GEOM     BASIS   MCVARS     RHF  

 PROGRAMS   *        TOTAL    HF-SCF       INT
 CPU TIMES  *         0.41      0.11      0.19
 REAL TIME  *         0.69 SEC
 DISK USED  *        36.24 MB
 **********************************************************************************************************************************


 PROGRAM * MULTI (Direct Multiconfiguration SCF)       Authors: P.J. Knowles, H.-J. Werner (1984)


 Number of closed-shell orbitals:   7 (   7 )
 Number of active  orbitals:        2 (   2 )
 Number of external orbitals:      27 (  27 )

 State symmetry 1

 Number of electrons:     2    Spin symmetry=Singlet   Space symmetry=1
 Number of states:        3
 Number of CSFs:          3   (4 determinants, 4 intermediate states)

 Molecular orbitals read from record     2100.2  Type=RHF/CANONICAL (state 1.1)

 Wavefunction dump at record             2140.2

 Convergence thresholds  0.10E-01 (gradient)  0.10E-05 (energy)  0.10E-02 (step length)

 Weight factors for state symmetry  1:    0.33333   0.33333   0.33333

 Number of orbital rotations:      257   (    14 Core/Active    189 Core/Virtual   0 Active/Active     54 Active/Virtual)
 Total number of variables:        269

 Micro-Iterations solved by the two-step solver

 ITER. MIC  NCI  NEG     ENERGY(VAR)     ENERGY(PROJ)   ENERGY CHANGE     GRAD(0)  GRAD(ORB)   GRAD(CI)     STEP       TIME

   1   10    6    0     -77.65804341     -77.68750097   -0.02945756    0.15736279 0.00049381 0.00000000  0.21D+00      0.16
   2    7    5    0     -77.68671303     -77.68702463   -0.00031161    0.02815806 0.00004166 0.00000000  0.14D-01      0.27
   3    7    5    0     -77.68702582     -77.68702584   -0.00000001    0.00017040 0.00000001 0.00000000  0.14D-03      0.37
   4    3    3    0     -77.68702584     -77.68702584    0.00000000    0.00000001 0.00000000 0.00000000  0.16D-07      0.42

 ** WVFN ****  CONVERGENCE REACHED, FINAL GRADIENT:  0.18D-12



 Results for state 1.1
 =====================

 !MCSCF STATE  1.1 Energy             -77.816561281354
 Nuclear energy                        32.47908530
 Kinetic energy                        77.87945640
 One electron energy                 -168.03083855
 Two electron energy                   57.73519197
 Virial ratio                           1.99919240

 !MCSCF STATE  1.1 Dipole moment       -0.16161078    -0.19062532     0.04302257
 Dipole moment /Debye                  -0.41074674    -0.48448951     0.10934530

 Results for state 2.1
 =====================

 !MCSCF STATE  2.1 Energy             -77.715235749589
 Nuclear energy                        32.47908530
 Kinetic energy                        77.95943816
 One electron energy                 -167.75060481
 Two electron energy                   57.55628376
 Virial ratio                           1.99686757

 !MCSCF STATE  2.1 Dipole moment        0.04636503     0.03334707    -0.00143493
 Dipole moment /Debye                   0.11784042     0.08475423    -0.00364698

 Results for state 3.1
 =====================

 !MCSCF STATE  3.1 Energy             -77.529280486532
 Nuclear energy                        32.47908530
 Kinetic energy                        78.02490381
 One electron energy                 -167.53115571
 Two electron energy                   57.52278992
 Virial ratio                           1.99364788

 !MCSCF STATE  3.1 Dipole moment        0.32653780     0.30700205    -0.04244601
 Dipole moment /Debye                   0.82992195     0.78027027    -0.10787994

 State-averaged charge density matrix saved on record  2140.2 (density set 1)

 !MCSCF expec         <1.1|DMX|1.1>    -0.161610784983 au =    -0.410746738896 Debye
 !MCSCF trans         <2.1|DMX|1.1>    -0.149059199433 au =    -0.378845880095 Debye
 !MCSCF expec         <2.1|DMX|2.1>     0.046365025857 au =     0.117840422417 Debye
 !MCSCF trans         <3.1|DMX|1.1>    -0.011587128460 au =    -0.029449613951 Debye
 !MCSCF trans         <3.1|DMX|2.1>    -0.143093994595 au =    -0.363684834782 Debye
 !MCSCF expec         <3.1|DMX|3.1>     0.326537801316 au =     0.829921945069 Debye

 !MCSCF expec         <1.1|DMY|1.1>    -0.190625322424 au =    -0.484489506967 Debye
 !MCSCF trans         <2.1|DMY|1.1>    -0.106074803796 au =    -0.269597599832 Debye
 !MCSCF expec         <2.1|DMY|2.1>     0.033347065126 au =     0.084754233783 Debye
 !MCSCF trans         <3.1|DMY|1.1>    -0.015816881583 au =    -0.040199869893 Debye
 !MCSCF trans         <3.1|DMY|2.1>    -0.095294469993 au =    -0.242198519044 Debye
 !MCSCF expec         <3.1|DMY|3.1>     0.307002050831 au =     0.780270272351 Debye

 !MCSCF expec         <1.1|DMZ|1.1>     0.043022567770 au =     0.109345297792 Debye
 !MCSCF trans         <2.1|DMZ|1.1>    -0.004761800800 au =    -0.012102497678 Debye
 !MCSCF expec         <2.1|DMZ|2.1>    -0.001434925491 au =    -0.003646977930 Debye
 !MCSCF trans         <3.1|DMZ|1.1>     0.004722538796 au =     0.012002710153 Debye
 !MCSCF trans         <3.1|DMZ|2.1>    -0.008967192628 au =    -0.022790837440 Debye
 !MCSCF expec         <3.1|DMZ|3.1>    -0.042446014043 au =    -0.107879940372 Debye


 NATURAL ORBITALS (state averaged)
 =================================

  Orbital  Occupation    Energy     Coefficients
    1.1     2.00000   -11.27173     2 1s    0.99626
    2.1     2.00000   -11.23590     1 1s    0.99612
    3.1     2.00000    -1.05853     1 1s    0.30165     2 1s    0.25270
    4.1     2.00000    -0.78726     1 1s   -0.27109     2 1s    0.25474     2 1s    0.35312
    5.1     2.00000    -0.62610     1 2py   0.35786
    6.1     2.00000    -0.55798     1 2px   0.26849     2 2py   0.28245
    7.1     2.00000    -0.41969     1 2pz   0.31655     1 2pz   0.27744     2 2pz   0.33482     2 2pz   0.28301
    8.1     1.00000    -0.08820     1 2pz  -0.41172     1 2pz  -0.44332     2 1s   -0.28827     2 2pz   0.39640     2 2pz   0.41270
    9.1     1.00000    -0.23079     1 2px  -0.30752     2 2px   0.31008     4 1s    0.27265     5 1s    0.32637
   10.1    -0.00000     0.20572     1 1s   -0.88876     1 2px   0.35791     1 2pz   0.30247     2 1s   -1.00440     2 2px  -0.50813
                                    2 2py  -0.53463     2 2pz  -0.35821     3 1s    0.45974     4 1s    0.72615     5 1s    1.23365
                                    6 1s    0.43358
   11.1    -0.00000     0.28044     1 1s    1.60471     1 2pz  -0.41557     2 1s   -1.65107     2 2py   0.37689     2 2pz  -0.52155
                                    3 1s   -1.29431     6 1s    1.55841
   12.1    -0.00000     0.30705     1 1s   -1.79280     1 2px   0.48911     1 2py  -0.37143     1 2pz   0.66848     2 1s   -0.36700
                                    2 2py   0.26472     2 2px  -0.37727     2 2py   1.09720     2 2pz  -0.25022     3 1s    1.51338
                                    4 1s    0.92946     5 1s   -0.74532     6 1s    1.35629
   13.1    -0.00000     0.34018     1 1s   -1.19648     1 2py   0.29716     1 2py   1.47839     2 1s    0.85468     2 2pz   0.40867
                                    3 1s   -0.92606     4 1s    2.41815     5 1s   -0.75279     6 1s   -0.50450
   14.1    -0.00000     0.42992     1 1s    1.71633     1 2px   1.85020     1 2py  -0.41414     1 2pz  -0.66420     2 1s   -1.92363
                                    2 2px   1.73549     2 2py  -0.56306     2 2pz  -0.75199     3 1s    0.67651     6 1s   -0.57948
   15.1    -0.00000     0.69673     1 1s    0.52587     1 2px   0.46085     1 2py   0.25090     1 2px  -0.63443     1 2py  -0.43070
                                    2 1s   -0.30978     2 2px  -0.54488     2 2px   1.09036     2 2pz  -0.26342     4 1s   -0.32708
                                    4 1s    0.28761     5 1s    0.52515
   16.1    -0.00000     0.74107     1 1s   -0.63328     1 2px   0.34155     1 2py  -0.51972     1 2pz  -0.25480     1 2px  -0.85739
                                    1 2py   1.40783     1 2pz   0.50374     2 1s    0.57120     3 1s   -0.46023     4 1s    0.33097
                                    4 1s    0.35807
   17.1    -0.00000     0.78677     1 1s   -0.29569     1 2pz  -0.62374     1 2py   0.41479     1 2pz   0.70740     2 1s    0.35710
                                    2 2py   0.45519     2 2pz  -0.39164     2 2px   0.41547     2 2py  -0.86207     2 2pz   0.43451
                                    6 1s   -0.38752     6 1s   -0.26529
   18.1    -0.00000     0.81552     1 1s   -0.25410     1 2pz  -0.29898     1 2py  -0.50073     2 2py  -0.52783     2 2pz  -0.72821
                                    2 2py   0.96148     2 2pz   0.72436     5 1s   -0.31653
   19.1    -0.00000     0.86359     1 1s    0.33316     1 2pz   0.70695     1 2px  -0.43470     1 2py   0.64714     1 2pz  -1.04324
                                    2 1s    0.27378     2 2px  -0.26912     2 2pz  -0.58524     2 2px   0.54452     2 2py  -0.58772
                                    2 2pz   0.95199     3 1s   -0.30475     6 1s   -0.28664
   20.1    -0.00000     0.97296     1 2px   0.54499     1 2px  -0.91812     1 2py  -0.68198     2 2px   0.73678     2 2py   0.61884
                                    2 2px  -1.09270     2 2py  -1.01915     4 1s   -1.09332     5 1s    1.28377
   21.1    -0.00000     1.02036     1 2px   0.51173     1 2px  -0.62049     2 1s   -0.73159     2 1s    1.34734     2 2py  -0.31822
                                    2 2py   0.31898     4 1s   -0.44277     5 1s    1.00551     5 1s   -1.19553
   22.1    -0.00000     1.14472     1 1s    0.61890     1 2px  -0.33580     1 2py   0.35256     1 2px   0.87444     1 2py  -0.75225
                                    2 1s   -0.43208     2 2px  -0.51775     2 2py   0.49815     2 2px   1.08283     2 2py  -0.86231
                                    3 1s   -0.38492     3 1s    0.99341     4 1s   -0.30565     6 1s    0.81054     6 1s   -1.62864
   23.1    -0.00000     1.19330     1 1s   -0.35572     1 1s    0.64007     1 2px   0.25117     1 2py  -0.63771     1 2py   0.65720
                                    2 1s   -0.34800     3 1s    0.88673     3 1s   -1.22269     4 1s   -0.29222     4 1s    0.76979
                                    6 1s    0.63670     6 1s   -0.41427
   24.1    -0.00000     1.23923     1 1s   -1.31269     1 1s    2.09367     1 2pz   0.27691     1 2px  -1.16115     1 2pz  -0.80723
                                    2 1s   -1.42489     2 1s    2.81721     2 2py  -0.42749     2 2pz   0.95806     3 1s   -1.18076
                                    4 1s    0.27531     4 1s   -1.43545     5 1s   -0.45546     6 1s   -0.91732
   25.1    -0.00000     1.27148     1 1s   -1.38835     1 1s    4.69814     1 2py  -0.33153     1 2px   0.91583     1 2pz  -1.33762
                                    2 1s    0.66638     2 1s   -2.94062     2 2px   1.25324     2 2py  -0.80135     2 2pz  -0.45395
                                    3 1s   -0.45426     3 1s   -0.58342     4 1s   -0.77132     4 1s   -0.35775
   26.1    -0.00000     1.30930     1 1s    1.15814     1 1s   -3.34257     1 2py  -0.48302     1 2px  -0.60302     1 2py   1.03059
                                    1 2pz   0.57317     2 1s   -1.29244     2 1s    3.36395     2 2px  -0.56673     2 2py   0.26754
                                    2 2pz   1.03395     4 1s   -0.70900     4 1s    1.47530     5 1s   -0.39690     6 1s   -0.57785
   27.1    -0.00000     1.68918     1 1s    0.68927     1 3d0   0.37084     1 3d2- -0.31808     1 3d2+ -0.29916     2 1s   -0.50181
                                    2 3d0  -0.31650     2 3d2-  0.28150     2 3d2+  0.35558
   28.1    -0.00000     1.90307     1 2px   0.30429     1 3d0   0.28927     1 3d1+  0.46257     1 3d2+  0.41138     1 3d1-  0.41412
                                    2 1s    0.40787     2 1s   -1.06473     2 2pz  -0.41706     2 3d0   0.39595     2 3d2+  0.25773
                                    6 1s    0.29596
   29.1    -0.00000     1.94205     1 1s    0.39963     1 1s   -1.60952     1 2pz   0.51490     1 3d2-  0.28350     2 1s    0.82066
                                    2 2px  -0.36377     2 2py   0.29597     2 3d2- -0.27329     2 3d1+  0.52087     2 3d2+  0.27290
                                    2 3d1-  0.52134     3 1s    0.45018     4 1s    0.26129
   30.1    -0.00000     2.15583     1 1s   -0.39529     1 1s    1.56312     1 2px   0.30062     1 2pz  -0.46763     1 3d0  -0.47943
                                    1 3d1+ -0.27496     1 3d2+ -0.25720     2 1s   -1.12866     2 2px   0.29820     2 2py  -0.33055
                                    2 3d0   0.60193     2 3d2+  0.44933     3 1s   -0.36755     4 1s   -0.27862     5 1s    0.36779
   31.1    -0.00000     2.25332     1 1s   -0.43057     1 2px  -0.25336     1 3d1+ -0.34286     1 3d2+  0.44433     2 1s   -0.56660
                                    2 1s    0.69561     2 2px   0.25577     2 2px  -0.42208     2 2py   0.27337     2 3d0  -0.32517
                                    2 3d2- -0.34677     2 3d1+ -0.37741     2 3d2+  0.30732
   32.1    -0.00000     2.34052     1 1s    0.82491     1 2px   0.32458     1 2py  -0.40296     1 3d0  -0.55766     2 1s   -0.73547
                                    2 2py   0.26427     2 2pz  -0.33914     2 3d0  -0.32509     2 3d2-  0.59085     2 3d1-  0.49478
                                    4 1s   -0.44837     5 1s   -0.25506     6 1s    0.55203
   33.1    -0.00000     2.55901     1 3d0   0.29478     1 3d2- -0.66469     2 2py   0.32540     2 3d1+ -0.27496     2 3d2+ -0.36817
                                    2 3d1-  0.67616     3 1s   -0.37513     5 1s   -0.30947     6 1s    0.36912
   34.1    -0.00000     2.67672     1 1s   -0.75059     1 2py   0.40756     1 3d0   0.34872     1 3d2-  0.33903     1 3d2+  0.34291
                                    1 3d1- -0.60304     2 1s    0.31358     2 2px  -0.33029     2 3d2-  0.63999     2 3d1+ -0.41672
                                    2 3d2+  0.33821     4 1s    0.57735     6 1s    0.39682
   35.1    -0.00000     2.75407     1 1s    0.67006     1 2px   0.29104     1 2py  -0.44666     1 2pz  -0.29085     1 3d2-  0.49069
                                    1 3d1+ -0.54952     1 3d1-  0.71637     2 1s   -0.54336     2 3d0   0.40544     2 3d2+ -0.29450
                                    3 1s    0.59114     4 1s   -0.64531
   36.1    -0.00000     2.96836     1 1s    1.58476     1 2px   0.43965     1 2px   0.85901     1 2pz  -0.37126     1 3d2- -0.39660
                                    1 3d1+ -0.65732     1 3d2+  0.74135     2 1s   -1.68370     2 2px   0.40205     2 2px   0.83528
                                    2 2py  -0.27790     2 2pz  -0.45696     2 3d2-  0.34013     2 3d1+  0.70382     2 3d2+ -0.55484
                                    4 1s    0.35120


 Natural orbital dump (state averaged) at molpro section  2140.2    (Orbital set 2)



 **********************************************************************************************************************************
 DATASETS  * FILE   NREC   LENGTH (MB)   RECORD NAMES
              1      20       31.86       500      610      700      900      950      970     1000      129      960     1100   
                                          VAR    BASINP    GEOM    SYMINP    ZMAT    AOBASIS   BASIS     P2S    ABASIS      S 
                                         1400     1410     1200     1210     1080     1600     1650     1300     1700     1380   
                                           T        V       H0       H01     AOSYM     SMH    MOLCAS    ERIS     OPER     JKOP   

              2       5        5.42       700     1000      520     2100     2140   
                                         GEOM     BASIS   MCVARS     RHF     MCSCF   

 PROGRAMS   *        TOTAL     MULTI    HF-SCF       INT
 CPU TIMES  *         0.89      0.48      0.11      0.19
 REAL TIME  *         1.28 SEC
 DISK USED  *        39.04 MB
 **********************************************************************************************************************************
 Molecular orbitals read from record     2140.2  Type=MCSCF/NATURAL (state averaged)
 Occupation numbers read from record     2140.2  Type=MCSCF/NATURAL (state averaged)
 Orbital energies read from record       2140.2  Type=MCSCF/NATURAL (state averaged)
 Redundancy group numbers read from rec  2140.2  Type=MCSCF/NATURAL (state averaged)

 MULTI/6-31G* energy=    -77.529280486532

           MULTI          HF-SCF
    -77.52928049    -77.82303653
 **********************************************************************************************************************************
 Molpro calculation terminated
