
 Primary working directories    : /scratch.local/johan406.molpro_temp/molpro.zn4C7ERa5F
 Secondary working directories  : /scratch.local/johan406.molpro_temp/molpro.zn4C7ERa5F
 Wavefunction directory         : /home/goodpast/johan406/wfu/
 Main file repository           : /scratch.local/johan406.molpro_temp/molpro.zn4C7ERa5F/

 id        : roweumn

 Nodes     nprocs
 acn09        1

 Using customized tuning parameters: mindgm=1; mindgv=20; mindgc=4; mindgr=1; noblas=0; minvec=7
 default implementation of scratch files=df  


 Variables initialized (934), CPU time= 0.01 sec
                                                                                 !leave this line blank
 
 gprint, orbitals=30
 memory, 125., m
 symmetry, nosym
 nelect=16
 basis=6-31g*
 
 geometry={
 C -0.6225 0.1497 0.3047
 C 0.6314 -0.1996 -0.365
 H -1.2731 0.9084 -0.159
 H -0.9762 -0.9922 -0.1974
 H 0.9851 0.9423 0.137
 H 1.282 -0.9583 0.0985
 }
 
 hf
 {multi,
 closed 7
 occ 9
 wf,spin=0;STATE,3
 }
 
 Commands  initialized (763), CPU time= 0.00 sec, 617 directives.
 Default parameters read. Elapsed time= 0.07 sec

 Checking input...
 Passed
1


                                         ***  PROGRAM SYSTEM MOLPRO  ***
                                       Copyright, TTI GmbH Stuttgart, 2015
                                    Version 2019.2 linked Oct 25 2019 22:50:27


 **********************************************************************************************************************************
 LABEL *                                                                                 
  64 bit serial version                                                                  DATE: 07-Feb-23          TIME: 15:55:55  
 **********************************************************************************************************************************

 SHA1:             8dbd9ae1082e4ce945b0f27595c9eb2d4aa09004
 **********************************************************************************************************************************


 Variable memory set to  125000000 words,  buffer space 

 SETTING NELECT         =        16.00000000                                  
 SETTING BASIS          =    6-31G*
 ZSYMEL=NOSYM


Geometry recognized as XYZ



 Recomputing integrals since basis changed


 Using spherical harmonics

 Library entry C      S 6-31G                selected for orbital group  1
 Library entry C      P 6-31G                selected for orbital group  1
 Library entry C      D 6-31G*               selected for orbital group  1
 Library entry H      S 6-31G                selected for orbital group  2


 PROGRAM * SEWARD (Integral evaluation for generally contracted gaussian basis sets)     Author: Roland Lindh, 1990

 Geometry written to block  1 of record 700


 Point group  C1  



 ATOMIC COORDINATES

 NR  ATOM    CHARGE       X              Y              Z

   1  C       6.00   -1.176354513    0.282892001    0.575799550
   2  C       6.00    1.193173075   -0.377189334   -0.689750035
   3  H       1.00   -2.405810329    1.716627212   -0.300466454
   4  H       1.00   -1.844750643   -1.874986261   -0.373031937
   5  H       1.00    1.861569205    1.780688927    0.258892479
   6  H       1.00    2.422628892   -1.810924545    0.186138023

 Bond lengths in Bohr (Angstrom)

 1-2  2.766221992  1-3  2.082066370  1-4  2.450198598  2-5  2.450125425  2-6  2.081907335
     ( 1.463821639)     ( 1.101782075)     ( 1.296589260)     ( 1.296550539)     ( 1.101697917)

 Bond angles

  1-2-5   81.16346374   1-2-6  118.53584465   2-1-3  118.52804894   2-1-4   81.16168378

  3-1-4  106.40322620   5-2-6  106.41115552

 NUCLEAR CHARGE:                   16
 NUMBER OF PRIMITIVE AOS:          72
 NUMBER OF SYMMETRY AOS:           70
 NUMBER OF CONTRACTIONS:           36   (   36A   )
 NUMBER OF CORE ORBITALS:           2   (    2A   )
 NUMBER OF VALENCE ORBITALS:       12   (   12A   )


 NUCLEAR REPULSION ENERGY   31.44455378

 Eigenvalues of metric

         1 0.104E-01 0.298E-01 0.621E-01 0.833E-01 0.995E-01 0.225E+00 0.243E+00 0.275E+00


 Contracted 2-electron integrals neglected if value below      1.0D-11
 AO integral compression algorithm  1   Integral accuracy      1.0D-11

     1.573 MB (compressed) written to integral file ( 58.6%)


 NUMBER OF SORTED TWO-ELECTRON INTEGRALS:     222111.     BUFFER LENGTH:  32768
 NUMBER OF SEGMENTS:   1  SEGMENT LENGTH:     222111      RECORD LENGTH: 524288

 Memory used in sort:       0.78 MW

 SORT1 READ      284735. AND WROTE      212531. INTEGRALS IN      1 RECORDS. CPU TIME:     0.00 SEC, REAL TIME:     0.00 SEC
 SORT2 READ      212531. AND WROTE      222111. INTEGRALS IN      6 RECORDS. CPU TIME:     0.02 SEC, REAL TIME:     0.03 SEC

 FILE SIZES:   FILE 1:    31.7 MBYTE,  FILE 4:     4.2 MBYTE,   TOTAL:     35.9 MBYTE

 OPERATOR DM      FOR CENTER  0  COORDINATES:    0.000000    0.000000    0.000000


 **********************************************************************************************************************************
 DATASETS  * FILE   NREC   LENGTH (MB)   RECORD NAMES
              1      19       31.12       500      610      700      900      950      970     1000      129      960     1100   
                                          VAR    BASINP    GEOM    SYMINP    ZMAT    AOBASIS   BASIS     P2S    ABASIS      S 
                                         1400     1410     1200     1210     1080     1600     1650     1300     1700   
                                           T        V       H0       H01     AOSYM     SMH    MOLCAS    ERIS     OPER   

 PROGRAMS   *        TOTAL       INT
 CPU TIMES  *         0.27      0.17
 REAL TIME  *         0.41 SEC
 DISK USED  *        36.24 MB
 **********************************************************************************************************************************


 PROGRAM * RHF-SCF (CLOSED SHELL)       Authors: W. Meyer, H.-J. Werner


 NUMBER OF ELECTRONS:       8+    8-    SPACE SYMMETRY=1    SPIN SYMMETRY: Singlet 
 CONVERGENCE THRESHOLDS:    1.00E-05 (Density)    1.00E-07 (Energy)
 MAX. NUMBER OF ITERATIONS:       60
 INTERPOLATION TYPE:            DIIS
 INTERPOLATION STEPS:              2 (START)      1 (STEP)
 LEVEL SHIFTS:                  0.00 (CLOSED)  0.00 (OPEN) 



 Orbital guess generated from atomic densities. Full valence occupancy:    8

 Molecular orbital dump at record        2100.2

 Initial occupancy:   8

 ITERATION    DDIFF          GRAD             ENERGY        2-EL.EN.            DIPOLE MOMENTS         DIIS   ORB.
    1      0.000D+00      0.000D+00       -77.78922357    114.050329    0.00007    0.00002   -0.00014    0    start
    2      0.000D+00      0.670D-02       -77.80717357    113.118713    0.00012    0.00000   -0.00011    1    diag
    3      0.765D-02      0.228D-02       -77.80937468    113.510876    0.00014   -0.00000   -0.00013    2    diag
    4      0.311D-02      0.811D-03       -77.80979094    113.359360    0.00015    0.00000   -0.00012    3    diag
    5      0.164D-02      0.259D-03       -77.80987409    113.364427    0.00016   -0.00000   -0.00013    4    diag
    6      0.832D-03      0.938D-04       -77.80989419    113.364013    0.00016    0.00001   -0.00012    5    diag
    7      0.352D-03      0.453D-04       -77.80990043    113.365024    0.00018   -0.00001   -0.00015    6    diag
    8      0.230D-03      0.178D-04       -77.80990144    113.365573    0.00013    0.00003   -0.00009    7    diag
    9      0.116D-03      0.459D-05       -77.80990148    113.365581    0.00020   -0.00003   -0.00020    8    diag
   10      0.197D-04      0.175D-05       -77.80990148    113.365582    0.00014    0.00002   -0.00009    9    orth
   11      0.389D-05      0.897D-06       -77.80990148    113.365588    0.00018   -0.00002   -0.00017    0    orth

 Final occupancy:   8

 !RHF STATE  1.1 Energy               -77.809901484838
 Nuclear energy                        31.44455378
 One-electron energy                 -165.93724929
 Two-electron energy                   56.68279402
 Virial quotient                       -1.00510298
 !RHF STATE  1.1 Dipole moment          0.00018351    -0.00001619    -0.00016574
 Dipole moment /Debye                   0.00046641    -0.00004115    -0.00042124

 ELECTRON ORBITALS
 =================

  Orbital  Occupation    Energy     Coefficients
    1.1     2.00000   -11.28421     1 1s    0.69512     2 1s    0.71373
    2.1     2.00000   -11.28335     1 1s    0.71383     2 1s   -0.69522
    3.1     2.00000    -1.02611     1 1s    0.28415     1 1s    0.25647     2 1s    0.28418     2 1s    0.25650
    4.1     2.00000    -0.77244     1 1s   -0.30308     2 1s    0.30304
    5.1     2.00000    -0.59148     1 2py   0.28562     2 2py   0.28586
    6.1     2.00000    -0.56696     1 2px   0.31116     2 2px  -0.31120
    7.1     2.00000    -0.40082     1 2pz   0.30932     1 2pz   0.27590     2 2pz   0.30931     2 2pz   0.27590
    8.1     2.00000    -0.36046     4 1s   -0.33029     5 1s   -0.33026
    9.1     0.00000     0.05330     1 1s    0.44172     1 2pz   0.32398     1 2pz   0.43053     2 1s    0.44168     2 2pz  -0.32402
                                    2 2pz  -0.43060
   10.1     0.00000     0.19584     1 1s   -0.72307     1 2px   0.40560     1 2py   0.44703     1 2pz   0.36151     2 1s   -0.72308
                                    2 2px  -0.40566     2 2py  -0.44702     2 2pz  -0.36145     3 1s    0.33412     4 1s    0.86054
                                    5 1s    0.86058     6 1s    0.33417
   11.1     0.00000     0.27428     1 1s    1.26433     1 2py   0.49953     1 2pz  -0.36822     2 1s   -1.26415     2 2py   0.49934
                                    2 2pz  -0.36795     3 1s   -1.35118     4 1s    0.35971     5 1s   -0.35969     6 1s    1.35079
   12.1     0.00000     0.28846     1 1s   -1.02089     1 2px   0.33059     1 2py   0.46953     1 2pz   0.34187     2 1s    1.02083
                                    2 2px   0.33053     2 2py   0.46970     2 2pz   0.34172     3 1s    0.47736     4 1s    1.27821
                                    5 1s   -1.27830     6 1s   -0.47711
   13.1     0.00000     0.30297     1 1s   -0.93703     1 2px   0.46915     1 2py  -0.89013     1 2pz   0.52378     2 1s   -0.93775
                                    2 2px  -0.46924     2 2py   0.89031     2 2pz  -0.52389     3 1s    1.59758     6 1s    1.59835
   14.1     0.00000     0.42655     1 1s    2.11119     1 2px   1.74952     1 2py  -0.70655     1 2pz  -0.83824     2 1s   -2.11098
                                    2 2px   1.74961     2 2py  -0.70670     2 2pz  -0.83822     3 1s    0.57736     4 1s   -0.28413
                                    5 1s    0.28419     6 1s   -0.57769
   15.1     0.00000     0.70397     1 2px  -0.54576     1 2pz   0.26808     1 2px   0.92082     2 2px   0.54579     2 2pz  -0.26813
                                    2 2px  -0.92095     4 1s   -0.41976     5 1s   -0.41972
   16.1     0.00000     0.76764     1 2py   0.33203     1 2pz  -0.25629     1 2px   0.60794     1 2py  -0.61908     2 2py   0.33212
                                    2 2pz  -0.25632     2 2px   0.60814     2 2py  -0.61951     3 1s    0.49508     6 1s   -0.49514
   17.1     0.00000     0.80142     1 2pz   0.69762     1 2pz  -0.61733     2 2pz   0.69801     2 2pz  -0.61770
   18.1     0.00000     0.81521     1 1s    0.32331     1 2py  -0.64171     1 2pz  -0.31149     1 2py   1.15979     1 2pz   0.27241
                                    2 1s    0.32322     2 2py   0.64153     2 2pz   0.31092     2 2py  -1.15965     2 2pz  -0.27196
   19.1     0.00000     0.85818     1 1s   -0.34927     1 2py   0.26853     1 2pz  -0.64247     1 2px   0.48204     1 2py  -0.69003
                                    1 2pz   0.93599     2 1s   -0.34926     2 2py  -0.26849     2 2pz   0.64231     2 2px  -0.48221
                                    2 2py   0.69006     2 2pz  -0.93577     3 1s    0.28038     6 1s    0.28043
   20.1     0.00000     0.96409     1 1s    0.46755     1 2px  -0.66028     1 2py  -0.47669     1 2px   1.10665     1 2py   0.79887
                                    2 1s   -0.46731     2 2px  -0.66022     2 2py  -0.47673     2 2px   1.10662     2 2py   0.79895
                                    4 1s    0.98759     5 1s   -0.98774
   21.1     0.00000     1.03911     1 1s   -0.66557     1 1s    1.19992     1 2px   0.27038     1 2py   0.25169     1 2px  -0.37439
                                    2 1s   -0.66542     2 1s    1.19971     2 2px  -0.27039     2 2py  -0.25158     2 2px   0.37437
                                    4 1s    0.69870     4 1s   -1.11189     5 1s    0.69836     5 1s   -1.11141
   22.1     0.00000     1.06244     1 1s   -0.34543     1 1s    0.62996     1 2py   0.38536     1 2py  -0.53925     2 1s    0.34558
                                    2 1s   -0.63024     2 2py   0.38539     2 2py  -0.53936     3 1s    0.26306     4 1s    0.74546
                                    4 1s   -1.01831     5 1s   -0.74582     5 1s    1.01867     6 1s   -0.26286
   23.1     0.00000     1.13560     1 1s   -0.33719     1 2px   0.39345     1 2py  -0.37873     1 2px  -0.95574     1 2py   0.71083
                                    2 1s    0.33655     2 2px   0.39323     2 2py  -0.37838     2 2px  -0.95555     2 2py   0.71058
                                    3 1s    0.62626     3 1s   -1.35890     6 1s   -0.62541     6 1s    1.35778
   24.1     0.00000     1.17302     1 1s   -0.35534     1 1s    0.52167     1 2px   0.25653     1 2py  -0.31477     2 1s   -0.35473
                                    2 1s    0.51905     2 2px  -0.25713     2 2py   0.31537     3 1s    0.82972     3 1s   -0.92673
                                    6 1s    0.83044     6 1s   -0.92803
   25.1     0.00000     1.25968     1 1s   -1.25919     1 1s    2.07641     1 2px  -0.55962     1 2py   0.56735     1 2pz  -0.98449
                                    2 1s   -1.26844     2 1s    2.10449     2 2px   0.55219     2 2py  -0.56356     2 2pz   0.99115
                                    3 1s   -0.29047     3 1s   -1.03367     4 1s   -0.44417     5 1s   -0.44595     6 1s   -0.29063
                                    6 1s   -1.03654
   26.1     0.00000     1.27708     1 1s   -1.53649     1 1s    4.73656     1 2px   1.29141     1 2py  -0.67999     1 2pz  -1.16387
                                    2 1s    1.52915     2 1s   -4.72440     2 2px   1.29463     2 2py  -0.68325     2 2pz  -1.15788
                                    3 1s   -0.41241     4 1s   -0.34159     4 1s   -0.31144     5 1s    0.33894     5 1s    0.31015
                                    6 1s    0.40677
   27.1     0.00000     1.70555     1 1s    0.57565     1 3d0   0.35990     1 3d2- -0.28099     1 3d2+ -0.33825     2 1s   -0.57558
                                    2 3d0  -0.35991     2 3d2-  0.28100     2 3d2+  0.33827
   28.1     0.00000     1.90149     1 1s    0.27333     1 1s   -0.53206     1 2pz   0.28860     1 3d0   0.36358     1 3d1+  0.32544
                                    1 3d2+  0.37168     1 3d1-  0.29411     2 1s    0.27266     2 1s   -0.52944     2 2pz  -0.28785
                                    2 3d0   0.36319     2 3d1+  0.32606     2 3d2+  0.37181     2 3d1-  0.29480
   29.1     0.00000     1.92871     1 1s   -0.34178     1 1s    1.36583     1 2px   0.32864     1 2pz  -0.36671     1 3d2- -0.30204
                                    1 3d1+  0.37086     1 3d1-  0.39636     2 1s    0.34214     2 1s   -1.36664     2 2px   0.32835
                                    2 2pz  -0.36713     2 3d2-  0.30186     2 3d1+ -0.37025     2 3d1- -0.39587     3 1s   -0.33270
                                    6 1s    0.33302
   30.1     0.00000     2.12675     1 1s    0.26124     1 1s   -1.07689     1 2px  -0.26010     1 2pz   0.30047     1 3d0   0.54283
                                    1 3d2+  0.39906     2 1s   -0.26127     2 1s    1.07703     2 2px  -0.26003     2 2pz   0.30054
                                    2 3d0  -0.54287     2 3d2+ -0.39912     4 1s    0.26074     5 1s   -0.26084
   31.1     0.00000     2.19985     1 1s    0.36395     1 1s   -0.33892     1 3d2-  0.41713     1 3d1+  0.40545     1 3d2+ -0.30682
                                    2 1s    0.36390     2 1s   -0.33881     2 3d2-  0.41710     2 3d1+  0.40547     2 3d2+ -0.30680
   32.1     0.00000     2.27906     1 1s    0.36866     1 2px  -0.34456     1 2py   0.42676     1 3d0   0.48138     1 3d2+ -0.25367
                                    1 3d1- -0.44989     2 1s    0.36874     2 2px   0.34480     2 2py  -0.42693     2 3d0   0.48137
                                    2 3d2+ -0.25371     2 3d1- -0.44996     3 1s   -0.30107     6 1s   -0.30111
   33.1     0.00000     2.49522     1 1s   -0.28884     1 3d2-  0.51919     1 3d1-  0.55810     2 1s    0.28882     2 3d2- -0.51895
                                    2 3d1- -0.55808     3 1s    0.54057     4 1s   -0.25371     5 1s    0.25377     6 1s   -0.54042
   34.1     0.00000     2.60594     1 2py   0.27434     1 3d2-  0.43613     1 3d2+  0.50487     1 3d1- -0.47959     2 2py  -0.27435
                                    2 3d2-  0.43624     2 3d2+  0.50485     2 3d1- -0.47947     4 1s    0.25079     5 1s    0.25076
   35.1     0.00000     2.69909     1 3d0  -0.42759     1 3d2- -0.51888     1 3d1+  0.50331     2 3d0  -0.42766     2 3d2- -0.51913
                                    2 3d1+  0.50340     3 1s   -0.45804     6 1s   -0.45842
   36.1     0.00000     2.94111     1 1s   -1.85149     1 2px  -0.42961     1 2px  -0.92120     1 2py   0.29623     1 2pz   0.48670
                                    1 3d2-  0.34175     1 3d1+  0.70903     1 3d2+ -0.60736     2 1s    1.85145     2 2px  -0.42963
                                    2 2px  -0.92120     2 2py   0.29623     2 2pz   0.48669     2 3d2- -0.34177     2 3d1+ -0.70898
                                    2 3d2+  0.60736


 HOMO      8.1    -0.360461 =      -9.8086eV
 LUMO      9.1     0.053300 =       1.4504eV
 LUMO-HOMO         0.413761 =      11.2590eV


 **********************************************************************************************************************************
 DATASETS  * FILE   NREC   LENGTH (MB)   RECORD NAMES
              1      19       31.12       500      610      700      900      950      970     1000      129      960     1100   
                                          VAR    BASINP    GEOM    SYMINP    ZMAT    AOBASIS   BASIS     P2S    ABASIS      S 
                                         1400     1410     1200     1210     1080     1600     1650     1300     1700   
                                           T        V       H0       H01     AOSYM     SMH    MOLCAS    ERIS     OPER   

              2       4        2.86       700     1000      520     2100   
                                         GEOM     BASIS   MCVARS     RHF  

 PROGRAMS   *        TOTAL    HF-SCF       INT
 CPU TIMES  *         0.37      0.10      0.17
 REAL TIME  *         0.57 SEC
 DISK USED  *        36.24 MB
 **********************************************************************************************************************************


 PROGRAM * MULTI (Direct Multiconfiguration SCF)       Authors: P.J. Knowles, H.-J. Werner (1984)


 Number of closed-shell orbitals:   7 (   7 )
 Number of active  orbitals:        2 (   2 )
 Number of external orbitals:      27 (  27 )

 State symmetry 1

 Number of electrons:     2    Spin symmetry=Singlet   Space symmetry=1
 Number of states:        3
 Number of CSFs:          3   (4 determinants, 4 intermediate states)

 Molecular orbitals read from record     2100.2  Type=RHF/CANONICAL (state 1.1)

 Wavefunction dump at record             2140.2

 Convergence thresholds  0.10E-01 (gradient)  0.10E-05 (energy)  0.10E-02 (step length)

 Weight factors for state symmetry  1:    0.33333   0.33333   0.33333

 Number of orbital rotations:      257   (    14 Core/Active    189 Core/Virtual   0 Active/Active     54 Active/Virtual)
 Total number of variables:        269

 Micro-Iterations solved by the two-step solver

 ITER. MIC  NCI  NEG     ENERGY(VAR)     ENERGY(PROJ)   ENERGY CHANGE     GRAD(0)  GRAD(ORB)   GRAD(CI)     STEP       TIME

   1    6    5    0     -77.67352347     -77.69051117   -0.01698770    0.15178156 0.00088108 0.00000000  0.15D+00      0.10
   2    5    5    0     -77.69029304     -77.69031010   -0.00001706    0.00608084 0.00000375 0.00000000  0.48D-02      0.18
   3    4    4    0     -77.69031013     -77.69031013   -0.00000000    0.00001254 0.00000000 0.00000000  0.27D-04      0.24

 ** WVFN ****  CONVERGENCE REACHED, FINAL GRADIENT:  0.24D-09



 Results for state 1.1
 =====================

 !MCSCF STATE  1.1 Energy             -77.804606886307
 Nuclear energy                        31.44455378
 Kinetic energy                        77.41510521
 One electron energy                 -165.92017307
 Two electron energy                   56.67101240
 Virial ratio                           2.00503134

 !MCSCF STATE  1.1 Dipole moment        0.00019687    -0.00000064    -0.00015797
 Dipole moment /Debye                   0.00050037    -0.00000163    -0.00040149

 Results for state 2.1
 =====================

 !MCSCF STATE  2.1 Energy             -77.717238956297
 Nuclear energy                        31.44455378
 Kinetic energy                        77.56081466
 One electron energy                 -165.77851102
 Two electron energy                   56.61671828
 Virial ratio                           2.00201680

 !MCSCF STATE  2.1 Dipole moment        0.00006822    -0.00002173    -0.00008059
 Dipole moment /Debye                   0.00017338    -0.00005522    -0.00020482

 Results for state 3.1
 =====================

 !MCSCF STATE  3.1 Energy             -77.549084538015
 Nuclear energy                        31.44455378
 Kinetic energy                        77.72165944
 One electron energy                 -165.86757603
 Two electron energy                   56.87393772
 Virial ratio                           1.99777958

 !MCSCF STATE  3.1 Dipole moment       -0.00002213    -0.00007851    -0.00006045
 Dipole moment /Debye                  -0.00005624    -0.00019953    -0.00015364

 State-averaged charge density matrix saved on record  2140.2 (density set 1)

 !MCSCF expec         <1.1|DMX|1.1>     0.000196874776 au =     0.000500372993 Debye
 !MCSCF trans         <2.1|DMX|1.1>    -0.000023878161 au =    -0.000060688256 Debye
 !MCSCF expec         <2.1|DMX|2.1>     0.000068217852 au =     0.000173381129 Debye
 !MCSCF trans         <3.1|DMX|1.1>     0.000019995468 au =     0.000050820081 Debye
 !MCSCF trans         <3.1|DMX|2.1>    -0.000047539121 au =    -0.000120824479 Debye
 !MCSCF expec         <3.1|DMX|3.1>    -0.000022127312 au =    -0.000056238334 Debye

 !MCSCF expec         <1.1|DMY|1.1>    -0.000000642879 au =    -0.000001633928 Debye
 !MCSCF trans         <2.1|DMY|1.1>     0.000035261961 au =     0.000089621094 Debye
 !MCSCF expec         <2.1|DMY|2.1>    -0.000021727469 au =    -0.000055222102 Debye
 !MCSCF trans         <3.1|DMY|1.1>    -0.000001173016 au =    -0.000002981313 Debye
 !MCSCF trans         <3.1|DMY|2.1>     0.000032790249 au =     0.000083339041 Debye
 !MCSCF expec         <3.1|DMY|3.1>    -0.000078507309 au =    -0.000199532607 Debye

 !MCSCF expec         <1.1|DMZ|1.1>    -0.000157966785 au =    -0.000401485222 Debye
 !MCSCF trans         <2.1|DMZ|1.1>     0.000046280413 au =     0.000117625372 Debye
 !MCSCF expec         <2.1|DMZ|2.1>    -0.000080587907 au =    -0.000204820612 Debye
 !MCSCF trans         <3.1|DMZ|1.1>    -0.000015651705 au =    -0.000039780060 Debye
 !MCSCF trans         <3.1|DMZ|2.1>     0.000061656464 au =     0.000156704836 Debye
 !MCSCF expec         <3.1|DMZ|3.1>    -0.000060450655 au =    -0.000153640175 Debye


 NATURAL ORBITALS (state averaged)
 =================================

  Orbital  Occupation    Energy     Coefficients
    1.1     2.00000   -11.26832     1 1s    0.70839     2 1s    0.70053
    2.1     2.00000   -11.26757     1 1s    0.70060     2 1s   -0.70845
    3.1     2.00000    -1.02948     1 1s    0.27704     1 1s    0.25500     2 1s    0.27706     2 1s    0.25500
    4.1     2.00000    -0.76620     1 1s   -0.32765     2 1s    0.32763
    5.1     2.00000    -0.59041     1 2py   0.27774     2 2py   0.27791
    6.1     2.00000    -0.55807     1 2px   0.27481     2 2px  -0.27483
    7.1     2.00000    -0.42053     1 2pz   0.32184     1 2pz   0.27311     2 2pz   0.32183     2 2pz   0.27311
    8.1     1.00000    -0.08882     1 1s    0.30152     1 2pz   0.38983     1 2pz   0.41586     2 1s    0.30150     2 2pz  -0.38987
                                    2 2pz  -0.41591
    9.1     1.00000    -0.21428     1 2px   0.28389     2 2px  -0.28389     4 1s   -0.33676     5 1s   -0.33674
   10.1    -0.00000     0.18842     1 1s   -0.77498     1 2px   0.41952     1 2py   0.43354     1 2pz   0.31014     2 1s   -0.77492
                                    2 2px  -0.41956     2 2py  -0.43349     2 2pz  -0.31004     3 1s    0.36224     4 1s    0.86446
                                    5 1s    0.86439     6 1s    0.36225
   11.1    -0.00000     0.27619     1 1s   -0.35480     1 2py   0.25402     1 2py   0.71115     2 1s    0.35503     2 2py   0.25399
                                    2 2py   0.71110     3 1s   -0.30963     4 1s    1.30934     5 1s   -1.30946     6 1s    0.30938
   12.1    -0.00000     0.27833     1 1s    1.63793     1 2pz  -0.49329     2 1s   -1.63764     2 2pz  -0.49294     3 1s   -1.39588
                                    4 1s   -0.34112     5 1s    0.34124     6 1s    1.39520
   13.1    -0.00000     0.30928     1 1s   -0.96239     1 2px   0.45712     1 2py  -0.90286     1 2pz   0.48857     2 1s   -0.96334
                                    2 2px  -0.45716     2 2py   0.90318     2 2pz  -0.48873     3 1s    1.60267     6 1s    1.60369
   14.1    -0.00000     0.43525     1 1s    2.04591     1 2px   1.76648     1 2py  -0.64144     1 2pz  -0.80045     2 1s   -2.04570
                                    2 2px   1.76657     2 2py  -0.64159     2 2pz  -0.80043     3 1s    0.58837     6 1s   -0.58871
   15.1    -0.00000     0.70672     1 2px  -0.53673     1 2pz   0.25146     1 2px   0.90160     2 2px   0.53672     2 2pz  -0.25147
                                    2 2px  -0.90166     4 1s   -0.48997     5 1s   -0.48996
   16.1    -0.00000     0.77002     1 2py   0.33133     1 2px   0.63705     1 2py  -0.63057     2 2py   0.33131     2 2px   0.63725
                                    2 2py  -0.63080     3 1s    0.49856     6 1s   -0.49859
   17.1    -0.00000     0.80796     1 2pz   0.70319     1 2pz  -0.69096     2 2pz   0.70339     2 2pz  -0.69115
   18.1    -0.00000     0.81952     1 1s    0.28544     1 2py  -0.62377     1 2pz  -0.30771     1 2py   1.14273     1 2pz   0.33265
                                    2 1s    0.28546     2 2py   0.62367     2 2pz   0.30736     2 2py  -1.14270     2 2pz  -0.33236
   19.1    -0.00000     0.86274     1 1s   -0.30621     1 2px  -0.25426     1 2py   0.26140     1 2pz  -0.62317     1 2px   0.51501
                                    1 2py  -0.68224     1 2pz   0.97481     2 1s   -0.30623     2 2px   0.25430     2 2py  -0.26137
                                    2 2pz   0.62313     2 2px  -0.51517     2 2py   0.68228     2 2pz  -0.97471     3 1s    0.31474
                                    6 1s    0.31480
   20.1    -0.00000     0.97460     1 1s    0.29230     1 2px  -0.63522     1 2py  -0.52259     1 2px   1.01492     1 2py   0.86592
                                    2 1s   -0.29230     2 2px  -0.63512     2 2py  -0.52260     2 2px   1.01485     2 2py   0.86600
                                    4 1s    1.06870     5 1s   -1.06861
   21.1    -0.00000     1.01421     1 1s   -0.61922     1 1s    1.10876     1 2px   0.28700     1 2py   0.28988     1 2px  -0.36841
                                    1 2py  -0.26344     2 1s   -0.61873     2 1s    1.10797     2 2px  -0.28738     2 2py  -0.28966
                                    2 2px   0.36877     2 2py   0.26317     4 1s    0.69847     4 1s   -1.08178     5 1s    0.69757
                                    5 1s   -1.08084
   22.1    -0.00000     1.02909     1 1s   -0.36306     1 1s    0.56294     1 2px  -0.27252     1 2py   0.29672     1 2py  -0.35995
                                    2 1s    0.36361     2 1s   -0.56395     2 2px  -0.27210     2 2py   0.29702     2 2py  -0.36028
                                    4 1s    0.76912     4 1s   -0.92737     5 1s   -0.77002     5 1s    0.92855
   23.1    -0.00000     1.14208     1 1s   -0.26113     1 2px   0.44017     1 2py  -0.41202     1 2px  -1.02477     1 2py   0.76966
                                    2 1s    0.26036     2 2px   0.43988     2 2py  -0.41159     2 2px  -1.02454     2 2py   0.76937
                                    3 1s    0.62842     3 1s   -1.36784     6 1s   -0.62734     6 1s    1.36646
   24.1    -0.00000     1.18248     1 1s   -0.31028     1 1s    0.43616     1 2py  -0.31296     2 1s   -0.30939     2 1s    0.43255
                                    2 2px  -0.25064     2 2py   0.31365     3 1s    0.84178     3 1s   -0.87370     6 1s    0.84265
                                    6 1s   -0.87519
   25.1    -0.00000     1.25384     1 1s   -1.30615     1 1s    2.15625     1 2px  -0.57367     1 2py   0.59277     1 2pz  -0.97966
                                    2 1s   -1.31329     2 1s    2.17758     2 2px   0.56817     2 2py  -0.59018     2 2pz   0.98458
                                    3 1s   -0.25753     3 1s   -1.08353     4 1s   -0.41272     5 1s   -0.41393     6 1s   -0.25750
                                    6 1s   -1.08603
   26.1    -0.00000     1.27343     1 1s   -1.56028     1 1s    4.77437     1 2px   1.30147     1 2py  -0.65429     1 2pz  -1.15662
                                    2 1s    1.55460     2 1s   -4.76494     2 2px   1.30394     2 2py  -0.65685     2 2pz  -1.15203
                                    3 1s   -0.43540     4 1s   -0.31988     4 1s   -0.31183     5 1s    0.31799     5 1s    0.31065
                                    6 1s    0.43116
   27.1    -0.00000     1.70824     1 1s    0.60071     1 3d0   0.35168     1 3d2- -0.28634     1 3d2+ -0.34113     2 1s   -0.60063
                                    2 3d0  -0.35167     2 3d2-  0.28635     2 3d2+  0.34114
   28.1    -0.00000     1.90518     1 1s    0.26037     1 1s   -0.51495     1 2pz   0.27850     1 3d0   0.36279     1 3d1+  0.32014
                                    1 3d2+  0.37958     1 3d1-  0.29068     2 1s    0.25983     2 1s   -0.51283     2 2pz  -0.27789
                                    2 3d0   0.36242     2 3d1+  0.32063     2 3d2+  0.37965     2 3d1-  0.29122
   29.1    -0.00000     1.93325     1 1s   -0.33001     1 1s    1.31910     1 2px   0.31366     1 2pz  -0.35379     1 3d2- -0.29871
                                    1 3d1+  0.37570     1 3d1-  0.39438     2 1s    0.33026     2 1s   -1.31972     2 2px   0.31341
                                    2 2pz  -0.35410     2 3d2-  0.29854     2 3d1+ -0.37521     2 3d1- -0.39399     3 1s   -0.33427
                                    6 1s    0.33454
   30.1    -0.00000     2.13264     1 1s    0.26130     1 1s   -1.05341     1 2px  -0.25161     1 2pz   0.29180     1 3d0   0.54661
                                    1 3d2+  0.40071     2 1s   -0.26133     2 1s    1.05356     2 2px  -0.25152     2 2pz   0.29188
                                    2 3d0  -0.54666     2 3d2+ -0.40080     4 1s    0.25369     5 1s   -0.25379
   31.1    -0.00000     2.19981     1 1s    0.35345     1 1s   -0.34258     1 3d2-  0.41875     1 3d1+  0.40294     1 3d2+ -0.29879
                                    2 1s    0.35341     2 1s   -0.34242     2 3d2-  0.41871     2 3d1+  0.40296     2 3d2+ -0.29876
   32.1    -0.00000     2.28453     1 1s    0.37930     1 2px  -0.34990     1 2py   0.42621     1 3d0   0.47891     1 3d2+ -0.26201
                                    1 3d1- -0.44367     2 1s    0.37940     2 2px   0.35015     2 2py  -0.42638     2 3d0   0.47891
                                    2 3d2+ -0.26203     2 3d1- -0.44373     3 1s   -0.29785     6 1s   -0.29785
   33.1    -0.00000     2.49816     1 1s   -0.29900     1 3d2-  0.51927     1 3d1-  0.55973     2 1s    0.29898     2 3d2- -0.51903
                                    2 3d1- -0.55974     3 1s    0.54309     6 1s   -0.54294
   34.1    -0.00000     2.60691     1 2py   0.27477     1 3d2-  0.45850     1 3d2+  0.49940     1 3d1- -0.47475     2 2py  -0.27477
                                    2 3d2-  0.45863     2 3d2+  0.49939     2 3d1- -0.47463
   35.1    -0.00000     2.71179     1 3d0  -0.43810     1 3d2- -0.49730     1 3d1+  0.50887     2 3d0  -0.43818     2 3d2- -0.49756
                                    2 3d1+  0.50897     3 1s   -0.45575     6 1s   -0.45615
   36.1    -0.00000     2.94609     1 1s   -1.87098     1 2px  -0.42332     1 2px  -0.92949     1 2py   0.30126     1 2pz   0.49189
                                    1 3d2-  0.34087     1 3d1+  0.71086     1 3d2+ -0.60492     2 1s    1.87095     2 2px  -0.42333
                                    2 2px  -0.92949     2 2py   0.30126     2 2pz   0.49188     2 3d2- -0.34089     2 3d1+ -0.71083
                                    2 3d2+  0.60492


 Natural orbital dump (state averaged) at molpro section  2140.2    (Orbital set 2)



 **********************************************************************************************************************************
 DATASETS  * FILE   NREC   LENGTH (MB)   RECORD NAMES
              1      20       31.85       500      610      700      900      950      970     1000      129      960     1100   
                                          VAR    BASINP    GEOM    SYMINP    ZMAT    AOBASIS   BASIS     P2S    ABASIS      S 
                                         1400     1410     1200     1210     1080     1600     1650     1300     1700     1380   
                                           T        V       H0       H01     AOSYM     SMH    MOLCAS    ERIS     OPER     JKOP   

              2       5        5.42       700     1000      520     2100     2140   
                                         GEOM     BASIS   MCVARS     RHF     MCSCF   

 PROGRAMS   *        TOTAL     MULTI    HF-SCF       INT
 CPU TIMES  *         0.66      0.28      0.10      0.17
 REAL TIME  *         0.94 SEC
 DISK USED  *        39.04 MB
 **********************************************************************************************************************************
 Molecular orbitals read from record     2140.2  Type=MCSCF/NATURAL (state averaged)
 Occupation numbers read from record     2140.2  Type=MCSCF/NATURAL (state averaged)
 Orbital energies read from record       2140.2  Type=MCSCF/NATURAL (state averaged)
 Redundancy group numbers read from rec  2140.2  Type=MCSCF/NATURAL (state averaged)

 MULTI/6-31G* energy=    -77.549084538015

           MULTI          HF-SCF
    -77.54908454    -77.80990148
 **********************************************************************************************************************************
 Molpro calculation terminated
