
 Primary working directories    : /scratch.local/johan406.molpro_temp/molpro.sOFzeUEFV3
 Secondary working directories  : /scratch.local/johan406.molpro_temp/molpro.sOFzeUEFV3
 Wavefunction directory         : /home/goodpast/johan406/wfu/
 Main file repository           : /scratch.local/johan406.molpro_temp/molpro.sOFzeUEFV3/

 id        : roweumn

 Nodes     nprocs
 acn09        1

 Using customized tuning parameters: mindgm=1; mindgv=20; mindgc=4; mindgr=1; noblas=0; minvec=7
 default implementation of scratch files=df  


 Variables initialized (934), CPU time= 0.00 sec
                                                                                 !leave this line blank
 
 gprint, orbitals=30
 memory, 125., m
 symmetry, nosym
 nelect=16
 basis=6-31g*
 
 geometry={
 C -0.6193 0.1593 0.3095
 C 0.6282 -0.2092 -0.3698
 H -1.2779 0.918 -0.1622
 H -0.9874 -1.093 -0.2454
 H 0.9963 1.0431 0.185
 H 1.2868 -0.9679 0.1017
 }
 
 hf
 {multi,
 closed 7
 occ 9
 wf,spin=0;STATE,3
 }
 
 Commands  initialized (763), CPU time= 0.00 sec, 617 directives.
 Default parameters read. Elapsed time= 0.08 sec

 Checking input...
 Passed
1


                                         ***  PROGRAM SYSTEM MOLPRO  ***
                                       Copyright, TTI GmbH Stuttgart, 2015
                                    Version 2019.2 linked Oct 25 2019 22:50:27


 **********************************************************************************************************************************
 LABEL *                                                                                 
  64 bit serial version                                                                  DATE: 07-Feb-23          TIME: 15:58:52  
 **********************************************************************************************************************************

 SHA1:             8dbd9ae1082e4ce945b0f27595c9eb2d4aa09004
 **********************************************************************************************************************************


 Variable memory set to  125000000 words,  buffer space 

 SETTING NELECT         =        16.00000000                                  
 SETTING BASIS          =    6-31G*
 ZSYMEL=NOSYM


Geometry recognized as XYZ



 Recomputing integrals since basis changed


 Using spherical harmonics

 Library entry C      S 6-31G                selected for orbital group  1
 Library entry C      P 6-31G                selected for orbital group  1
 Library entry C      D 6-31G*               selected for orbital group  1
 Library entry H      S 6-31G                selected for orbital group  2


 PROGRAM * SEWARD (Integral evaluation for generally contracted gaussian basis sets)     Author: Roland Lindh, 1990

 Geometry written to block  1 of record 700


 Point group  C1  



 ATOMIC COORDINATES

 NR  ATOM    CHARGE       X              Y              Z

   1  C       6.00   -1.170307389    0.301033372    0.584870236
   2  C       6.00    1.187125951   -0.395330705   -0.698820721
   3  H       1.00   -2.414881015    1.734768582   -0.306513577
   4  H       1.00   -1.865915575   -2.065470654   -0.463738791
   5  H       1.00    1.882734138    1.971173321    0.349599333
   6  H       1.00    2.431699577   -1.829065916    0.192185147

 Bond lengths in Bohr (Angstrom)

 1-2  2.773134932  1-3  2.097409179  1-4  2.680259865  2-5  2.680185938  2-6  2.097248583
     ( 1.467479809)     ( 1.109901140)     ( 1.418332440)     ( 1.418293319)     ( 1.109816156)

 Bond angles

  1-2-5   79.50409943   1-2-6  118.65135108   2-1-3  118.64350828   2-1-4   79.50249042

  3-1-4  106.45610709   5-2-6  106.46387188

 NUCLEAR CHARGE:                   16
 NUMBER OF PRIMITIVE AOS:          72
 NUMBER OF SYMMETRY AOS:           70
 NUMBER OF CONTRACTIONS:           36   (   36A   )
 NUMBER OF CORE ORBITALS:           2   (    2A   )
 NUMBER OF VALENCE ORBITALS:       12   (   12A   )


 NUCLEAR REPULSION ENERGY   30.80102543

 Eigenvalues of metric

         1 0.113E-01 0.314E-01 0.634E-01 0.101E+00 0.115E+00 0.230E+00 0.247E+00 0.277E+00


 Contracted 2-electron integrals neglected if value below      1.0D-11
 AO integral compression algorithm  1   Integral accuracy      1.0D-11

     1.573 MB (compressed) written to integral file ( 58.1%)


 NUMBER OF SORTED TWO-ELECTRON INTEGRALS:     222111.     BUFFER LENGTH:  32768
 NUMBER OF SEGMENTS:   1  SEGMENT LENGTH:     222111      RECORD LENGTH: 524288

 Memory used in sort:       0.78 MW

 SORT1 READ      284735. AND WROTE      212531. INTEGRALS IN      1 RECORDS. CPU TIME:     0.00 SEC, REAL TIME:     0.01 SEC
 SORT2 READ      212531. AND WROTE      222111. INTEGRALS IN      6 RECORDS. CPU TIME:     0.02 SEC, REAL TIME:     0.02 SEC

 FILE SIZES:   FILE 1:    31.7 MBYTE,  FILE 4:     4.2 MBYTE,   TOTAL:     35.9 MBYTE

 OPERATOR DM      FOR CENTER  0  COORDINATES:    0.000000    0.000000    0.000000


 **********************************************************************************************************************************
 DATASETS  * FILE   NREC   LENGTH (MB)   RECORD NAMES
              1      19       31.12       500      610      700      900      950      970     1000      129      960     1100   
                                          VAR    BASINP    GEOM    SYMINP    ZMAT    AOBASIS   BASIS     P2S    ABASIS      S 
                                         1400     1410     1200     1210     1080     1600     1650     1300     1700   
                                           T        V       H0       H01     AOSYM     SMH    MOLCAS    ERIS     OPER   

 PROGRAMS   *        TOTAL       INT
 CPU TIMES  *         0.28      0.18
 REAL TIME  *         0.74 SEC
 DISK USED  *        36.24 MB
 **********************************************************************************************************************************


 PROGRAM * RHF-SCF (CLOSED SHELL)       Authors: W. Meyer, H.-J. Werner


 NUMBER OF ELECTRONS:       8+    8-    SPACE SYMMETRY=1    SPIN SYMMETRY: Singlet 
 CONVERGENCE THRESHOLDS:    1.00E-05 (Density)    1.00E-07 (Energy)
 MAX. NUMBER OF ITERATIONS:       60
 INTERPOLATION TYPE:            DIIS
 INTERPOLATION STEPS:              2 (START)      1 (STEP)
 LEVEL SHIFTS:                  0.00 (CLOSED)  0.00 (OPEN) 



 Orbital guess generated from atomic densities. Full valence occupancy:    8

 Molecular orbital dump at record        2100.2

 Initial occupancy:   8

 ITERATION    DDIFF          GRAD             ENERGY        2-EL.EN.            DIPOLE MOMENTS         DIIS   ORB.
    1      0.000D+00      0.000D+00       -77.74841342    112.691038    0.00008    0.00003   -0.00014    0    start
    2      0.000D+00      0.657D-02       -77.76714206    111.777550    0.00012    0.00001   -0.00010    1    diag
    3      0.785D-02      0.236D-02       -77.76959652    112.164945    0.00014    0.00001   -0.00012    2    diag
    4      0.328D-02      0.827D-03       -77.77004377    111.990893    0.00015    0.00001   -0.00011    3    diag
    5      0.170D-02      0.256D-03       -77.77010965    111.994702    0.00017    0.00001   -0.00012    4    diag
    6      0.777D-03      0.644D-04       -77.77011630    111.992945    0.00016    0.00002   -0.00011    5    diag
    7      0.206D-03      0.269D-04       -77.77011803    111.993074    0.00018    0.00000   -0.00014    6    diag
    8      0.964D-04      0.147D-04       -77.77011877    111.993315    0.00012    0.00006   -0.00005    7    diag
    9      0.927D-04      0.494D-05       -77.77011884    111.993359    0.00023   -0.00005   -0.00022    8    diag
   10      0.289D-04      0.241D-05       -77.77011885    111.993364    0.00015    0.00003   -0.00009    9    orth
   11      0.666D-05      0.918D-06       -77.77011885    111.993376    0.00018   -0.00000   -0.00015    0    orth

 Final occupancy:   8

 !RHF STATE  1.1 Energy               -77.770118850322
 Nuclear energy                        30.80102543
 One-electron energy                 -164.56783225
 Two-electron energy                   55.99668797
 Virial quotient                       -1.00719273
 !RHF STATE  1.1 Dipole moment          0.00018199    -0.00000052    -0.00014578
 Dipole moment /Debye                   0.00046255    -0.00000131    -0.00037050

 ELECTRON ORBITALS
 =================

  Orbital  Occupation    Energy     Coefficients
    1.1     2.00000   -11.30299     1 1s    0.69657     2 1s    0.71236
    2.1     2.00000   -11.30214     1 1s    0.71246     2 1s   -0.69668
    3.1     2.00000    -1.02108     1 1s    0.28660     1 1s    0.25964     2 1s    0.28663     2 1s    0.25966
    4.1     2.00000    -0.77027     1 1s    0.30177     2 1s   -0.30174
    5.1     2.00000    -0.57223     1 2px   0.31866     2 2px  -0.31840
    6.1     2.00000    -0.56575     1 2py   0.26832     2 2py   0.26778
    7.1     2.00000    -0.40897     1 2pz   0.31020     1 2pz   0.26822     2 2pz   0.31019     2 2pz   0.26822
    8.1     2.00000    -0.34380     4 1s    0.36354     5 1s    0.36350
    9.1     0.00000     0.04239     1 1s    0.46474     1 2pz   0.31477     1 2pz   0.39354     2 1s    0.46470     2 2pz  -0.31481
                                    2 2pz  -0.39361     4 1s   -0.25387     5 1s   -0.25386
   10.1     0.00000     0.16941     1 1s   -0.49722     1 2px   0.37138     1 2py   0.47043     1 2pz   0.33459     2 1s   -0.49726
                                    2 2px  -0.37143     2 2py  -0.47042     2 2pz  -0.33455     4 1s    0.68367     5 1s    0.68373
   11.1     0.00000     0.24564     1 2py   0.25294     1 2px   0.30086     1 2py   0.56188     2 2py   0.25294     2 2px   0.30088
                                    2 2py   0.56189     4 1s    1.08694     5 1s   -1.08698
   12.1     0.00000     0.27042     1 1s   -1.50576     1 2pz   0.46909     2 1s    1.50554     2 2pz   0.46876     3 1s    1.39840
                                    6 1s   -1.39791
   13.1     0.00000     0.29654     1 1s   -0.98397     1 2px   0.49383     1 2py  -0.82090     1 2pz   0.54923     2 1s   -0.98470
                                    2 2px  -0.49392     2 2py   0.82109     2 2pz  -0.54933     3 1s    1.59247     6 1s    1.59327
   14.1     0.00000     0.42741     1 1s    2.10482     1 2px   1.73469     1 2py  -0.71967     1 2pz  -0.85352     2 1s   -2.10460
                                    2 2px   1.73479     2 2py  -0.71981     2 2pz  -0.85351     3 1s    0.54623     6 1s   -0.54656
   15.1     0.00000     0.70258     1 2px  -0.53188     1 2pz   0.29716     1 2px   0.90353     1 2py  -0.31345     2 2px   0.53191
                                    2 2pz  -0.29722     2 2px  -0.90367     2 2py   0.31349     4 1s   -0.40153     5 1s   -0.40152
   16.1     0.00000     0.76746     1 2py   0.28651     1 2pz  -0.39626     1 2px   0.55317     1 2py  -0.52329     1 2pz   0.37917
                                    2 2py   0.28657     2 2pz  -0.39632     2 2px   0.55338     2 2py  -0.52364     2 2pz   0.37934
                                    3 1s    0.46319     6 1s   -0.46325
   17.1     0.00000     0.80484     1 2px   0.29074     1 2pz  -0.63622     1 2px  -0.28793     1 2py   0.26382     1 2pz   0.50973
                                    2 2px   0.29053     2 2pz  -0.63650     2 2px  -0.28776     2 2py   0.26437     2 2pz   0.50997
   18.1     0.00000     0.82565     1 1s    0.29341     1 2px  -0.27370     1 2py  -0.59997     1 2pz  -0.42243     1 2px   0.27275
                                    1 2py   0.95735     1 2pz   0.43026     2 1s    0.29332     2 2px   0.27393     2 2py   0.59985
                                    2 2pz   0.42209     2 2px  -0.27292     2 2py  -0.95728     2 2pz  -0.43003
   19.1     0.00000     0.85522     1 1s    0.33761     1 2py  -0.44022     1 2pz   0.55361     1 2px  -0.43793     1 2py   0.93963
                                    1 2pz  -0.86613     2 1s    0.33763     2 2py   0.44017     2 2pz  -0.55350     2 2px   0.43808
                                    2 2py  -0.93966     2 2pz   0.86595     3 1s   -0.34963     6 1s   -0.34971
   20.1     0.00000     0.95066     1 1s    0.41137     1 2px  -0.55536     1 2py  -0.56001     1 2px   0.98582     1 2py   0.84703
                                    2 1s   -0.41124     2 2px  -0.55532     2 2py  -0.56001     2 2px   0.98579     2 2py   0.84709
                                    4 1s    1.09387     5 1s   -1.09397
   21.1     0.00000     1.01084     1 1s   -0.70772     1 1s    1.28305     1 2px   0.25566     1 2px  -0.40117     2 1s   -0.70756
                                    2 1s    1.28276     2 2px  -0.25566     2 2px   0.40120     3 1s   -0.32494     4 1s    0.72344
                                    4 1s   -1.07246     5 1s    0.72319     5 1s   -1.07219     6 1s   -0.32487
   22.1     0.00000     1.02257     1 1s   -0.46488     1 1s    1.05793     1 2px  -0.37054     1 2px   0.52196     1 2py  -0.28912
                                    1 2pz  -0.26407     2 1s    0.46492     2 1s   -1.05807     2 2px  -0.37040     2 2px   0.52185
                                    2 2py  -0.28911     2 2pz  -0.26401     4 1s    0.73765     4 1s   -0.78224     5 1s   -0.73788
                                    5 1s    0.78244
   23.1     0.00000     1.12201     1 1s   -0.35361     1 1s    0.30048     1 2px   0.39763     1 2py  -0.42374     1 2px  -0.90642
                                    1 2py   0.73532     2 1s    0.35326     2 1s   -0.30013     2 2px   0.39743     2 2py  -0.42345
                                    2 2px  -0.90636     2 2py   0.73526     3 1s    0.62004     3 1s   -1.38161     6 1s   -0.61910
                                    6 1s    1.38069
   24.1     0.00000     1.15931     1 1s    0.25795     1 2py  -0.28834     2 1s    0.25574     2 2py   0.28895     3 1s    0.85777
                                    3 1s   -0.79845     6 1s    0.85848     6 1s   -0.79977
   25.1     0.00000     1.25647     1 1s   -1.24591     1 1s    1.95210     1 2px  -0.55028     1 2py   0.56261     1 2pz  -0.94727
                                    2 1s   -1.25495     2 1s    1.97893     2 2px   0.54274     2 2py  -0.55899     2 2pz   0.95373
                                    3 1s   -1.07594     4 1s   -0.49158     5 1s   -0.49377     6 1s   -1.07857
   26.1     0.00000     1.27050     1 1s   -1.48783     1 1s    4.46232     1 2px   1.28744     1 2py  -0.63804     1 2pz  -1.11233
                                    2 1s    1.48037     2 1s   -4.45060     2 2px   1.29070     2 2py  -0.64138     2 2pz  -1.10644
                                    3 1s   -0.37541     4 1s   -0.39033     5 1s    0.38738     6 1s    0.36935
   27.1     0.00000     1.70596     1 1s   -0.52795     1 3d0  -0.34890     1 3d2-  0.27569     1 3d2+  0.35450     2 1s    0.52791
                                    2 3d0   0.34891     2 3d2- -0.27571     2 3d2+ -0.35451
   28.1     0.00000     1.88318     1 1s   -0.41034     1 3d0   0.37465     1 3d1+  0.31324     1 3d2+  0.39228     1 3d1-  0.26410
                                    2 1s   -0.40781     2 3d0   0.37408     2 3d1+  0.31392     2 3d2+  0.39234     2 3d1-  0.26487
   29.1     0.00000     1.90535     1 1s   -0.33148     1 1s    1.23590     1 2px   0.29666     1 2pz  -0.33891     1 3d0  -0.26174
                                    1 3d2- -0.27447     1 3d1+  0.34396     1 3d1-  0.39304     2 1s    0.33183     2 1s   -1.23667
                                    2 2px   0.29638     2 2pz  -0.33930     2 3d0   0.26251     2 3d2-  0.27421     2 3d1+ -0.34330
                                    2 3d1- -0.39256     3 1s   -0.32235     6 1s    0.32263
   30.1     0.00000     2.09163     1 1s   -0.60643     1 3d0   0.51023     1 3d1+  0.26694     1 3d2+  0.41262     2 1s    0.60644
                                    2 3d0  -0.51031     2 3d1+ -0.26690     2 3d2+ -0.41270
   31.1     0.00000     2.14413     1 1s    0.29234     1 1s   -0.38919     1 2py  -0.27204     1 2pz   0.29358     1 3d2-  0.39937
                                    1 3d1+  0.35519     1 3d1-  0.32440     2 1s    0.29229     2 1s   -0.38907     2 2py   0.27208
                                    2 2pz  -0.29351     2 3d2-  0.39938     2 3d1+  0.35525     2 3d1-  0.32437     3 1s    0.25790
                                    6 1s    0.25795
   32.1     0.00000     2.25619     1 1s    0.44391     1 2px  -0.37147     1 2py   0.37008     1 3d0   0.41385     1 3d2+ -0.31909
                                    1 3d1- -0.39962     2 1s    0.44395     2 2px   0.37167     2 2py  -0.37023     2 3d0   0.41381
                                    2 3d2+ -0.31914     2 3d1- -0.39973     3 1s   -0.25539     6 1s   -0.25545
   33.1     0.00000     2.44822     1 1s   -0.56618     1 3d2-  0.53583     1 3d1-  0.53393     2 1s    0.56617     2 3d2- -0.53562
                                    2 3d1- -0.53388     3 1s    0.56188     6 1s   -0.56174
   34.1     0.00000     2.57772     1 3d2-  0.43505     1 3d2+  0.49480     1 3d1- -0.45214     2 3d2-  0.43513     2 3d2+  0.49479
                                    2 3d1- -0.45206
   35.1     0.00000     2.68320     1 3d0  -0.43204     1 3d2- -0.52663     1 3d1+  0.49857     2 3d0  -0.43212     2 3d2- -0.52686
                                    2 3d1+  0.49865     3 1s   -0.44442     6 1s   -0.44480
   36.1     0.00000     2.93140     1 1s   -1.88941     1 2px  -0.42157     1 2px  -0.93655     1 2py   0.31806     1 2pz   0.50517
                                    1 3d2-  0.35400     1 3d1+  0.71286     1 3d2+ -0.58586     2 1s    1.88937     2 2px  -0.42158
                                    2 2px  -0.93655     2 2py   0.31807     2 2pz   0.50516     2 3d2- -0.35401     2 3d1+ -0.71282
                                    2 3d2+  0.58584


 HOMO      8.1    -0.343805 =      -9.3554eV
 LUMO      9.1     0.042389 =       1.1535eV
 LUMO-HOMO         0.386194 =      10.5089eV


 **********************************************************************************************************************************
 DATASETS  * FILE   NREC   LENGTH (MB)   RECORD NAMES
              1      19       31.12       500      610      700      900      950      970     1000      129      960     1100   
                                          VAR    BASINP    GEOM    SYMINP    ZMAT    AOBASIS   BASIS     P2S    ABASIS      S 
                                         1400     1410     1200     1210     1080     1600     1650     1300     1700   
                                           T        V       H0       H01     AOSYM     SMH    MOLCAS    ERIS     OPER   

              2       4        2.86       700     1000      520     2100   
                                         GEOM     BASIS   MCVARS     RHF  

 PROGRAMS   *        TOTAL    HF-SCF       INT
 CPU TIMES  *         0.38      0.10      0.18
 REAL TIME  *         0.89 SEC
 DISK USED  *        36.24 MB
 **********************************************************************************************************************************


 PROGRAM * MULTI (Direct Multiconfiguration SCF)       Authors: P.J. Knowles, H.-J. Werner (1984)


 Number of closed-shell orbitals:   7 (   7 )
 Number of active  orbitals:        2 (   2 )
 Number of external orbitals:      27 (  27 )

 State symmetry 1

 Number of electrons:     2    Spin symmetry=Singlet   Space symmetry=1
 Number of states:        3
 Number of CSFs:          3   (4 determinants, 4 intermediate states)

 Molecular orbitals read from record     2100.2  Type=RHF/CANONICAL (state 1.1)

 Wavefunction dump at record             2140.2

 Convergence thresholds  0.10E-01 (gradient)  0.10E-05 (energy)  0.10E-02 (step length)

 Weight factors for state symmetry  1:    0.33333   0.33333   0.33333

 Number of orbital rotations:      257   (    14 Core/Active    189 Core/Virtual   0 Active/Active     54 Active/Virtual)
 Total number of variables:        269

 Micro-Iterations solved by the two-step solver

 ITER. MIC  NCI  NEG     ENERGY(VAR)     ENERGY(PROJ)   ENERGY CHANGE     GRAD(0)  GRAD(ORB)   GRAD(CI)     STEP       TIME

   1    6    5    0     -77.64658337     -77.66145962   -0.01487625    0.13879374 0.00053451 0.00000000  0.16D+00      0.11
   2    5    5    0     -77.66128847     -77.66130563   -0.00001716    0.00636146 0.00000384 0.00000000  0.41D-02      0.19
   3    4    4    0     -77.66130566     -77.66130566   -0.00000000    0.00001178 0.00000000 0.00000000  0.30D-04      0.25
   4    3    3    0     -77.66130566     -77.66130566    0.00000000    0.00000000 0.00000000 0.00000000  0.41D-09      0.31

 ** WVFN ****  CONVERGENCE REACHED, FINAL GRADIENT:  0.50D-13



 Results for state 1.1
 =====================

 !MCSCF STATE  1.1 Energy             -77.766588181104
 Nuclear energy                        30.80102543
 Kinetic energy                        77.19132479
 One electron energy                 -164.52617748
 Two electron energy                   55.95856387
 Virial ratio                           2.00745244

 !MCSCF STATE  1.1 Dipole moment        0.00020074     0.00000344    -0.00015162
 Dipole moment /Debye                   0.00051020     0.00000875    -0.00038535

 Results for state 2.1
 =====================

 !MCSCF STATE  2.1 Energy             -77.685873984834
 Nuclear energy                        30.80102543
 Kinetic energy                        77.34506358
 One electron energy                 -164.36636287
 Two electron energy                   55.87946346
 Virial ratio                           2.00440636

 !MCSCF STATE  2.1 Dipole moment        0.00007931    -0.00000162    -0.00006414
 Dipole moment /Debye                   0.00020158    -0.00000412    -0.00016303

 Results for state 3.1
 =====================

 !MCSCF STATE  3.1 Energy             -77.531454806346
 Nuclear energy                        30.80102543
 Kinetic energy                        77.61231582
 One electron energy                 -164.82457878
 Two electron energy                   56.49209854
 Virial ratio                           1.99895814

 !MCSCF STATE  3.1 Dipole moment       -0.00000954    -0.00007453    -0.00005045
 Dipole moment /Debye                  -0.00002424    -0.00018943    -0.00012822

 State-averaged charge density matrix saved on record  2140.2 (density set 1)

 !MCSCF expec         <1.1|DMX|1.1>     0.000200743048 au =     0.000510204517 Debye
 !MCSCF trans         <2.1|DMX|1.1>    -0.000000707342 au =    -0.000001797767 Debye
 !MCSCF expec         <2.1|DMX|2.1>     0.000079313963 au =     0.000201582782 Debye
 !MCSCF trans         <3.1|DMX|1.1>     0.000023766898 au =     0.000060405474 Debye
 !MCSCF trans         <3.1|DMX|2.1>     0.000033593394 au =     0.000085380298 Debye
 !MCSCF expec         <3.1|DMX|3.1>    -0.000009536596 au =    -0.000024238022 Debye

 !MCSCF expec         <1.1|DMY|1.1>     0.000003443925 au =     0.000008753012 Debye
 !MCSCF trans         <2.1|DMY|1.1>    -0.000039779769 au =    -0.000101103464 Debye
 !MCSCF expec         <2.1|DMY|2.1>    -0.000001619996 au =    -0.000004117349 Debye
 !MCSCF trans         <3.1|DMY|1.1>    -0.000004707459 au =    -0.000011964384 Debye
 !MCSCF trans         <3.1|DMY|2.1>    -0.000035253265 au =    -0.000089598994 Debye
 !MCSCF expec         <3.1|DMY|3.1>    -0.000074530837 au =    -0.000189426085 Debye

 !MCSCF expec         <1.1|DMZ|1.1>    -0.000151618614 au =    -0.000385350838 Debye
 !MCSCF trans         <2.1|DMZ|1.1>    -0.000028387755 au =    -0.000072149750 Debye
 !MCSCF expec         <2.1|DMZ|2.1>    -0.000064143384 au =    -0.000163025541 Debye
 !MCSCF trans         <3.1|DMZ|1.1>    -0.000021263948 au =    -0.000054044026 Debye
 !MCSCF trans         <3.1|DMZ|2.1>    -0.000050846606 au =    -0.000129230717 Debye
 !MCSCF expec         <3.1|DMZ|3.1>    -0.000050447556 au =    -0.000128216500 Debye


 NATURAL ORBITALS (state averaged)
 =================================

  Orbital  Occupation    Energy     Coefficients
    1.1     2.00000   -11.28045     1 1s    0.70816     2 1s    0.70081
    2.1     2.00000   -11.27970     1 1s    0.70088     2 1s   -0.70823
    3.1     2.00000    -1.01828     1 1s    0.27819     1 1s    0.25983     2 1s    0.27821     2 1s    0.25983
    4.1     2.00000    -0.75965     1 1s    0.32471     2 1s   -0.32469
    5.1     2.00000    -0.56170     1 2py   0.25778     2 2py   0.25906
    6.1     2.00000    -0.55863     1 2px   0.28547     2 2px  -0.28583
    7.1     2.00000    -0.42285     1 2pz   0.32032     1 2pz   0.26756     2 2pz   0.32030     2 2pz   0.26755
    8.1     1.00000    -0.09316     1 1s    0.32500     1 2pz   0.37486     1 2pz   0.39953     2 1s    0.32498     2 2pz  -0.37490
                                    2 2pz  -0.39959
    9.1     1.00000    -0.20573     1 2px  -0.26169     2 2px   0.26169     4 1s    0.36608     5 1s    0.36606
   10.1    -0.00000     0.16657     1 1s   -0.57688     1 2px   0.39267     1 2py   0.45083     1 2pz   0.28068     2 1s   -0.57686
                                    2 2px  -0.39269     2 2py  -0.45077     2 2pz  -0.28061     3 1s    0.27090     4 1s    0.69898
                                    5 1s    0.69893     6 1s    0.27094
   11.1    -0.00000     0.23870     1 1s   -0.42185     1 2px   0.25492     1 2py   0.56747     2 1s    0.42196     2 2px   0.25498
                                    2 2py   0.56753     4 1s    1.12893     5 1s   -1.12905
   12.1    -0.00000     0.27444     1 1s   -1.48579     1 2py  -0.31028     1 2pz   0.44793     2 1s    1.48542     2 2py  -0.30991
                                    2 2pz   0.44754     3 1s    1.41469     6 1s   -1.41396
   13.1    -0.00000     0.30499     1 1s   -1.00730     1 2px   0.48020     1 2py  -0.84107     1 2pz   0.51451     2 1s   -1.00827
                                    2 2px  -0.48027     2 2py   0.84134     2 2pz  -0.51468     3 1s    1.59807     6 1s    1.59908
   14.1    -0.00000     0.43875     1 1s    2.07817     1 2px   1.75232     1 2py  -0.67789     1 2pz  -0.82849     2 1s   -2.07795
                                    2 2px   1.75241     2 2py  -0.67804     2 2pz  -0.82847     3 1s    0.55814     6 1s   -0.55848
   15.1    -0.00000     0.70994     1 2px  -0.52650     1 2pz   0.27874     1 2px   0.88812     1 2py  -0.30714     2 2px   0.52648
                                    2 2pz  -0.27877     2 2px  -0.88821     2 2py   0.30716     4 1s   -0.47099     5 1s   -0.47101
   16.1    -0.00000     0.77449     1 2py   0.29547     1 2pz  -0.35645     1 2px   0.57667     1 2py  -0.53315     1 2pz   0.34920
                                    2 2py   0.29547     2 2pz  -0.35645     2 2px   0.57688     2 2py  -0.53340     2 2pz   0.34927
                                    3 1s    0.47770     6 1s   -0.47774
   17.1    -0.00000     0.81566     1 2px   0.26721     1 2pz  -0.65500     1 2px  -0.29256     1 2pz   0.58469     2 2px   0.26711
                                    2 2pz  -0.65515     2 2px  -0.29253     2 2pz   0.58480
   18.1    -0.00000     0.83399     1 2px  -0.26901     1 2py  -0.58527     1 2pz  -0.42382     1 2px   0.28376     1 2py   0.92919
                                    1 2pz   0.50039     2 2px   0.26912     2 2py   0.58517     2 2pz   0.42362     2 2px  -0.28378
                                    2 2py  -0.92913     2 2pz  -0.50024
   19.1    -0.00000     0.86498     1 1s    0.30301     1 2py  -0.44763     1 2pz   0.53354     1 2px  -0.45318     1 2py   0.94830
                                    1 2pz  -0.88051     2 1s    0.30304     2 2py   0.44757     2 2pz  -0.53353     2 2px   0.45333
                                    2 2py  -0.94832     2 2pz   0.88043     3 1s   -0.37042     6 1s   -0.37050
   20.1    -0.00000     0.95140     1 2px  -0.39719     1 2py  -0.58046     1 2px   0.74117     1 2py   0.87901     2 2px  -0.39714
                                    2 2py  -0.58048     2 2px   0.74107     2 2py   0.87913     4 1s   -0.44864     4 1s    1.28855
                                    5 1s    0.44848     5 1s   -1.28836
   21.1    -0.00000     0.98682     1 1s   -0.64488     1 1s    1.17633     1 2px   0.26858     1 2px  -0.39105     2 1s   -0.64465
                                    2 1s    1.17584     2 2px  -0.26883     2 2px   0.39149     4 1s    0.73348     4 1s   -1.05204
                                    5 1s    0.73327     5 1s   -1.05212
   22.1    -0.00000     1.00265     1 1s   -0.43048     1 1s    0.92246     1 2px  -0.52403     1 2px   0.67588     2 1s    0.43058
                                    2 1s   -0.92274     2 2px  -0.52384     2 2px   0.67571     4 1s    0.64603     4 1s   -0.35933
                                    5 1s   -0.64642     5 1s    0.35971
   23.1    -0.00000     1.13295     1 1s   -0.28801     1 2px   0.43930     1 2py  -0.43453     1 2px  -0.97916     1 2py   0.76585
                                    2 1s    0.28751     2 2px   0.43904     2 2py  -0.43417     2 2px  -0.97907     2 2py   0.76575
                                    3 1s    0.62106     3 1s   -1.37467     6 1s   -0.61990     6 1s    1.37350
   24.1    -0.00000     1.17110     1 2py  -0.28697     2 2py   0.28768     3 1s    0.86592     3 1s   -0.74635     6 1s    0.86678
                                    6 1s   -0.74788
   25.1    -0.00000     1.25153     1 1s   -1.29564     1 1s    2.03675     1 2px  -0.56427     1 2py   0.59188     1 2pz  -0.94362
                                    2 1s   -1.30232     2 1s    2.05625     2 2px   0.55895     2 2py  -0.58952     2 2pz   0.94817
                                    3 1s   -1.12960     4 1s   -0.45297     5 1s   -0.45435     6 1s   -1.13181
   26.1    -0.00000     1.26773     1 1s   -1.52135     1 1s    4.52964     1 2px   1.30620     1 2py  -0.61960     1 2pz  -1.11336
                                    2 1s    1.51583     2 1s   -4.52092     2 2px   1.30859     2 2py  -0.62213     2 2pz  -1.10905
                                    3 1s   -0.39730     4 1s   -0.35794     5 1s    0.35596     6 1s    0.39292
   27.1    -0.00000     1.71369     1 1s   -0.54744     1 3d0  -0.33918     1 3d2-  0.28135     1 3d2+  0.35812     2 1s    0.54739
                                    2 3d0   0.33919     2 3d2- -0.28136     2 3d2+ -0.35812
   28.1    -0.00000     1.89150     1 1s   -0.39090     1 3d0   0.37430     1 3d1+  0.30816     1 3d2+  0.39933     1 3d1-  0.25942
                                    2 1s   -0.38888     2 3d0   0.37378     2 3d1+  0.30871     2 3d2+  0.39936     2 3d1-  0.26004
   29.1    -0.00000     1.91561     1 1s   -0.31707     1 1s    1.18117     1 2px   0.27855     1 2pz  -0.32339     1 3d0  -0.26331
                                    1 3d2- -0.27056     1 3d1+  0.35029     1 3d1-  0.39056     2 1s    0.31732     2 1s   -1.18177
                                    2 2px   0.27830     2 2pz  -0.32370     2 3d0   0.26393     2 3d2-  0.27032     2 3d1+ -0.34975
                                    2 3d1- -0.39016     3 1s   -0.32399     6 1s    0.32423
   30.1    -0.00000     2.10201     1 1s   -0.58471     1 3d0   0.51440     1 3d1+  0.25953     1 3d2+  0.41312     2 1s    0.58474
                                    2 3d0  -0.51451     2 3d1+ -0.25950     2 3d2+ -0.41324
   31.1    -0.00000     2.15048     1 1s    0.28947     1 1s   -0.39368     1 2py  -0.27974     1 2pz   0.29769     1 3d2-  0.39867
                                    1 3d1+  0.35474     1 3d1-  0.33523     2 1s    0.28942     2 1s   -0.39351     2 2py   0.27977
                                    2 2pz  -0.29761     2 3d2-  0.39865     2 3d1+  0.35482     2 3d1-  0.33520     3 1s    0.26654
                                    6 1s    0.26657
   32.1    -0.00000     2.26694     1 1s    0.44455     1 2px  -0.37349     1 2py   0.36958     1 3d0   0.41638     1 3d2+ -0.32028
                                    1 3d1- -0.39402     2 1s    0.44460     2 2px   0.37368     2 2py  -0.36972     2 3d0   0.41636
                                    2 3d2+ -0.32032     2 3d1- -0.39412     3 1s   -0.25140     6 1s   -0.25144
   33.1    -0.00000     2.45672     1 1s   -0.56668     1 3d2-  0.53426     1 3d1-  0.53638     2 1s    0.56667     2 3d2- -0.53404
                                    2 3d1- -0.53636     3 1s    0.56295     6 1s   -0.56281
   34.1    -0.00000     2.58492     1 3d2-  0.45946     1 3d2+  0.49115     1 3d1- -0.44745     2 3d2-  0.45956     2 3d2+  0.49114
                                    2 3d1- -0.44736
   35.1    -0.00000     2.70056     1 3d0  -0.44423     1 3d2- -0.50447     1 3d1+  0.50496     2 3d0  -0.44432     2 3d2- -0.50472
                                    2 3d1+  0.50505     3 1s   -0.44254     6 1s   -0.44292
   36.1    -0.00000     2.94224     1 1s   -1.90244     1 2px  -0.41536     1 2px  -0.94245     1 2py   0.32132     1 2pz   0.50863
                                    1 3d2-  0.35390     1 3d1+  0.71419     1 3d2+ -0.58388     2 1s    1.90240     2 2px  -0.41537
                                    2 2px  -0.94246     2 2py   0.32133     2 2pz   0.50862     2 3d2- -0.35391     2 3d1+ -0.71416
                                    2 3d2+  0.58387


 Natural orbital dump (state averaged) at molpro section  2140.2    (Orbital set 2)



 **********************************************************************************************************************************
 DATASETS  * FILE   NREC   LENGTH (MB)   RECORD NAMES
              1      20       31.85       500      610      700      900      950      970     1000      129      960     1100   
                                          VAR    BASINP    GEOM    SYMINP    ZMAT    AOBASIS   BASIS     P2S    ABASIS      S 
                                         1400     1410     1200     1210     1080     1600     1650     1300     1700     1380   
                                           T        V       H0       H01     AOSYM     SMH    MOLCAS    ERIS     OPER     JKOP   

              2       5        5.42       700     1000      520     2100     2140   
                                         GEOM     BASIS   MCVARS     RHF     MCSCF   

 PROGRAMS   *        TOTAL     MULTI    HF-SCF       INT
 CPU TIMES  *         0.73      0.35      0.10      0.18
 REAL TIME  *         1.49 SEC
 DISK USED  *        39.03 MB
 **********************************************************************************************************************************
 Molecular orbitals read from record     2140.2  Type=MCSCF/NATURAL (state averaged)
 Occupation numbers read from record     2140.2  Type=MCSCF/NATURAL (state averaged)
 Orbital energies read from record       2140.2  Type=MCSCF/NATURAL (state averaged)
 Redundancy group numbers read from rec  2140.2  Type=MCSCF/NATURAL (state averaged)

 MULTI/6-31G* energy=    -77.531454806346

           MULTI          HF-SCF
    -77.53145481    -77.77011885
 **********************************************************************************************************************************
 Molpro calculation terminated
