
 Primary working directories    : /scratch.local/johan406.molpro_temp/molpro.ouqmlaIVQa
 Secondary working directories  : /scratch.local/johan406.molpro_temp/molpro.ouqmlaIVQa
 Wavefunction directory         : /home/goodpast/johan406/wfu/
 Main file repository           : /scratch.local/johan406.molpro_temp/molpro.ouqmlaIVQa/

 id        : roweumn

 Nodes     nprocs
 acn09        1

 Using customized tuning parameters: mindgm=1; mindgv=20; mindgc=4; mindgr=1; noblas=0; minvec=7
 default implementation of scratch files=df  


 Variables initialized (934), CPU time= 0.01 sec
                                                                                 !leave this line blank
 
 gprint, orbitals=30
 memory, 125., m
 symmetry, nosym
 nelect=16
 basis=6-31g*
 
 geometry={
 C -0.6186 0.1615 0.3105
 C 0.6274 -0.2113 -0.3709
 H -1.279 0.9202 -0.1629
 H -0.9899 -1.1157 -0.2562
 H 0.9988 1.0658 0.1958
 H 1.2879 -0.9701 0.1024
 }
 
 hf
 {multi,
 closed 7
 occ 9
 wf,spin=0;STATE,3
 }
 
 Commands  initialized (763), CPU time= 0.01 sec, 617 directives.
 Default parameters read. Elapsed time= 0.07 sec

 Checking input...
 Passed
1


                                         ***  PROGRAM SYSTEM MOLPRO  ***
                                       Copyright, TTI GmbH Stuttgart, 2015
                                    Version 2019.2 linked Oct 25 2019 22:50:27


 **********************************************************************************************************************************
 LABEL *                                                                                 
  64 bit serial version                                                                  DATE: 07-Feb-23          TIME: 15:59:41  
 **********************************************************************************************************************************

 SHA1:             8dbd9ae1082e4ce945b0f27595c9eb2d4aa09004
 **********************************************************************************************************************************


 Variable memory set to  125000000 words,  buffer space 

 SETTING NELECT         =        16.00000000                                  
 SETTING BASIS          =    6-31G*
 ZSYMEL=NOSYM


Geometry recognized as XYZ



 Recomputing integrals since basis changed


 Using spherical harmonics

 Library entry C      S 6-31G                selected for orbital group  1
 Library entry C      P 6-31G                selected for orbital group  1
 Library entry C      D 6-31G*               selected for orbital group  1
 Library entry H      S 6-31G                selected for orbital group  2


 PROGRAM * SEWARD (Integral evaluation for generally contracted gaussian basis sets)     Author: Roland Lindh, 1990

 Geometry written to block  1 of record 700


 Point group  C1  



 ATOMIC COORDINATES

 NR  ATOM    CHARGE       X              Y              Z

   1  C       6.00   -1.168984581    0.305190769    0.586759962
   2  C       6.00    1.185614171   -0.399299130   -0.700899420
   3  H       1.00   -2.416959713    1.738925980   -0.307836386
   4  H       1.00   -1.870639891   -2.108367437   -0.484147833
   5  H       1.00    1.887458453    2.014070104    0.370008375
   6  H       1.00    2.433778276   -1.833223313    0.193507955

 Bond lengths in Bohr (Angstrom)

 1-2  2.774618529  1-3  2.100795376  1-4  2.732110337  2-5  2.731991940  2-6  2.100956151
     ( 1.468264894)     ( 1.111693038)     ( 1.445770528)     ( 1.445707875)     ( 1.111778116)

 Bond angles

  1-2-5   79.15226829   1-2-6  118.67789348   2-1-3  118.67108903   2-1-4   79.14829525

  3-1-4  106.46449019   5-2-6  106.46412629

 NUCLEAR CHARGE:                   16
 NUMBER OF PRIMITIVE AOS:          72
 NUMBER OF SYMMETRY AOS:           70
 NUMBER OF CONTRACTIONS:           36   (   36A   )
 NUMBER OF CORE ORBITALS:           2   (    2A   )
 NUMBER OF VALENCE ORBITALS:       12   (   12A   )


 NUCLEAR REPULSION ENERGY   30.66598056

 Eigenvalues of metric

         1 0.114E-01 0.317E-01 0.637E-01 0.105E+00 0.118E+00 0.231E+00 0.248E+00 0.277E+00


 Contracted 2-electron integrals neglected if value below      1.0D-11
 AO integral compression algorithm  1   Integral accuracy      1.0D-11

     1.573 MB (compressed) written to integral file ( 58.0%)


 NUMBER OF SORTED TWO-ELECTRON INTEGRALS:     222111.     BUFFER LENGTH:  32768
 NUMBER OF SEGMENTS:   1  SEGMENT LENGTH:     222111      RECORD LENGTH: 524288

 Memory used in sort:       0.78 MW

 SORT1 READ      284735. AND WROTE      212531. INTEGRALS IN      1 RECORDS. CPU TIME:     0.00 SEC, REAL TIME:     0.01 SEC
 SORT2 READ      212531. AND WROTE      222111. INTEGRALS IN      6 RECORDS. CPU TIME:     0.03 SEC, REAL TIME:     0.02 SEC

 FILE SIZES:   FILE 1:    31.7 MBYTE,  FILE 4:     4.2 MBYTE,   TOTAL:     35.9 MBYTE

 OPERATOR DM      FOR CENTER  0  COORDINATES:    0.000000    0.000000    0.000000


 **********************************************************************************************************************************
 DATASETS  * FILE   NREC   LENGTH (MB)   RECORD NAMES
              1      19       31.12       500      610      700      900      950      970     1000      129      960     1100   
                                          VAR    BASINP    GEOM    SYMINP    ZMAT    AOBASIS   BASIS     P2S    ABASIS      S 
                                         1400     1410     1200     1210     1080     1600     1650     1300     1700   
                                           T        V       H0       H01     AOSYM     SMH    MOLCAS    ERIS     OPER   

 PROGRAMS   *        TOTAL       INT
 CPU TIMES  *         0.28      0.17
 REAL TIME  *         0.48 SEC
 DISK USED  *        36.24 MB
 **********************************************************************************************************************************


 PROGRAM * RHF-SCF (CLOSED SHELL)       Authors: W. Meyer, H.-J. Werner


 NUMBER OF ELECTRONS:       8+    8-    SPACE SYMMETRY=1    SPIN SYMMETRY: Singlet 
 CONVERGENCE THRESHOLDS:    1.00E-05 (Density)    1.00E-07 (Energy)
 MAX. NUMBER OF ITERATIONS:       60
 INTERPOLATION TYPE:            DIIS
 INTERPOLATION STEPS:              2 (START)      1 (STEP)
 LEVEL SHIFTS:                  0.00 (CLOSED)  0.00 (OPEN) 



 Orbital guess generated from atomic densities. Full valence occupancy:    8

 Molecular orbital dump at record        2100.2

 Initial occupancy:   8

 ITERATION    DDIFF          GRAD             ENERGY        2-EL.EN.            DIPOLE MOMENTS         DIIS   ORB.
    1      0.000D+00      0.000D+00       -77.73903837    112.400420    0.00010   -0.00009   -0.00011    0    start
    2      0.000D+00      0.655D-02       -77.75799978    111.487792    0.00003    0.00006    0.00001    1    diag
    3      0.789D-02      0.238D-02       -77.76052169    111.875904    0.00011   -0.00002   -0.00012    2    diag
    4      0.332D-02      0.833D-03       -77.76097991    111.696412    0.00005    0.00006   -0.00001    3    diag
    5      0.171D-02      0.257D-03       -77.76104514    111.700184    0.00013   -0.00001   -0.00013    4    diag
    6      0.772D-03      0.604D-04       -77.76105045    111.698166   -0.00000    0.00012    0.00009    5    diag
    7      0.192D-03      0.219D-04       -77.76105142    111.698174    0.00024   -0.00013   -0.00032    6    diag
    8      0.673D-04      0.132D-04       -77.76105177    111.698255   -0.00008    0.00021    0.00022    7    diag
    9      0.413D-04      0.911D-05       -77.76105198    111.698344    0.00011    0.00001   -0.00010    8    diag
   10      0.474D-04      0.293D-05       -77.76105200    111.698363    0.00008    0.00004   -0.00006    9    orth
   11      0.181D-04      0.828D-06       -77.76105200    111.698360    0.00009    0.00004   -0.00006    9    diag
   12      0.481D-05      0.207D-06       -77.76105200    111.698357    0.00009    0.00004   -0.00006    0    orth

 Final occupancy:   8

 !RHF STATE  1.1 Energy               -77.761052004609
 Nuclear energy                        30.66598056
 One-electron energy                 -164.27621125
 Two-electron energy                   55.84917868
 Virial quotient                       -1.00757343
 !RHF STATE  1.1 Dipole moment          0.00008608     0.00003689    -0.00005762
 Dipole moment /Debye                   0.00021879     0.00009377    -0.00014644

 ELECTRON ORBITALS
 =================

  Orbital  Occupation    Energy     Coefficients
    1.1     2.00000   -11.30706     1 1s    0.69977     2 1s    0.70923
    2.1     2.00000   -11.30620     1 1s   -0.70934     2 1s    0.69987
    3.1     2.00000    -1.02033     1 1s    0.28733     1 1s    0.26006     2 1s    0.28733     2 1s    0.26006
    4.1     2.00000    -0.77029     1 1s    0.30091     2 1s   -0.30094
    5.1     2.00000    -0.57350     1 2px   0.31989     2 2px  -0.31991
    6.1     2.00000    -0.56005     1 2py   0.26443     2 2py   0.26449
    7.1     2.00000    -0.41089     1 2pz   0.31044     1 2pz   0.26659     2 2pz   0.31041     2 2pz   0.26657
    8.1     2.00000    -0.34061     4 1s    0.37049     5 1s    0.37045
    9.1     0.00000     0.03958     1 1s    0.46770     1 2pz   0.31223     1 2pz   0.38479     2 1s    0.46772     2 2pz  -0.31224
                                    2 2pz  -0.38482     4 1s   -0.26834     5 1s   -0.26834
   10.1     0.00000     0.16418     1 1s   -0.45403     1 2px   0.36628     1 2py   0.47360     1 2pz   0.33097     2 1s   -0.45404
                                    2 2px  -0.36626     2 2py  -0.47347     2 2pz  -0.33095     4 1s    0.64570     5 1s    0.64555
   11.1     0.00000     0.23680     1 2py  -0.25041     1 2px  -0.29838     1 2py  -0.53401     2 2py  -0.25048     2 2px  -0.29848
                                    2 2py  -0.53422     4 1s   -1.05762     5 1s    1.05783
   12.1     0.00000     0.26874     1 1s    1.48172     1 2pz  -0.46094     2 1s   -1.48228     2 2py   0.25022     2 2pz  -0.46125
                                    3 1s   -1.40228     6 1s    1.40322
   13.1     0.00000     0.29520     1 1s   -0.98931     1 2px   0.49726     1 2py  -0.80844     1 2pz   0.55309     2 1s   -0.98790
                                    2 2px  -0.49728     2 2py   0.80823     2 2pz  -0.55260     3 1s    1.59046     6 1s    1.58923
   14.1     0.00000     0.42736     1 1s    2.10014     1 2px   1.73169     1 2py  -0.72043     1 2pz  -0.85542     2 1s   -2.10017
                                    2 2px   1.73166     2 2py  -0.72042     2 2pz  -0.85548     3 1s    0.54048     6 1s   -0.54050
   15.1     0.00000     0.70212     1 2px  -0.52845     1 2pz   0.30284     1 2px   0.89933     1 2py  -0.32657     2 2px   0.52836
                                    2 2pz  -0.30295     2 2px  -0.89929     2 2py   0.32643     4 1s   -0.39686     5 1s   -0.39685
   16.1     0.00000     0.76689     1 2py   0.27875     1 2pz  -0.41624     1 2px   0.54168     1 2py  -0.50990     1 2pz   0.39862
                                    2 2py   0.27862     2 2pz  -0.41601     2 2px   0.54183     2 2py  -0.50962     2 2pz   0.39819
                                    3 1s    0.45599     6 1s   -0.45602
   17.1     0.00000     0.80534     1 2px   0.31175     1 2pz  -0.62480     1 2px  -0.31257     1 2py   0.26625     1 2pz   0.49110
                                    2 2px   0.31166     2 2pz  -0.62507     2 2px  -0.31242     2 2py   0.26626     2 2pz   0.49149
                                    3 1s   -0.25613     6 1s    0.25620
   18.1     0.00000     0.82621     1 1s    0.27611     1 2px  -0.29993     1 2py  -0.58015     1 2pz  -0.44397     1 2px   0.31731
                                    1 2py   0.90001     1 2pz   0.46662     2 1s    0.27593     2 2px   0.30000     2 2py   0.58007
                                    2 2pz   0.44378     2 2px  -0.31729     2 2py  -0.89997     2 2pz  -0.46652
   19.1     0.00000     0.85477     1 1s   -0.33712     1 2py   0.47552     1 2pz  -0.53131     1 2px   0.41707     1 2py  -0.98452
                                    1 2pz   0.84487     2 1s   -0.33712     2 2py  -0.47568     2 2pz   0.53129     2 2px  -0.41757
                                    2 2py   0.98487     2 2pz  -0.84473     3 1s    0.36011     6 1s    0.36025
   20.1     0.00000     0.94648     1 1s    0.36295     1 2px  -0.52695     1 2py  -0.56866     1 2px   0.94147     1 2py   0.85105
                                    2 1s   -0.36313     2 2px  -0.52691     2 2py  -0.56869     2 2px   0.94146     2 2py   0.85118
                                    4 1s    1.11612     5 1s   -1.11600
   21.1     0.00000     1.00839     1 1s   -0.72035     1 1s    1.30702     1 2px   0.25040     1 2px  -0.40646     2 1s   -0.72013
                                    2 1s    1.30627     2 2px  -0.25076     2 2px   0.40715     3 1s   -0.36434     4 1s    0.72628
                                    4 1s   -1.06136     5 1s    0.72592     5 1s   -1.06115     6 1s   -0.36452
   22.1     0.00000     1.01860     1 1s   -0.48608     1 1s    1.15194     1 2px  -0.39744     1 2px   0.59798     1 2pz  -0.27630
                                    2 1s    0.48640     2 1s   -1.15254     2 2px  -0.39725     2 2px   0.59776     2 2pz  -0.27635
                                    4 1s    0.72653     4 1s   -0.72220     5 1s   -0.72697     5 1s    0.72276
   23.1     0.00000     1.11916     1 1s    0.36117     1 1s   -0.33415     1 2px  -0.39591     1 2py   0.42800     1 2px   0.89389
                                    1 2py  -0.73407     2 1s   -0.36145     2 1s    0.33442     2 2px  -0.39628     2 2py   0.42852
                                    2 2px   0.89398     2 2py  -0.73429     3 1s   -0.61651     3 1s    1.38199     6 1s    0.61811
                                    6 1s   -1.38339
   24.1     0.00000     1.15622     1 2py  -0.28144     2 2py   0.28063     3 1s    0.86364     3 1s   -0.76778     6 1s    0.86247
                                    6 1s   -0.76522
   25.1     0.00000     1.25465     1 1s   -1.24073     1 1s    1.92949     1 2px  -0.54330     1 2py   0.55768     1 2pz  -0.93764
                                    2 1s   -1.24282     2 1s    1.93544     2 2px   0.54145     2 2py  -0.55668     2 2pz   0.93902
                                    3 1s   -1.08331     4 1s   -0.50399     5 1s   -0.50449     6 1s   -1.08348
   26.1     0.00000     1.26858     1 1s   -1.47432     1 1s    4.40055     1 2px   1.28562     1 2py  -0.63077     1 2pz  -1.09857
                                    2 1s    1.47252     2 1s   -4.39772     2 2px   1.28636     2 2py  -0.63161     2 2pz  -1.09720
                                    3 1s   -0.36545     4 1s   -0.39861     5 1s    0.39793     6 1s    0.36381
   27.1     0.00000     1.70507     1 1s   -0.51244     1 3d0  -0.34379     1 3d2-  0.27559     1 3d2+  0.35895     2 1s    0.51242
                                    2 3d0   0.34376     2 3d2- -0.27559     2 3d2+ -0.35897
   28.1     0.00000     1.87891     1 1s   -0.38148     1 3d0   0.37698     1 3d1+  0.31154     1 3d2+  0.39618     1 3d1-  0.25715
                                    2 1s   -0.38065     2 3d0   0.37683     2 3d1+  0.31169     2 3d2+  0.39617     2 3d1-  0.25735
   29.1     0.00000     1.89892     1 1s   -0.32353     1 1s    1.19046     1 2px   0.28424     1 2pz  -0.32777     1 3d0  -0.28327
                                    1 3d2- -0.26572     1 3d1+  0.33797     1 3d1-  0.38983     2 1s    0.32364     2 1s   -1.19072
                                    2 2px   0.28407     2 2pz  -0.32793     2 3d0   0.28342     2 3d2-  0.26569     2 3d1+ -0.33778
                                    2 3d1- -0.38962     3 1s   -0.31853     6 1s    0.31865
   30.1     0.00000     2.08562     1 1s   -0.51703     1 3d0   0.50205     1 3d1+  0.27762     1 3d2+  0.41297     2 1s    0.51711
                                    2 3d0  -0.50207     2 3d1+ -0.27765     2 3d2+ -0.41297
   31.1     0.00000     2.13331     1 1s    0.28733     1 1s   -0.40345     1 2py  -0.29153     1 2pz   0.30724     1 3d2-  0.39279
                                    1 3d1+  0.34597     1 3d1-  0.34807     2 1s    0.28720     2 1s   -0.40278     2 2py   0.29163
                                    2 2pz  -0.30703     2 3d2-  0.39283     2 3d1+  0.34600     2 3d1-  0.34818     3 1s    0.27306
                                    6 1s    0.27304
   32.1     0.00000     2.25233     1 1s    0.45075     1 2px  -0.37258     1 2py   0.35841     1 3d0   0.40194     1 3d2+ -0.32530
                                    1 3d1- -0.38914     2 1s    0.45076     2 2px   0.37274     2 2py  -0.35855     2 3d0   0.40196
                                    2 3d2+ -0.32533     2 3d1- -0.38942
   33.1     0.00000     2.43984     1 1s   -0.60878     1 3d2-  0.53810     1 3d1-  0.52975     2 1s    0.60866     2 3d2- -0.53817
                                    2 3d1- -0.52953     3 1s    0.56446     6 1s   -0.56425
   34.1     0.00000     2.57175     1 3d2-  0.43461     1 3d2+  0.49375     1 3d1- -0.44673     2 3d2-  0.43462     2 3d2+  0.49374
                                    2 3d1- -0.44672
   35.1     0.00000     2.67969     1 3d0  -0.43302     1 3d2- -0.52733     1 3d1+  0.49750     2 3d0  -0.43303     2 3d2- -0.52719
                                    2 3d1+  0.49754     3 1s   -0.44180     6 1s   -0.44167
   36.1     0.00000     2.92947     1 1s   -1.89313     1 2px  -0.41959     1 2px  -0.93819     1 2py   0.32143     1 2pz   0.50785
                                    1 3d2-  0.35769     1 3d1+  0.71330     1 3d2+ -0.58168     2 1s    1.89313     2 2px  -0.41958
                                    2 2px  -0.93817     2 2py   0.32142     2 2pz   0.50786     2 3d2- -0.35775     2 3d1+ -0.71324
                                    2 3d2+  0.58168


 HOMO      8.1    -0.340611 =      -9.2685eV
 LUMO      9.1     0.039583 =       1.0771eV
 LUMO-HOMO         0.380195 =      10.3456eV


 **********************************************************************************************************************************
 DATASETS  * FILE   NREC   LENGTH (MB)   RECORD NAMES
              1      19       31.12       500      610      700      900      950      970     1000      129      960     1100   
                                          VAR    BASINP    GEOM    SYMINP    ZMAT    AOBASIS   BASIS     P2S    ABASIS      S 
                                         1400     1410     1200     1210     1080     1600     1650     1300     1700   
                                           T        V       H0       H01     AOSYM     SMH    MOLCAS    ERIS     OPER   

              2       4        2.86       700     1000      520     2100   
                                         GEOM     BASIS   MCVARS     RHF  

 PROGRAMS   *        TOTAL    HF-SCF       INT
 CPU TIMES  *         0.40      0.11      0.17
 REAL TIME  *         0.86 SEC
 DISK USED  *        36.24 MB
 **********************************************************************************************************************************


 PROGRAM * MULTI (Direct Multiconfiguration SCF)       Authors: P.J. Knowles, H.-J. Werner (1984)


 Number of closed-shell orbitals:   7 (   7 )
 Number of active  orbitals:        2 (   2 )
 Number of external orbitals:      27 (  27 )

 State symmetry 1

 Number of electrons:     2    Spin symmetry=Singlet   Space symmetry=1
 Number of states:        3
 Number of CSFs:          3   (4 determinants, 4 intermediate states)

 Molecular orbitals read from record     2100.2  Type=RHF/CANONICAL (state 1.1)

 Wavefunction dump at record             2140.2

 Convergence thresholds  0.10E-01 (gradient)  0.10E-05 (energy)  0.10E-02 (step length)

 Weight factors for state symmetry  1:    0.33333   0.33333   0.33333

 Number of orbital rotations:      257   (    14 Core/Active    189 Core/Virtual   0 Active/Active     54 Active/Virtual)
 Total number of variables:        269

 Micro-Iterations solved by the two-step solver

 ITER. MIC  NCI  NEG     ENERGY(VAR)     ENERGY(PROJ)   ENERGY CHANGE     GRAD(0)  GRAD(ORB)   GRAD(CI)     STEP       TIME

   1    6    5    0     -77.64001369     -77.65439461   -0.01438091    0.13571279 0.00047650 0.00000000  0.16D+00      0.11
   2    5    5    0     -77.65423503     -77.65425245   -0.00001742    0.00647907 0.00000383 0.00000000  0.39D-02      0.20
   3    4    4    0     -77.65425247     -77.65425247   -0.00000000    0.00001136 0.00000000 0.00000000  0.29D-04      0.27
   4    3    3    0     -77.65425247     -77.65425247    0.00000000    0.00000000 0.00000000 0.00000000  0.40D-09      0.33

 ** WVFN ****  CONVERGENCE REACHED, FINAL GRADIENT:  0.54D-13



 Results for state 1.1
 =====================

 !MCSCF STATE  1.1 Energy             -77.758105477856
 Nuclear energy                        30.66598056
 Kinetic energy                        77.15136027
 One electron energy                 -164.23727311
 Two electron energy                   55.81318707
 Virial ratio                           2.00786435

 !MCSCF STATE  1.1 Dipole moment        0.00007427     0.00006551    -0.00005560
 Dipole moment /Debye                   0.00018877     0.00016649    -0.00014131

 Results for state 2.1
 =====================

 !MCSCF STATE  2.1 Energy             -77.677997490787
 Nuclear energy                        30.66598056
 Kinetic energy                        77.29821294
 One electron energy                 -164.04840330
 Two electron energy                   55.70442524
 Virial ratio                           2.00491324

 !MCSCF STATE  2.1 Dipole moment        0.00008943    -0.00001011    -0.00007355
 Dipole moment /Debye                   0.00022729    -0.00002569    -0.00018694

 Results for state 3.1
 =====================

 !MCSCF STATE  3.1 Energy             -77.526654449352
 Nuclear energy                        30.66598056
 Kinetic energy                        77.59441709
 One electron energy                 -164.60623861
 Two electron energy                   56.41360360
 Virial ratio                           1.99912671

 !MCSCF STATE  3.1 Dipole moment       -0.00001587    -0.00010921    -0.00001243
 Dipole moment /Debye                  -0.00004033    -0.00027757    -0.00003160

 State-averaged charge density matrix saved on record  2140.2 (density set 1)

 !MCSCF expec         <1.1|DMX|1.1>     0.000074274190 au =     0.000188773795 Debye
 !MCSCF trans         <2.1|DMX|1.1>    -0.000060717277 au =    -0.000154317816 Debye
 !MCSCF expec         <2.1|DMX|2.1>     0.000089426722 au =     0.000227285168 Debye
 !MCSCF trans         <3.1|DMX|1.1>    -0.000011888124 au =    -0.000030214619 Debye
 !MCSCF trans         <3.1|DMX|2.1>    -0.000058297022 au =    -0.000148166546 Debye
 !MCSCF expec         <3.1|DMX|3.1>    -0.000015868471 au =    -0.000040330988 Debye

 !MCSCF expec         <1.1|DMY|1.1>     0.000065506263 au =     0.000166489407 Debye
 !MCSCF trans         <2.1|DMY|1.1>    -0.000025859382 au =    -0.000065723688 Debye
 !MCSCF expec         <2.1|DMY|2.1>    -0.000010108262 au =    -0.000025690957 Debye
 !MCSCF trans         <3.1|DMY|1.1>     0.000012575710 au =     0.000031962172 Debye
 !MCSCF trans         <3.1|DMY|2.1>     0.000000241280 au =     0.000000613233 Debye
 !MCSCF expec         <3.1|DMY|3.1>    -0.000109212712 au =    -0.000277572845 Debye

 !MCSCF expec         <1.1|DMZ|1.1>    -0.000055598048 au =    -0.000141306886 Debye
 !MCSCF trans         <2.1|DMZ|1.1>     0.000038433028 au =     0.000097680615 Debye
 !MCSCF expec         <2.1|DMZ|2.1>    -0.000073552957 au =    -0.000186940725 Debye
 !MCSCF trans         <3.1|DMZ|1.1>     0.000009322573 au =     0.000023694065 Debye
 !MCSCF trans         <3.1|DMZ|2.1>     0.000039455937 au =     0.000100280421 Debye
 !MCSCF expec         <3.1|DMZ|3.1>    -0.000012432467 au =    -0.000031598109 Debye


 NATURAL ORBITALS (state averaged)
 =================================

  Orbital  Occupation    Energy     Coefficients
    1.1     2.00000   -11.28331     1 1s    0.70176     2 1s    0.70722
    2.1     2.00000   -11.28255     1 1s   -0.70729     2 1s    0.70184
    3.1     2.00000    -1.01637     1 1s    0.27869     1 1s    0.26053     2 1s    0.27868     2 1s    0.26053
    4.1     2.00000    -0.75889     1 1s    0.32340     2 1s   -0.32343
    5.1     2.00000    -0.55903     1 2px   0.28789     2 2px  -0.28795
    6.1     2.00000    -0.55538     1 2py   0.25434     2 2py   0.25452
    7.1     2.00000    -0.42354     1 2pz   0.32008     1 2pz   0.26642     2 2pz   0.32005     2 2pz   0.26640
    8.1     1.00000    -0.09447     1 1s    0.32962     1 2pz   0.37110     1 2pz   0.39527     2 1s    0.32962     2 2pz  -0.37111
                                    2 2pz  -0.39530
    9.1     1.00000    -0.20433     1 2px  -0.25652     2 2px   0.25650     4 1s    0.37190     5 1s    0.37187
   10.1    -0.00000     0.16238     1 1s   -0.53861     1 2px   0.38857     1 2py   0.45370     1 2pz   0.27638     2 1s   -0.53857
                                    2 2px  -0.38855     2 2py  -0.45354     2 2pz  -0.27634     3 1s    0.25429     4 1s    0.66461
                                    5 1s    0.66442     6 1s    0.25433
   11.1    -0.00000     0.23022     1 1s    0.39093     1 2px  -0.25355     1 2py  -0.54711     2 1s   -0.39111     2 2px  -0.25369
                                    2 2py  -0.54729     4 1s   -1.08722     5 1s    1.08746
   12.1    -0.00000     0.27340     1 1s    1.46999     1 2py   0.31186     1 2pz  -0.44439     2 1s   -1.47046     2 2py   0.31240
                                    2 2pz  -0.44460     3 1s   -1.41027     6 1s    1.41106
   13.1    -0.00000     0.30402     1 1s   -1.01299     1 2px   0.48375     1 2py  -0.82943     1 2pz   0.51905     2 1s   -1.01174
                                    2 2px  -0.48378     2 2py   0.82923     2 2pz  -0.51861     3 1s    1.59654     6 1s    1.59546
   14.1    -0.00000     0.43927     1 1s    2.08009     1 2px   1.74941     1 2py  -0.68278     1 2pz  -0.83280     2 1s   -2.08011
                                    2 2px   1.74940     2 2py  -0.68278     2 2pz  -0.83286     3 1s    0.55229     6 1s   -0.55232
   15.1    -0.00000     0.71043     1 2px  -0.52376     1 2pz   0.28401     1 2px   0.88484     1 2py  -0.32308     2 2px   0.52366
                                    2 2pz  -0.28411     2 2px  -0.88478     2 2py   0.32292     4 1s   -0.46529     5 1s   -0.46529
   16.1    -0.00000     0.77485     1 2py   0.28911     1 2pz  -0.37606     1 2px   0.56436     1 2py  -0.51946     1 2pz   0.37127
                                    2 2py   0.28896     2 2pz  -0.37583     2 2px   0.56450     2 2py  -0.51916     2 2pz   0.37080
                                    3 1s    0.47222     6 1s   -0.47225
   17.1    -0.00000     0.81705     1 2px   0.28778     1 2pz  -0.64567     1 2px  -0.31257     1 2pz   0.56455     2 2px   0.28768
                                    2 2pz  -0.64592     2 2px  -0.31242     2 2pz   0.56491
   18.1    -0.00000     0.83515     1 2px  -0.29798     1 2py  -0.56592     1 2pz  -0.44466     1 2px   0.33204     1 2py   0.87036
                                    1 2pz   0.53486     2 2px   0.29806     2 2py   0.56582     2 2pz   0.44444     2 2px  -0.33204
                                    2 2py  -0.87029     2 2pz  -0.53472
   19.1    -0.00000     0.86565     1 1s   -0.30716     1 2py   0.48487     1 2pz  -0.51264     1 2px   0.42559     1 2py  -0.99297
                                    1 2pz   0.85584     2 1s   -0.30716     2 2py  -0.48502     2 2pz   0.51266     2 2px  -0.42608
                                    2 2py   0.99330     2 2pz  -0.85573     3 1s    0.37684     6 1s    0.37698
   20.1    -0.00000     0.94456     1 2px  -0.36251     1 2py  -0.56984     1 2px   0.68471     1 2py   0.86098     2 2px  -0.36244
                                    2 2py  -0.56986     2 2px   0.68463     2 2py   0.86113     4 1s   -0.48703     4 1s    1.28887
                                    5 1s    0.48676     5 1s   -1.28852
   21.1    -0.00000     0.98478     1 1s   -0.65270     1 1s    1.19712     1 2px   0.26175     1 2px  -0.39569     2 1s   -0.65269
                                    2 1s    1.19689     2 2px  -0.26203     2 2px   0.39625     3 1s   -0.27447     4 1s    0.73989
                                    4 1s   -1.04408     5 1s    0.73994     5 1s   -1.04449     6 1s   -0.27452
   22.1    -0.00000     1.00214     1 1s   -0.43794     1 1s    0.98422     1 2px  -0.53929     1 2px   0.72804     2 1s    0.43800
                                    2 1s   -0.98435     2 2px  -0.53920     2 2px   0.72800     4 1s    0.62262     4 1s   -0.30000
                                    5 1s   -0.62279     5 1s    0.30016
   23.1    -0.00000     1.13079     1 1s    0.29546     1 2px  -0.43795     1 2py   0.43702     1 2px   0.96880     1 2py  -0.76292
                                    2 1s   -0.29577     2 2px  -0.43830     2 2py   0.43752     2 2px   0.96888     2 2py  -0.76313
                                    3 1s   -0.61804     3 1s    1.37429     6 1s    0.61958     6 1s   -1.37562
   24.1    -0.00000     1.16833     1 2py  -0.28035     2 2py   0.27955     3 1s    0.87102     3 1s   -0.71633     6 1s    0.86989
                                    6 1s   -0.71390
   25.1    -0.00000     1.24976     1 1s   -1.29082     1 1s    2.01356     1 2px  -0.55860     1 2py   0.58848     1 2pz  -0.93384
                                    2 1s   -1.29231     2 1s    2.01774     2 2px   0.55723     2 2py  -0.58773     2 2pz   0.93476
                                    3 1s   -1.13833     4 1s   -0.46281     5 1s   -0.46312     6 1s   -1.13831
   26.1    -0.00000     1.26593     1 1s   -1.51060     1 1s    4.47544     1 2px   1.30614     1 2py  -0.61368     1 2pz  -1.10203
                                    2 1s    1.50926     2 1s   -4.47332     2 2px   1.30667     2 2py  -0.61433     2 2pz  -1.10105
                                    3 1s   -0.38760     4 1s   -0.36430     5 1s    0.36386     6 1s    0.38634
   27.1    -0.00000     1.71374     1 1s   -0.53030     1 3d0  -0.33384     1 3d2-  0.28118     1 3d2+  0.36266     2 1s    0.53028
                                    2 3d0   0.33381     2 3d2- -0.28118     2 3d2+ -0.36267
   28.1    -0.00000     1.88819     1 1s   -0.36226     1 3d0   0.37664     1 3d1+  0.30660     1 3d2+  0.40286     1 3d1-  0.25240
                                    2 1s   -0.36154     2 3d0   0.37650     2 3d1+  0.30674     2 3d2+  0.40285     2 3d1-  0.25257
   29.1    -0.00000     1.91039     1 1s   -0.30877     1 1s    1.13490     1 2px   0.26571     1 2pz  -0.31190     1 3d0  -0.28469
                                    1 3d2- -0.26176     1 3d1+  0.34460     1 3d1-  0.38728     2 1s    0.30887     2 1s   -1.13514
                                    2 2px   0.26554     2 2pz  -0.31204     2 3d0   0.28480     2 3d2-  0.26173     2 3d1+ -0.34443
                                    2 3d1- -0.38708     3 1s   -0.32018     6 1s    0.32029
   30.1    -0.00000     2.09693     1 1s   -0.49670     1 3d0   0.50633     1 3d1+  0.27040     1 3d2+  0.41326     2 1s    0.49678
                                    2 3d0  -0.50636     2 3d1+ -0.27043     2 3d2+ -0.41327
   31.1    -0.00000     2.14103     1 1s    0.28486     1 1s   -0.40739     1 2py  -0.29810     1 2pz   0.31077     1 3d2-  0.39214
                                    1 3d1+  0.34579     1 3d1-  0.35759     2 1s    0.28473     2 1s   -0.40672     2 2py   0.29820
                                    2 2pz  -0.31055     2 3d2-  0.39217     2 3d1+  0.34583     2 3d1-  0.35771     3 1s    0.28048
                                    6 1s    0.28046
   32.1    -0.00000     2.26397     1 1s    0.45060     1 2px  -0.37450     1 2py   0.35807     1 3d0   0.40509     1 3d2+ -0.32601
                                    1 3d1- -0.38385     2 1s    0.45061     2 2px   0.37466     2 2py  -0.35821     2 3d0   0.40512
                                    2 3d2+ -0.32604     2 3d1- -0.38414
   33.1    -0.00000     2.44936     1 1s   -0.60729     1 3d2-  0.53629     1 3d1-  0.53237     2 1s    0.60717     2 3d2- -0.53634
                                    2 3d1- -0.53215     3 1s    0.56524     6 1s   -0.56502
   34.1    -0.00000     2.58013     1 3d2-  0.45883     1 3d2+  0.49045     1 3d1- -0.44218     2 3d2-  0.45884     2 3d2+  0.49045
                                    2 3d1- -0.44218
   35.1    -0.00000     2.69793     1 3d0  -0.44531     1 3d2- -0.50549     1 3d1+  0.50390     2 3d0  -0.44532     2 3d2- -0.50536
                                    2 3d1+  0.50395     3 1s   -0.43996     6 1s   -0.43983
   36.1    -0.00000     2.94140     1 1s   -1.90497     1 2px  -0.41340     1 2px  -0.94365     1 2py   0.32436     1 2pz   0.51099
                                    1 3d2-  0.35772     1 3d1+  0.71454     1 3d2+ -0.57981     2 1s    1.90497     2 2px  -0.41340
                                    2 2px  -0.94363     2 2py   0.32435     2 2pz   0.51099     2 3d2- -0.35778     2 3d1+ -0.71448
                                    2 3d2+  0.57981


 Natural orbital dump (state averaged) at molpro section  2140.2    (Orbital set 2)



 **********************************************************************************************************************************
 DATASETS  * FILE   NREC   LENGTH (MB)   RECORD NAMES
              1      20       31.85       500      610      700      900      950      970     1000      129      960     1100   
                                          VAR    BASINP    GEOM    SYMINP    ZMAT    AOBASIS   BASIS     P2S    ABASIS      S 
                                         1400     1410     1200     1210     1080     1600     1650     1300     1700     1380   
                                           T        V       H0       H01     AOSYM     SMH    MOLCAS    ERIS     OPER     JKOP   

              2       5        5.42       700     1000      520     2100     2140   
                                         GEOM     BASIS   MCVARS     RHF     MCSCF   

 PROGRAMS   *        TOTAL     MULTI    HF-SCF       INT
 CPU TIMES  *         0.78      0.39      0.11      0.17
 REAL TIME  *         1.29 SEC
 DISK USED  *        39.03 MB
 **********************************************************************************************************************************
 Molecular orbitals read from record     2140.2  Type=MCSCF/NATURAL (state averaged)
 Occupation numbers read from record     2140.2  Type=MCSCF/NATURAL (state averaged)
 Orbital energies read from record       2140.2  Type=MCSCF/NATURAL (state averaged)
 Redundancy group numbers read from rec  2140.2  Type=MCSCF/NATURAL (state averaged)

 MULTI/6-31G* energy=    -77.526654449352

           MULTI          HF-SCF
    -77.52665445    -77.76105200
 **********************************************************************************************************************************
 Molpro calculation terminated
