
 Primary working directories    : /scratch.local/johan406.molpro_temp/molpro.Oz3raC0Nw6
 Secondary working directories  : /scratch.local/johan406.molpro_temp/molpro.Oz3raC0Nw6
 Wavefunction directory         : /home/goodpast/johan406/wfu/
 Main file repository           : /scratch.local/johan406.molpro_temp/molpro.Oz3raC0Nw6/

 id        : roweumn

 Nodes     nprocs
 acn09        1

 Using customized tuning parameters: mindgm=1; mindgv=20; mindgc=4; mindgr=1; noblas=0; minvec=7
 default implementation of scratch files=df  


 Variables initialized (934), CPU time= 0.01 sec
                                                                                 !leave this line blank
 
 gprint, orbitals=30
 memory, 125., m
 symmetry, nosym
 nelect=16
 basis=6-31g*
 
 geometry={
 C -0.6263 0.1375 0.2987
 C 0.6352 -0.1874 -0.3591
 H -1.2688 0.8985 -0.1561
 H -0.962 -0.8661 -0.1374
 H 0.971 0.8162 0.077
 H 1.2776 -0.9483 0.0956
 }
 
 hf
 {multi,
 closed 7
 occ 9
 wf,spin=0;STATE,3
 }
 
 Commands  initialized (763), CPU time= 0.01 sec, 617 directives.
 Default parameters read. Elapsed time= 0.08 sec

 Checking input...
 Passed
1


                                         ***  PROGRAM SYSTEM MOLPRO  ***
                                       Copyright, TTI GmbH Stuttgart, 2015
                                    Version 2019.2 linked Oct 25 2019 22:50:27


 **********************************************************************************************************************************
 LABEL *                                                                                 
  64 bit serial version                                                                  DATE: 07-Feb-23          TIME: 15:59:50  
 **********************************************************************************************************************************

 SHA1:             8dbd9ae1082e4ce945b0f27595c9eb2d4aa09004
 **********************************************************************************************************************************


 Variable memory set to  125000000 words,  buffer space 

 SETTING NELECT         =        16.00000000                                  
 SETTING BASIS          =    6-31G*
 ZSYMEL=NOSYM


Geometry recognized as XYZ



 Recomputing integrals since basis changed


 Using spherical harmonics

 Library entry C      S 6-31G                selected for orbital group  1
 Library entry C      P 6-31G                selected for orbital group  1
 Library entry C      D 6-31G*               selected for orbital group  1
 Library entry H      S 6-31G                selected for orbital group  2


 PROGRAM * SEWARD (Integral evaluation for generally contracted gaussian basis sets)     Author: Roland Lindh, 1990

 Geometry written to block  1 of record 700


 Point group  C1  



 ATOMIC COORDINATES

 NR  ATOM    CHARGE       X              Y              Z

   1  C       6.00   -1.183535472    0.259837342    0.564461193
   2  C       6.00    1.200354034   -0.354134676   -0.678600651
   3  H       1.00   -2.397684507    1.697918923   -0.294986248
   4  H       1.00   -1.817916532   -1.636691796   -0.259648370
   5  H       1.00    1.834924067    1.542394463    0.145508912
   6  H       1.00    2.414314097   -1.792027284    0.180657818

 Bond lengths in Bohr (Angstrom)

 1-2  2.757733411  1-3  2.069030308  1-4  2.162965250  2-5  2.163020682  2-6  2.068709574
     ( 1.459329675)     ( 1.094883688)     ( 1.144591919)     ( 1.144621252)     ( 1.094713963)

 Bond angles

  1-2-5   83.49198498   1-2-6  118.34577009   2-1-3  118.34476212   2-1-4   83.48746220

  3-1-4  106.20399001   5-2-6  106.20198203

 NUCLEAR CHARGE:                   16
 NUMBER OF PRIMITIVE AOS:          72
 NUMBER OF SYMMETRY AOS:           70
 NUMBER OF CONTRACTIONS:           36   (   36A   )
 NUMBER OF CORE ORBITALS:           2   (    2A   )
 NUMBER OF VALENCE ORBITALS:       12   (   12A   )


 NUCLEAR REPULSION ENERGY   32.35077179

 Eigenvalues of metric

         1 0.925E-02 0.275E-01 0.599E-01 0.646E-01 0.802E-01 0.218E+00 0.237E+00 0.272E+00


 Contracted 2-electron integrals neglected if value below      1.0D-11
 AO integral compression algorithm  1   Integral accuracy      1.0D-11

     1.573 MB (compressed) written to integral file ( 59.2%)


 NUMBER OF SORTED TWO-ELECTRON INTEGRALS:     222111.     BUFFER LENGTH:  32768
 NUMBER OF SEGMENTS:   1  SEGMENT LENGTH:     222111      RECORD LENGTH: 524288

 Memory used in sort:       0.78 MW

 SORT1 READ      284735. AND WROTE      212531. INTEGRALS IN      1 RECORDS. CPU TIME:     0.00 SEC, REAL TIME:     0.00 SEC
 SORT2 READ      212531. AND WROTE      222111. INTEGRALS IN      6 RECORDS. CPU TIME:     0.03 SEC, REAL TIME:     0.03 SEC

 FILE SIZES:   FILE 1:    31.7 MBYTE,  FILE 4:     4.2 MBYTE,   TOTAL:     35.9 MBYTE

 OPERATOR DM      FOR CENTER  0  COORDINATES:    0.000000    0.000000    0.000000


 **********************************************************************************************************************************
 DATASETS  * FILE   NREC   LENGTH (MB)   RECORD NAMES
              1      19       31.13       500      610      700      900      950      970     1000      129      960     1100   
                                          VAR    BASINP    GEOM    SYMINP    ZMAT    AOBASIS   BASIS     P2S    ABASIS      S 
                                         1400     1410     1200     1210     1080     1600     1650     1300     1700   
                                           T        V       H0       H01     AOSYM     SMH    MOLCAS    ERIS     OPER   

 PROGRAMS   *        TOTAL       INT
 CPU TIMES  *         0.29      0.19
 REAL TIME  *         0.42 SEC
 DISK USED  *        36.24 MB
 **********************************************************************************************************************************


 PROGRAM * RHF-SCF (CLOSED SHELL)       Authors: W. Meyer, H.-J. Werner


 NUMBER OF ELECTRONS:       8+    8-    SPACE SYMMETRY=1    SPIN SYMMETRY: Singlet 
 CONVERGENCE THRESHOLDS:    1.00E-05 (Density)    1.00E-07 (Energy)
 MAX. NUMBER OF ITERATIONS:       60
 INTERPOLATION TYPE:            DIIS
 INTERPOLATION STEPS:              2 (START)      1 (STEP)
 LEVEL SHIFTS:                  0.00 (CLOSED)  0.00 (OPEN) 



 Orbital guess generated from atomic densities. Full valence occupancy:    8

 Molecular orbital dump at record        2100.2

 Initial occupancy:   8

 ITERATION    DDIFF          GRAD             ENERGY        2-EL.EN.            DIPOLE MOMENTS         DIIS   ORB.
    1      0.000D+00      0.000D+00       -77.82781346    115.914158   -0.00009    0.00007    0.00002    0    start
    2      0.000D+00      0.703D-02       -77.84578233    114.891451    0.00004   -0.00005   -0.00008    1    diag
    3      0.752D-02      0.228D-02       -77.84785811    115.309693   -0.00002   -0.00000    0.00002    2    diag
    4      0.295D-02      0.827D-03       -77.84830209    115.180771    0.00004   -0.00005   -0.00007    3    diag
    5      0.160D-02      0.293D-03       -77.84844043    115.188372   -0.00003   -0.00000    0.00004    4    diag
    6      0.985D-03      0.130D-03       -77.84848656    115.190020    0.00016   -0.00013   -0.00024    5    diag
    7      0.616D-03      0.440D-04       -77.84849166    115.191385   -0.00023    0.00013    0.00035    6    diag
    8      0.217D-03      0.151D-04       -77.84849204    115.191730    0.00026   -0.00019   -0.00039    7    diag
    9      0.538D-04      0.841D-05       -77.84849210    115.191802   -0.00001   -0.00001    0.00002    8    diag
   10      0.192D-04      0.236D-05       -77.84849210    115.191774    0.00002   -0.00004   -0.00003    9    orth
   11      0.600D-05      0.487D-06       -77.84849210    115.191780    0.00002   -0.00004   -0.00003    0    orth

 Final occupancy:   8

 !RHF STATE  1.1 Energy               -77.848492103285
 Nuclear energy                        32.35077179
 One-electron energy                 -167.79515388
 Two-electron energy                   57.59588999
 Virial quotient                       -1.00131812
 !RHF STATE  1.1 Dipole moment          0.00002054    -0.00003504    -0.00002920
 Dipole moment /Debye                   0.00005221    -0.00008907    -0.00007422

 ELECTRON ORBITALS
 =================

  Orbital  Occupation    Energy     Coefficients
    1.1     2.00000   -11.26014     1 1s    0.70919     2 1s    0.69966
    2.1     2.00000   -11.25928     1 1s    0.69977     2 1s   -0.70930
    3.1     2.00000    -1.03704     1 1s    0.28296     2 1s    0.28298
    4.1     2.00000    -0.78341     1 1s   -0.29356     2 1s    0.29352
    5.1     2.00000    -0.62173     1 2py   0.30827     2 2py   0.30834
    6.1     2.00000    -0.56086     1 2px   0.29907     2 2px  -0.29905
    7.1     2.00000    -0.39194     1 2pz   0.30908     1 2pz   0.28598     2 2pz   0.30909     2 2pz   0.28600
    8.1     2.00000    -0.38728     1 2px   0.27372     2 2px  -0.27373     4 1s   -0.28598     5 1s   -0.28598
    9.1     0.00000     0.06326     1 1s    0.39899     1 2pz   0.33038     1 2pz   0.46811     2 1s    0.39892     2 2pz  -0.33039
                                    2 2pz  -0.46814
   10.1     0.00000     0.23158     1 1s   -1.09637     1 2px   0.48343     1 2py   0.36628     1 2pz   0.43402     2 1s   -1.09623
                                    2 2px  -0.48347     2 2py  -0.36632     2 2pz  -0.43394     3 1s    0.57328     4 1s    1.08732
                                    5 1s    1.08735     6 1s    0.57313
   11.1     0.00000     0.28129     1 1s   -1.55793     1 2py  -0.35901     1 2pz   0.45910     2 1s    1.55784     2 2py  -0.35809
                                    2 2pz   0.45874     3 1s    1.44098     6 1s   -1.44001
   12.1     0.00000     0.31285     1 1s   -0.74206     1 2px   0.39613     1 2py  -1.01375     1 2pz   0.45217     2 1s   -0.74397
                                    2 2px  -0.39595     2 2py   1.01425     2 2pz  -0.45268     3 1s    1.55165     4 1s   -0.42792
                                    5 1s   -0.42817     6 1s    1.55339
   13.1     0.00000     0.33540     1 1s   -1.05569     1 2px   0.28381     1 2py   0.76012     1 2pz   0.31976     2 1s    1.05569
                                    2 2px   0.28393     2 2py   0.75993     2 2pz   0.31983     4 1s    1.69827     5 1s   -1.69804
   14.1     0.00000     0.42351     1 1s    2.03986     1 2px   1.78154     1 2py  -0.63063     1 2pz  -0.79196     2 1s   -2.03956
                                    2 2px   1.78163     2 2py  -0.63086     2 2pz  -0.79187     3 1s    0.61990     6 1s   -0.62030
   15.1     0.00000     0.70252     1 2px  -0.54973     1 2px   0.92822     2 2px   0.54976     2 2px  -0.92842     4 1s   -0.42791
                                    5 1s   -0.42785
   16.1     0.00000     0.75916     1 1s   -0.32328     1 2py  -0.37666     1 2px  -0.61728     1 2py   0.78959     2 1s    0.32269
                                    2 2py  -0.37718     2 2px  -0.61743     2 2py   0.79090     3 1s   -0.48633     6 1s    0.48643
   17.1     0.00000     0.78940     1 2py  -0.58744     1 2pz  -0.26345     1 2py   1.23455     2 2py   0.58702     2 2pz   0.26245
                                    2 2py  -1.23363     4 1s    0.28344     5 1s    0.28296
   18.1     0.00000     0.79983     1 2pz  -0.73379     1 2pz   0.70861     2 2pz  -0.73425     2 2pz   0.70910
   19.1     0.00000     0.86493     1 1s   -0.35620     1 2pz  -0.68649     1 2px   0.45578     1 2py  -0.54245     1 2pz   0.95808
                                    2 1s   -0.35615     2 2pz   0.68637     2 2px  -0.45544     2 2py   0.54209     2 2pz  -0.95809
   20.1     0.00000     0.97406     1 2px   0.71638     1 2py   0.37149     1 2px  -1.15061     1 2py  -0.77469     2 2px   0.71641
                                    2 2py   0.37154     2 2px  -1.15073     2 2py  -0.77479     4 1s   -1.04918     5 1s    1.04914
   21.1     0.00000     1.11972     1 1s   -0.67013     1 1s    1.22647     1 2px   0.25216     1 2py   0.40209     1 2px  -0.35676
                                    1 2py  -0.39018     2 1s   -0.67042     2 1s    1.22766     2 2px  -0.25181     2 2py  -0.40265
                                    2 2px   0.35592     2 2py   0.39116     4 1s    0.65248     4 1s   -1.18878     5 1s    0.65277
                                    5 1s   -1.18954
   22.1     0.00000     1.13530     1 2px  -0.40041     1 2py   0.59821     1 2px   0.74103     1 2py  -0.96084     2 2px  -0.39998
                                    2 2py   0.59722     2 2px   0.74077     2 2py  -0.96000     3 1s   -0.52059     3 1s    1.24329
                                    4 1s    0.29220     4 1s   -0.64530     5 1s   -0.29169     5 1s    0.64429     6 1s    0.51863
                                    6 1s   -1.24106
   23.1     0.00000     1.18170     1 1s   -0.35646     1 2pz   0.26398     1 2px  -0.73525     2 1s    0.34794     2 2pz   0.26168
                                    2 2px  -0.73123     3 1s    0.37322     3 1s   -0.60282     4 1s    0.74757     4 1s   -0.92856
                                    5 1s   -0.74716     5 1s    0.92793     6 1s   -0.36259     6 1s    0.58795
   24.1     0.00000     1.18731     1 1s   -0.60382     1 1s    0.95715     1 2px   0.28948     1 2py  -0.31297     1 2px  -0.28400
                                    1 2py   0.30270     2 1s   -0.60823     2 1s    0.95508     2 2px  -0.29258     2 2py   0.31204
                                    2 2px   0.29636     2 2py  -0.30527     3 1s    0.76614     3 1s   -1.07100     6 1s    0.77249
                                    6 1s   -1.08196
   25.1     0.00000     1.25884     1 1s   -1.18909     1 1s    2.13355     1 2px  -0.53092     1 2py   0.54773     1 2pz  -0.98850
                                    2 1s   -1.18908     2 1s    2.13382     2 2px   0.53104     2 2py  -0.54786     2 2pz   0.98851
                                    3 1s   -0.40477     3 1s   -0.92188     4 1s   -0.42791     4 1s   -0.35016     5 1s   -0.42787
                                    5 1s   -0.35016     6 1s   -0.40474     6 1s   -0.92226
   26.1     0.00000     1.28630     1 1s   -1.60062     1 1s    5.11483     1 2px   1.25362     1 2py  -0.76766     1 2pz  -1.22549
                                    2 1s    1.60081     2 1s   -5.11519     2 2px   1.25345     2 2py  -0.76751     2 2pz  -1.22556
                                    3 1s   -0.45197     4 1s   -0.66823     5 1s    0.66798     6 1s    0.45262
   27.1     0.00000     1.69565     1 1s    0.58859     1 3d0   0.34965     1 3d2- -0.29712     1 3d2+ -0.32612     2 1s   -0.58855
                                    2 3d0  -0.34958     2 3d2-  0.29710     2 3d2+  0.32619
   28.1     0.00000     1.91913     1 1s    0.31742     1 1s   -0.66439     1 2pz   0.34982     1 3d0   0.35537     1 3d1+  0.34147
                                    1 3d2+  0.34491     1 3d1-  0.31759     2 1s    0.31694     2 1s   -0.66245     2 2pz  -0.34929
                                    2 3d0   0.35529     2 3d1+  0.34196     2 3d2+  0.34510     2 3d1-  0.31806     3 1s    0.27722
                                    6 1s    0.27734
   29.1     0.00000     1.93974     1 1s   -0.31264     1 1s    1.38813     1 2px   0.32304     1 2pz  -0.36067     1 3d2- -0.30749
                                    1 3d1+  0.39463     1 3d1-  0.38363     2 1s    0.31306     2 1s   -1.38909     2 2px   0.32278
                                    2 2pz  -0.36117     2 3d2-  0.30739     2 3d1+ -0.39415     2 3d1- -0.38326     3 1s   -0.32944
                                    6 1s    0.32979
   30.1     0.00000     2.18134     1 1s   -0.34673     1 1s    1.64705     1 2px   0.38097     1 2py  -0.27589     1 2pz  -0.44218
                                    1 3d0  -0.56604     1 3d2+ -0.35606     2 1s    0.34690     2 1s   -1.64729     2 2px   0.38103
                                    2 2py  -0.27605     2 2pz  -0.44226     2 3d0   0.56620     2 3d2+  0.35598     3 1s   -0.35267
                                    4 1s   -0.33019     5 1s    0.33034     6 1s    0.35263
   31.1     0.00000     2.25126     1 1s    0.49520     1 1s   -0.32251     1 2px   0.26154     1 2px  -0.29701     1 3d2-  0.30012
                                    1 3d1+  0.38647     1 3d2+ -0.38972     2 1s    0.49510     2 1s   -0.32198     2 2px  -0.26152
                                    2 2px   0.29690     2 3d2-  0.30007     2 3d1+  0.38647     2 3d2+ -0.38981
   32.1     0.00000     2.34917     1 2py   0.36289     1 3d0   0.51261     1 3d2- -0.37027     1 3d1- -0.36372     2 2py  -0.36273
                                    2 3d0   0.51241     2 3d2- -0.37031     2 3d1- -0.36359     3 1s   -0.27568     4 1s    0.40054
                                    5 1s    0.40033     6 1s   -0.27578
   33.1     0.00000     2.58083     1 1s   -0.29708     1 2py   0.29759     1 3d2- -0.48027     1 3d1- -0.59795     2 1s    0.29707
                                    2 2py   0.29783     2 3d2-  0.47961     2 3d1-  0.59817     3 1s   -0.48470     4 1s    0.41329
                                    5 1s   -0.41342     6 1s    0.48448
   34.1     0.00000     2.64459     1 2py   0.32014     1 3d2-  0.44825     1 3d2+  0.51705     1 3d1- -0.50333     2 2py  -0.31991
                                    2 3d2-  0.44857     2 3d2+  0.51698     2 3d1- -0.50289     4 1s    0.35904     5 1s    0.35870
   35.1     0.00000     2.71936     1 3d0  -0.40855     1 3d2- -0.47971     1 3d1+  0.49682     1 3d1- -0.27587     2 3d0  -0.40856
                                    2 3d2- -0.48027     2 3d1+  0.49695     2 3d1- -0.27641     3 1s   -0.46943     6 1s   -0.47012
   36.1     0.00000     2.96032     1 1s   -1.72031     1 2px  -0.43631     1 2px  -0.87400     1 2pz   0.44009     1 3d2-  0.34721
                                    1 3d1+  0.69662     1 3d2+ -0.64488     2 1s    1.72029     2 2px  -0.43631     2 2px  -0.87401
                                    2 2pz   0.44009     2 3d2- -0.34717     2 3d1+ -0.69665     2 3d2+  0.64485


 HOMO      8.1    -0.387282 =     -10.5385eV
 LUMO      9.1     0.063261 =       1.7214eV
 LUMO-HOMO         0.450544 =      12.2599eV


 **********************************************************************************************************************************
 DATASETS  * FILE   NREC   LENGTH (MB)   RECORD NAMES
              1      19       31.13       500      610      700      900      950      970     1000      129      960     1100   
                                          VAR    BASINP    GEOM    SYMINP    ZMAT    AOBASIS   BASIS     P2S    ABASIS      S 
                                         1400     1410     1200     1210     1080     1600     1650     1300     1700   
                                           T        V       H0       H01     AOSYM     SMH    MOLCAS    ERIS     OPER   

              2       4        2.86       700     1000      520     2100   
                                         GEOM     BASIS   MCVARS     RHF  

 PROGRAMS   *        TOTAL    HF-SCF       INT
 CPU TIMES  *         0.40      0.10      0.19
 REAL TIME  *         0.58 SEC
 DISK USED  *        36.24 MB
 **********************************************************************************************************************************


 PROGRAM * MULTI (Direct Multiconfiguration SCF)       Authors: P.J. Knowles, H.-J. Werner (1984)


 Number of closed-shell orbitals:   7 (   7 )
 Number of active  orbitals:        2 (   2 )
 Number of external orbitals:      27 (  27 )

 State symmetry 1

 Number of electrons:     2    Spin symmetry=Singlet   Space symmetry=1
 Number of states:        3
 Number of CSFs:          3   (4 determinants, 4 intermediate states)

 Molecular orbitals read from record     2100.2  Type=RHF/CANONICAL (state 1.1)

 Wavefunction dump at record             2140.2

 Convergence thresholds  0.10E-01 (gradient)  0.10E-05 (energy)  0.10E-02 (step length)

 Weight factors for state symmetry  1:    0.33333   0.33333   0.33333

 Number of orbital rotations:      257   (    14 Core/Active    189 Core/Virtual   0 Active/Active     54 Active/Virtual)
 Total number of variables:        269

 Micro-Iterations solved by the two-step solver

 ITER. MIC  NCI  NEG     ENERGY(VAR)     ENERGY(PROJ)   ENERGY CHANGE     GRAD(0)  GRAD(ORB)   GRAD(CI)     STEP       TIME

   1    6    5    0     -77.69180149     -77.71131905   -0.01951756    0.16727618 0.00172781 0.00000000  0.14D+00      0.11
   2    5    5    0     -77.71101600     -77.71103515   -0.00001915    0.00646682 0.00000372 0.00000000  0.45D-02      0.20
   3    3    4    0     -77.71103518     -77.71103518   -0.00000000    0.00001242 0.00000000 0.00000000  0.17D-04      0.26

 ** WVFN ****  CONVERGENCE REACHED, FINAL GRADIENT:  0.15D-09



 Results for state 1.1
 =====================

 !MCSCF STATE  1.1 Energy             -77.842108602029
 Nuclear energy                        32.35077179
 Kinetic energy                        77.80198434
 One electron energy                 -167.87207720
 Two electron energy                   57.67919680
 Virial ratio                           2.00051572

 !MCSCF STATE  1.1 Dipole moment        0.00000964    -0.00002876    -0.00003772
 Dipole moment /Debye                   0.00002449    -0.00007310    -0.00009588

 Results for state 2.1
 =====================

 !MCSCF STATE  2.1 Energy             -77.738736272226
 Nuclear energy                        32.35077179
 Kinetic energy                        77.87754989
 One electron energy                 -167.56648740
 Two electron energy                   57.47697934
 Virial ratio                           1.99821754

 !MCSCF STATE  2.1 Dipole moment        0.00004473    -0.00004454    -0.00001079
 Dipole moment /Debye                   0.00011368    -0.00011321    -0.00002741

 Results for state 3.1
 =====================

 !MCSCF STATE  3.1 Energy             -77.552260661071
 Nuclear energy                        32.35077179
 Kinetic energy                        77.93884137
 One electron energy                 -167.30752377
 Two electron energy                   57.40449132
 Virial ratio                           1.99503995

 !MCSCF STATE  3.1 Dipole moment        0.00009294    -0.00005577     0.00002050
 Dipole moment /Debye                   0.00023622    -0.00014175     0.00005209

 State-averaged charge density matrix saved on record  2140.2 (density set 1)

 !MCSCF expec         <1.1|DMX|1.1>     0.000009636048 au =     0.000024490787 Debye
 !MCSCF trans         <2.1|DMX|1.1>    -0.000029988900 au =    -0.000076219189 Debye
 !MCSCF expec         <2.1|DMX|2.1>     0.000044727998 au =     0.000113679785 Debye
 !MCSCF trans         <3.1|DMX|1.1>    -0.000001743492 au =    -0.000004431224 Debye
 !MCSCF trans         <3.1|DMX|2.1>    -0.000029761697 au =    -0.000075641735 Debye
 !MCSCF expec         <3.1|DMX|3.1>     0.000092943132 au =     0.000236222405 Debye

 !MCSCF expec         <1.1|DMY|1.1>    -0.000028763122 au =    -0.000073103776 Debye
 !MCSCF trans         <2.1|DMY|1.1>    -0.000009326530 au =    -0.000023704121 Debye
 !MCSCF expec         <2.1|DMY|2.1>    -0.000044542814 au =    -0.000113209125 Debye
 !MCSCF trans         <3.1|DMY|1.1>     0.000002039400 au =     0.000005183298 Debye
 !MCSCF trans         <3.1|DMY|2.1>    -0.000011297950 au =    -0.000028714643 Debye
 !MCSCF expec         <3.1|DMY|3.1>    -0.000055771444 au =    -0.000141747586 Debye

 !MCSCF expec         <1.1|DMZ|1.1>    -0.000037724281 au =    -0.000095879278 Debye
 !MCSCF trans         <2.1|DMZ|1.1>    -0.000010513866 au =    -0.000026721833 Debye
 !MCSCF expec         <2.1|DMZ|2.1>    -0.000010785949 au =    -0.000027413352 Debye
 !MCSCF trans         <3.1|DMZ|1.1>    -0.000002026707 au =    -0.000005151038 Debye
 !MCSCF trans         <3.1|DMZ|2.1>    -0.000009314580 au =    -0.000023673750 Debye
 !MCSCF expec         <3.1|DMZ|3.1>     0.000020495707 au =     0.000052091479 Debye


 NATURAL ORBITALS (state averaged)
 =================================

  Orbital  Occupation    Energy     Coefficients
    1.1     2.00000   -11.25489     1 1s    0.71168     2 1s    0.69710
    2.1     2.00000   -11.25414     1 1s    0.69716     2 1s   -0.71175
    3.1     2.00000    -1.04985     1 1s    0.27792     2 1s    0.27793
    4.1     2.00000    -0.78433     1 1s   -0.31876     2 1s    0.31873
    5.1     2.00000    -0.62469     1 2py   0.30180     2 2py   0.30188
    6.1     2.00000    -0.55921     1 2px   0.25912     2 2px  -0.25910
    7.1     2.00000    -0.41944     1 2pz   0.32501     1 2pz   0.28061     2 2pz   0.32501     2 2pz   0.28062
    8.1     1.00000    -0.08685     1 1s    0.26807     1 2pz   0.40433     1 2pz   0.42944     2 1s    0.26803     2 2pz  -0.40434
                                    2 2pz  -0.42946
    9.1     1.00000    -0.23085     1 2px   0.31007     2 2px  -0.31006     4 1s   -0.29427     5 1s   -0.29427
   10.1    -0.00000     0.21954     1 1s   -1.10450     1 2px   0.47921     1 2py   0.38161     1 2pz   0.37549     2 1s   -1.10440
                                    2 2px  -0.47925     2 2py  -0.38163     2 2pz  -0.37542     3 1s    0.54109     4 1s    1.09725
                                    5 1s    1.09727     6 1s    0.54098
   11.1    -0.00000     0.28030     1 1s   -1.64618     1 2py  -0.29461     1 2pz   0.47576     2 1s    1.64602     2 2py  -0.29378
                                    2 2pz   0.47546     3 1s    1.43070     6 1s   -1.42978
   12.1    -0.00000     0.31530     1 1s   -0.79689     1 2px   0.39729     1 2py  -1.00661     1 2pz   0.42815     2 1s   -0.79884
                                    2 2px  -0.39716     2 2py   1.00699     2 2pz  -0.42867     3 1s    1.57040     4 1s   -0.38558
                                    5 1s   -0.38558     6 1s    1.57205
   13.1    -0.00000     0.31967     1 1s   -1.05837     1 2py   0.84240     1 2pz   0.33103     2 1s    1.05825     2 2py   0.84231
                                    2 2pz   0.33106     4 1s    1.71023     5 1s   -1.71003
   14.1    -0.00000     0.42969     1 1s    1.90088     1 2px   1.79316     1 2py  -0.52433     1 2pz  -0.73402     2 1s   -1.90060
                                    2 2px   1.79326     2 2py  -0.52456     2 2pz  -0.73394     3 1s    0.62065     6 1s   -0.62104
   15.1    -0.00000     0.69909     1 2px  -0.53472     1 2px   0.90495     2 2px   0.53474     2 2px  -0.90515     4 1s    0.25097
                                    4 1s   -0.48496     5 1s    0.25091     5 1s   -0.48492
   16.1    -0.00000     0.75620     1 1s   -0.43327     1 2py  -0.36642     1 2px  -0.66694     1 2py   0.80684     2 1s    0.43270
                                    2 2py  -0.36687     2 2px  -0.66714     2 2py   0.80806     3 1s   -0.48306     4 1s    0.26062
                                    5 1s   -0.26093     6 1s    0.48315
   17.1    -0.00000     0.78851     1 2py  -0.56225     1 2pz  -0.26147     1 2py   1.21567     1 2pz   0.30903     2 2py   0.56190
                                    2 2pz   0.26050     2 2py  -1.21477     2 2pz  -0.30775     4 1s    0.28647     5 1s    0.28600
   18.1    -0.00000     0.79988     1 1s   -0.36387     1 2pz  -0.72999     1 2pz   0.77371     2 1s    0.36371     2 2pz  -0.73043
                                    2 2pz   0.77428
   19.1    -0.00000     0.86301     1 1s   -0.31346     1 2px  -0.25422     1 2pz  -0.66157     1 2px   0.49213     1 2py  -0.54892
                                    1 2pz   1.01274     2 1s   -0.31342     2 2px   0.25412     2 2pz   0.66145     2 2px  -0.49178
                                    2 2py   0.54854     2 2pz  -1.01277     3 1s    0.27755     6 1s    0.27745
   20.1    -0.00000     0.98074     1 2px   0.71337     1 2py   0.37856     1 2px  -1.07052     1 2py  -0.79411     2 2px   0.71341
                                    2 2py   0.37861     2 2px  -1.07065     2 2py  -0.79421     4 1s   -1.01379     5 1s    1.01377
   21.1    -0.00000     1.09382     1 1s   -0.64259     1 1s    1.16448     1 2px   0.27994     1 2py   0.41956     1 2px  -0.35946
                                    1 2py  -0.43120     2 1s   -0.64290     2 1s    1.16545     2 2px  -0.27972     2 2py  -0.41994
                                    2 2px   0.35897     2 2py   0.43185     4 1s    0.66188     4 1s   -1.15930     5 1s    0.66219
                                    5 1s   -1.15995
   22.1    -0.00000     1.12349     1 1s    0.26053     1 2px  -0.26882     1 2py   0.61262     1 2px   0.28734     1 2py  -0.85284
                                    2 1s   -0.26026     2 2px  -0.26873     2 2py   0.61209     2 2px   0.28739     2 2py  -0.85242
                                    3 1s   -0.25326     3 1s    0.75375     4 1s    0.62810     4 1s   -1.04889     5 1s   -0.62772
                                    5 1s    1.04811     6 1s    0.25245     6 1s   -0.75300
   23.1    -0.00000     1.15769     1 1s   -0.32741     1 2px   0.36501     1 2px  -1.05471     1 2py   0.46198     2 1s    0.32539
                                    2 2px   0.36407     2 2px  -1.05388     2 2py   0.46105     3 1s    0.58316     3 1s   -1.14310
                                    4 1s    0.49390     4 1s   -0.50374     5 1s   -0.49394     5 1s    0.50385     6 1s   -0.58024
                                    6 1s    1.13939
   24.1    -0.00000     1.19188     1 1s   -0.54166     1 1s    0.82967     1 2px   0.27733     1 2py  -0.32177     1 2py   0.29024
                                    2 1s   -0.54195     2 1s    0.82645     2 2px  -0.27889     2 2py   0.32290     2 2py  -0.29315
                                    3 1s    0.78882     3 1s   -1.02792     6 1s    0.79126     6 1s   -1.03258
   25.1    -0.00000     1.24991     1 1s   -1.24443     1 1s    2.22942     1 2px  -0.55320     1 2py   0.56532     1 2pz  -0.99008
                                    2 1s   -1.24447     2 1s    2.22978     2 2px   0.55337     2 2py  -0.56549     2 2pz   0.99011
                                    3 1s   -0.37996     3 1s   -0.96897     4 1s   -0.39315     4 1s   -0.40400     5 1s   -0.39310
                                    5 1s   -0.40400     6 1s   -0.37988     6 1s   -0.96947
   26.1    -0.00000     1.28020     1 1s   -1.60714     1 1s    5.11907     1 2px   1.26348     1 2py  -0.73116     1 2pz  -1.20944
                                    2 1s    1.60736     2 1s   -5.11950     2 2px   1.26330     2 2py  -0.73100     2 2pz  -1.20949
                                    3 1s   -0.47101     4 1s   -0.63271     5 1s    0.63249     6 1s    0.47174
   27.1    -0.00000     1.69033     1 1s    0.61662     1 3d0   0.34330     1 3d2- -0.30124     1 3d2+ -0.32810     2 1s   -0.61657
                                    2 3d0  -0.34323     2 3d2-  0.30121     2 3d2+  0.32818
   28.1    -0.00000     1.91635     1 1s    0.30741     1 1s   -0.65283     1 2pz   0.34391     1 3d0   0.35313     1 3d1+  0.33715
                                    1 3d2+  0.35200     1 3d1-  0.31677     2 1s    0.30694     2 1s   -0.65093     2 2pz  -0.34340
                                    2 3d0   0.35304     2 3d1+  0.33765     2 3d2+  0.35219     2 3d1-  0.31724     3 1s    0.27393
                                    6 1s    0.27405
   29.1    -0.00000     1.93657     1 1s   -0.30523     1 1s    1.35487     1 2px   0.31219     1 2pz  -0.35147     1 3d2- -0.30485
                                    1 3d1+  0.39776     1 3d1-  0.38235     2 1s    0.30563     2 1s   -1.35580     2 2px   0.31192
                                    2 2pz  -0.35195     2 3d2-  0.30474     2 3d1+ -0.39729     2 3d1- -0.38198     3 1s   -0.33095
                                    6 1s    0.33130
   30.1    -0.00000     2.18149     1 1s   -0.35027     1 1s    1.63494     1 2px   0.37550     1 2py  -0.27799     1 2pz  -0.43627
                                    1 3d0  -0.56937     1 3d2+ -0.35856     2 1s    0.35043     2 1s   -1.63517     2 2px   0.37556
                                    2 2py  -0.27815     2 2pz  -0.43635     2 3d0   0.56953     2 3d2+  0.35849     3 1s   -0.35169
                                    4 1s   -0.32499     5 1s    0.32514     6 1s    0.35165
   31.1    -0.00000     2.24659     1 1s    0.48991     1 1s   -0.32678     1 2px   0.26775     1 2px  -0.28875     1 3d2-  0.31417
                                    1 3d1+  0.39496     1 3d2+ -0.38841     2 1s    0.48982     2 1s   -0.32634     2 2px  -0.26774
                                    2 2px   0.28866     2 3d2-  0.31413     2 3d1+  0.39496     2 3d2+ -0.38848
   32.1    -0.00000     2.34305     1 2py   0.37909     1 3d0   0.51290     1 3d2- -0.36449     1 3d1- -0.37716     2 2py  -0.37892
                                    2 3d0   0.51268     2 3d2- -0.36452     2 3d1- -0.37702     3 1s   -0.28911     4 1s    0.38886
                                    5 1s    0.38863     6 1s   -0.28922
   33.1    -0.00000     2.57538     1 1s   -0.28190     1 2py   0.29768     1 3d2- -0.48298     1 3d1- -0.59897     2 1s    0.28189
                                    2 2py   0.29796     2 3d2-  0.48234     2 3d1-  0.59924     3 1s   -0.48816     4 1s    0.40392
                                    5 1s   -0.40408     6 1s    0.48798
   34.1    -0.00000     2.63628     1 2py   0.32619     1 3d2-  0.45300     1 3d2+  0.51244     1 3d1- -0.50577     2 2py  -0.32595
                                    2 3d2-  0.45336     2 3d2+  0.51236     2 3d1- -0.50530     4 1s    0.35068     5 1s    0.35033
   35.1    -0.00000     2.72425     1 3d0  -0.41636     1 3d2- -0.46961     1 3d1+  0.50170     1 3d1- -0.27470     2 3d0  -0.41638
                                    2 3d2- -0.47014     2 3d1+  0.50180     2 3d1- -0.27520     3 1s   -0.46743     6 1s   -0.46809
   36.1    -0.00000     2.95589     1 1s   -1.75076     1 2px  -0.43007     1 2px  -0.88619     1 2pz   0.44811     1 3d2-  0.34500
                                    1 3d1+  0.69950     1 3d2+ -0.64215     2 1s    1.75074     2 2px  -0.43007     2 2px  -0.88620
                                    2 2pz   0.44810     2 3d2- -0.34496     2 3d1+ -0.69954     2 3d2+  0.64213


 Natural orbital dump (state averaged) at molpro section  2140.2    (Orbital set 2)



 **********************************************************************************************************************************
 DATASETS  * FILE   NREC   LENGTH (MB)   RECORD NAMES
              1      20       31.86       500      610      700      900      950      970     1000      129      960     1100   
                                          VAR    BASINP    GEOM    SYMINP    ZMAT    AOBASIS   BASIS     P2S    ABASIS      S 
                                         1400     1410     1200     1210     1080     1600     1650     1300     1700     1380   
                                           T        V       H0       H01     AOSYM     SMH    MOLCAS    ERIS     OPER     JKOP   

              2       5        5.42       700     1000      520     2100     2140   
                                         GEOM     BASIS   MCVARS     RHF     MCSCF   

 PROGRAMS   *        TOTAL     MULTI    HF-SCF       INT
 CPU TIMES  *         0.70      0.31      0.10      0.19
 REAL TIME  *         0.96 SEC
 DISK USED  *        39.04 MB
 **********************************************************************************************************************************
 Molecular orbitals read from record     2140.2  Type=MCSCF/NATURAL (state averaged)
 Occupation numbers read from record     2140.2  Type=MCSCF/NATURAL (state averaged)
 Orbital energies read from record       2140.2  Type=MCSCF/NATURAL (state averaged)
 Redundancy group numbers read from rec  2140.2  Type=MCSCF/NATURAL (state averaged)

 MULTI/6-31G* energy=    -77.552260661071

           MULTI          HF-SCF
    -77.55226066    -77.84849210
 **********************************************************************************************************************************
 Molpro calculation terminated
