
 Primary working directories    : /scratch.local/johan406.molpro_temp/molpro.mWjhKNrfLX
 Secondary working directories  : /scratch.local/johan406.molpro_temp/molpro.mWjhKNrfLX
 Wavefunction directory         : /home/goodpast/johan406/wfu/
 Main file repository           : /scratch.local/johan406.molpro_temp/molpro.mWjhKNrfLX/

 id        : roweumn

 Nodes     nprocs
 acn09        1

 Using customized tuning parameters: mindgm=1; mindgv=20; mindgc=4; mindgr=1; noblas=0; minvec=7
 default implementation of scratch files=df  


 Variables initialized (934), CPU time= 0.00 sec
                                                                                 !leave this line blank
 
 gprint, orbitals=30
 memory, 125., m
 symmetry, nosym
 nelect=16
 basis=6-31g*
 
 geometry={
 C -0.6218 0.1331 0.301
 C 0.6319 -0.1829 -0.3613
 H -1.3158 0.9556 -0.1874
 H -0.9575 -0.8627 -0.1351
 H 0.9676 0.8128 0.0747
 H 1.3224 -1.0032 0.1258
 }
 
 hf
 {multi,
 closed 7
 occ 9
 wf,spin=0;STATE,3
 }
 
 Commands  initialized (763), CPU time= 0.01 sec, 617 directives.
 Default parameters read. Elapsed time= 0.08 sec

 Checking input...
 Passed
1


                                         ***  PROGRAM SYSTEM MOLPRO  ***
                                       Copyright, TTI GmbH Stuttgart, 2015
                                    Version 2019.2 linked Oct 25 2019 22:50:27


 **********************************************************************************************************************************
 LABEL *                                                                                 
  64 bit serial version                                                                  DATE: 07-Feb-23          TIME: 16:02:14  
 **********************************************************************************************************************************

 SHA1:             8dbd9ae1082e4ce945b0f27595c9eb2d4aa09004
 **********************************************************************************************************************************


 Variable memory set to  125000000 words,  buffer space 

 SETTING NELECT         =        16.00000000                                  
 SETTING BASIS          =    6-31G*
 ZSYMEL=NOSYM


Geometry recognized as XYZ



 Recomputing integrals since basis changed


 Using spherical harmonics

 Library entry C      S 6-31G                selected for orbital group  1
 Library entry C      P 6-31G                selected for orbital group  1
 Library entry C      D 6-31G*               selected for orbital group  1
 Library entry H      S 6-31G                selected for orbital group  2


 PROGRAM * SEWARD (Integral evaluation for generally contracted gaussian basis sets)     Author: Roland Lindh, 1990

 Geometry written to block  1 of record 700


 Point group  C1  



 ATOMIC COORDINATES

 NR  ATOM    CHARGE       X              Y              Z

   1  C       6.00   -1.175031704    0.251522547    0.568807563
   2  C       6.00    1.194117938   -0.345630908   -0.682758049
   3  H       1.00   -2.486501635    1.805822285   -0.354134676
   4  H       1.00   -1.809412764   -1.630266728   -0.255301999
   5  H       1.00    1.828498998    1.535969394    0.141162542
   6  H       1.00    2.498973827   -1.895773248    0.237727546

 Bond lengths in Bohr (Angstrom)

 1-2  2.745155507  1-3  2.233298777  1-4  2.150052738  2-5  2.149814914  2-6  2.225507559
     ( 1.452673735)     ( 1.181810818)     ( 1.137758911)     ( 1.137633060)     ( 1.177687883)

 Bond angles

  1-2-5   83.65852795   1-2-6  117.96655529   2-1-3  118.01997792   2-1-4   83.65582001

  3-1-4  106.10872835   5-2-6  106.14703391

 NUCLEAR CHARGE:                   16
 NUMBER OF PRIMITIVE AOS:          72
 NUMBER OF SYMMETRY AOS:           70
 NUMBER OF CONTRACTIONS:           36   (   36A   )
 NUMBER OF CORE ORBITALS:           2   (    2A   )
 NUMBER OF VALENCE ORBITALS:       12   (   12A   )


 NUCLEAR REPULSION ENERGY   31.92771698

 Eigenvalues of metric

         1 0.914E-02 0.323E-01 0.613E-01 0.756E-01 0.825E-01 0.225E+00 0.236E+00 0.272E+00


 Contracted 2-electron integrals neglected if value below      1.0D-11
 AO integral compression algorithm  1   Integral accuracy      1.0D-11

     1.573 MB (compressed) written to integral file ( 58.9%)


 NUMBER OF SORTED TWO-ELECTRON INTEGRALS:     222111.     BUFFER LENGTH:  32768
 NUMBER OF SEGMENTS:   1  SEGMENT LENGTH:     222111      RECORD LENGTH: 524288

 Memory used in sort:       0.78 MW

 SORT1 READ      284735. AND WROTE      212530. INTEGRALS IN      1 RECORDS. CPU TIME:     0.00 SEC, REAL TIME:     0.01 SEC
 SORT2 READ      212530. AND WROTE      222111. INTEGRALS IN      6 RECORDS. CPU TIME:     0.02 SEC, REAL TIME:     0.03 SEC

 FILE SIZES:   FILE 1:    31.7 MBYTE,  FILE 4:     4.2 MBYTE,   TOTAL:     35.9 MBYTE

 OPERATOR DM      FOR CENTER  0  COORDINATES:    0.000000    0.000000    0.000000


 **********************************************************************************************************************************
 DATASETS  * FILE   NREC   LENGTH (MB)   RECORD NAMES
              1      19       31.13       500      610      700      900      950      970     1000      129      960     1100   
                                          VAR    BASINP    GEOM    SYMINP    ZMAT    AOBASIS   BASIS     P2S    ABASIS      S 
                                         1400     1410     1200     1210     1080     1600     1650     1300     1700   
                                           T        V       H0       H01     AOSYM     SMH    MOLCAS    ERIS     OPER   

 PROGRAMS   *        TOTAL       INT
 CPU TIMES  *         0.29      0.18
 REAL TIME  *         0.55 SEC
 DISK USED  *        36.24 MB
 **********************************************************************************************************************************


 PROGRAM * RHF-SCF (CLOSED SHELL)       Authors: W. Meyer, H.-J. Werner


 NUMBER OF ELECTRONS:       8+    8-    SPACE SYMMETRY=1    SPIN SYMMETRY: Singlet 
 CONVERGENCE THRESHOLDS:    1.00E-05 (Density)    1.00E-07 (Energy)
 MAX. NUMBER OF ITERATIONS:       60
 INTERPOLATION TYPE:            DIIS
 INTERPOLATION STEPS:              2 (START)      1 (STEP)
 LEVEL SHIFTS:                  0.00 (CLOSED)  0.00 (OPEN) 



 Orbital guess generated from atomic densities. Full valence occupancy:    8

 Molecular orbital dump at record        2100.2

 Initial occupancy:   8

 ITERATION    DDIFF          GRAD             ENERGY        2-EL.EN.            DIPOLE MOMENTS         DIIS   ORB.
    1      0.000D+00      0.000D+00       -77.81838194    115.185598   -0.00304    0.00175    0.00128    0    start
    2      0.000D+00      0.692D-02       -77.83588383    114.134416    0.00063   -0.00093   -0.00170    1    diag
    3      0.717D-02      0.228D-02       -77.83790328    114.573310   -0.00095    0.00006    0.00100    2    diag
    4      0.296D-02      0.827D-03       -77.83833475    114.436829    0.00079   -0.00102   -0.00125    3    diag
    5      0.157D-02      0.280D-03       -77.83845769    114.444661   -0.00083    0.00003    0.00143    4    diag
    6      0.935D-03      0.131D-03       -77.83849291    114.446151    0.00218   -0.00186   -0.00329    5    diag
    7      0.430D-03      0.834D-04       -77.83850454    114.447079   -0.00001   -0.00047    0.00016    6    diag
    8      0.288D-03      0.271D-04       -77.83850618    114.448064    0.00033   -0.00069   -0.00039    7    diag
    9      0.128D-03      0.692D-05       -77.83850627    114.448166    0.00031   -0.00068   -0.00036    8    diag
   10      0.298D-04      0.189D-05       -77.83850627    114.448153    0.00031   -0.00068   -0.00036    9    orth
   11      0.494D-05      0.434D-06       -77.83850627    114.448159    0.00031   -0.00068   -0.00036    0    orth

 Final occupancy:   8

 !RHF STATE  1.1 Energy               -77.838506272184
 Nuclear energy                        31.92771698
 One-electron energy                 -166.99030293
 Two-electron energy                   57.22407968
 Virial quotient                       -1.00353050
 !RHF STATE  1.1 Dipole moment          0.00030786    -0.00067770    -0.00035894
 Dipole moment /Debye                   0.00078246    -0.00172243    -0.00091226

 ELECTRON ORBITALS
 =================

  Orbital  Occupation    Energy     Coefficients
    1.1     2.00000   -11.26759     1 1s    0.83076     2 1s    0.54989
    2.1     2.00000   -11.26664     1 1s   -0.55003     2 1s    0.83085
    3.1     2.00000    -1.03468     1 1s    0.28215     2 1s    0.28264
    4.1     2.00000    -0.76242     1 1s   -0.31158     2 1s    0.31079
    5.1     2.00000    -0.61630     1 2py   0.30592     2 2py   0.30834
    6.1     2.00000    -0.54057     1 2px   0.30061     2 2px  -0.30045
    7.1     2.00000    -0.39383     1 2pz   0.30760     1 2pz   0.28263     2 2pz   0.30900     2 2pz   0.28358
    8.1     2.00000    -0.38904     1 2px   0.26613     2 2px  -0.26782     4 1s   -0.28385     5 1s   -0.28395
    9.1     0.00000     0.06072     1 1s    0.41916     1 2pz   0.32458     1 2pz   0.44921     2 1s    0.41693     2 2pz  -0.32491
                                    2 2pz  -0.45008
   10.1     0.00000     0.23270     1 1s   -1.06867     1 2px   0.48998     1 2py   0.34418     1 2pz   0.45841     2 1s   -1.05800
                                    2 2px  -0.48936     2 2py  -0.34721     2 2pz  -0.45478     3 1s    0.56285     4 1s    1.08405
                                    5 1s    1.08355     6 1s    0.55190
   11.1     0.00000     0.25424     1 1s   -1.29017     1 2py  -0.35229     1 2pz   0.39692     2 1s    1.30050     2 2py  -0.33456
                                    2 2pz   0.39448     3 1s    1.28215     6 1s   -1.27340
   12.1     0.00000     0.30340     1 1s   -0.50141     1 2px   0.33798     1 2py  -0.97292     1 2pz   0.41241     2 1s   -0.53682
                                    2 2px  -0.33646     2 2py   0.98005     2 2pz  -0.42273     3 1s    1.32313     4 1s   -0.47096
                                    5 1s   -0.46999     6 1s    1.35370
   13.1     0.00000     0.33695     1 1s   -1.09217     1 2px   0.26455     1 2py   0.76986     1 2pz   0.33259     2 1s    1.09249
                                    2 2px   0.26456     2 2py   0.77052     2 2pz   0.33249     4 1s    1.71927     5 1s   -1.71997
   14.1     0.00000     0.42235     1 1s    2.22075     1 2px   1.77413     1 2py  -0.56617     1 2pz  -0.84535     2 1s   -2.21721
                                    2 2px   1.77590     2 2py  -0.56961     2 2pz  -0.84376     3 1s    0.45167     6 1s   -0.45660
   15.1     0.00000     0.69972     1 2px   0.54235     1 2px  -0.89342     2 2px  -0.54322     2 2px   0.89423     4 1s    0.43819
                                    5 1s    0.43809
   16.1     0.00000     0.77955     1 1s   -0.61267     1 2py  -0.37472     1 2px  -0.53983     1 2py   0.74724     1 2pz   0.29124
                                    2 1s    0.59961     2 2py  -0.40666     2 2px  -0.54909     2 2py   0.81783     2 2pz   0.29858
                                    3 1s   -0.47241     4 1s    0.27870     5 1s   -0.29503     6 1s    0.47801
   17.1     0.00000     0.79297     1 2py   0.58674     1 2pz   0.34895     1 2py  -1.18580     1 2pz  -0.40711     2 2py  -0.56795
                                    2 2pz  -0.30408     2 2py   1.14609     2 2pz   0.35554     4 1s   -0.28311     5 1s   -0.26254
   18.1     0.00000     0.79992     1 2pz   0.71054     1 2px  -0.26058     1 2pz  -0.63330     2 2pz   0.73175     2 2px  -0.25669
                                    2 2pz  -0.66012
   19.1     0.00000     0.86957     1 1s   -0.38842     1 1s    0.26536     1 2px  -0.27727     1 2pz  -0.66010     1 2px   0.47496
                                    1 2py  -0.64807     1 2pz   0.87873     2 1s   -0.38703     2 1s    0.25111     2 2px   0.27468
                                    2 2pz   0.65695     2 2px  -0.46410     2 2py   0.63563     2 2pz  -0.88033     3 1s    0.25365
                                    6 1s    0.25020
   20.1     0.00000     0.97416     1 1s   -0.26605     1 2px   0.69976     1 2py   0.38814     1 2px  -1.11521     1 2py  -0.81509
                                    2 1s    0.26177     2 2px   0.69989     2 2py   0.38811     2 2px  -1.11546     2 2py  -0.81591
                                    4 1s   -1.07399     5 1s    1.07476
   21.1     0.00000     1.08420     1 1s   -0.29289     1 2px   0.46967     1 2py  -0.48210     1 2px  -0.88366     1 2py   0.79055
                                    2 2px   0.44894     2 2py  -0.46392     2 2px  -0.86296     2 2py   0.77765     3 1s    0.62103
                                    3 1s   -1.35724     6 1s   -0.55364     6 1s    1.27046
   22.1     0.00000     1.11294     1 1s   -0.67799     1 1s    1.08386     1 2px   0.26767     1 2px  -0.25880     2 1s   -0.69373
                                    2 1s    1.07884     2 2px  -0.30570     2 2px   0.33144     3 1s    0.71809     3 1s   -0.95637
                                    4 1s   -0.26011     6 1s    0.76805     6 1s   -1.06880
   23.1     0.00000     1.12726     1 1s   -0.49812     1 1s    0.93388     1 2py   0.43016     1 2px  -0.30097     1 2py  -0.42462
                                    2 1s   -0.49819     2 1s    0.94477     2 2py  -0.43672     2 2px   0.28785     2 2py   0.43656
                                    3 1s   -0.25712     4 1s    0.66557     4 1s   -1.14239     5 1s    0.66534     5 1s   -1.14681
                                    6 1s   -0.26324
   24.1     0.00000     1.17973     1 1s   -0.37421     1 1s    0.29560     1 2py   0.36976     1 2pz   0.25144     1 2px  -0.39812
                                    1 2py  -0.34727     2 1s    0.38249     2 1s   -0.30867     2 2py   0.36687     2 2pz   0.25356
                                    2 2px  -0.40217     2 2py  -0.34475     4 1s    0.79065     4 1s   -1.11414     5 1s   -0.79231
                                    5 1s    1.11677
   25.1     0.00000     1.25602     1 1s   -1.19565     1 1s    1.98421     1 2px  -0.52920     1 2py   0.51626     1 2pz  -0.96566
                                    2 1s   -1.21077     2 1s    2.04286     2 2px   0.51636     2 2py  -0.51198     2 2pz   0.97966
                                    3 1s   -0.42077     3 1s   -0.74242     4 1s   -0.37709     4 1s   -0.40642     5 1s   -0.37986
                                    5 1s   -0.41159     6 1s   -0.42043     6 1s   -0.75484
   26.1     0.00000     1.29429     1 1s   -1.56633     1 1s    5.08698     1 2px   1.35289     1 2py  -0.82580     1 2pz  -1.23523
                                    2 1s    1.55684     2 1s   -5.07283     2 2px   1.35764     2 2py  -0.82942     2 2pz  -1.22650
                                    3 1s   -0.25529     4 1s   -0.26972     4 1s   -0.66105     5 1s    0.26741     5 1s    0.65601
                                    6 1s    0.25484
   27.1     0.00000     1.69540     1 1s   -0.59050     1 3d0  -0.35545     1 3d2-  0.29566     1 3d2+  0.32051     2 1s    0.59157
                                    2 3d0   0.35550     2 3d2- -0.29555     2 3d2+ -0.32051
   28.1     0.00000     1.91051     1 1s    0.32178     1 1s   -0.65994     1 2pz   0.33964     1 3d0   0.36194     1 3d1+  0.31231
                                    1 3d2+  0.34142     1 3d1-  0.30622     2 1s    0.28023     2 1s   -0.49643     2 2pz  -0.29694
                                    2 3d0   0.34605     2 3d1+  0.35388     2 3d2+  0.35700     2 3d1-  0.34250
   29.1     0.00000     1.91900     1 1s   -0.35589     1 1s    1.47967     1 2px   0.35922     1 2pz  -0.37682     1 3d2- -0.33973
                                    1 3d1+  0.40006     1 3d1-  0.36235     2 1s    0.38983     2 1s   -1.54575     2 2px   0.34058
                                    2 2pz  -0.41280     2 3d2-  0.33619     2 3d1+ -0.36267     2 3d1- -0.32762     3 1s   -0.32980
                                    6 1s    0.35430
   30.1     0.00000     2.16279     1 1s   -0.32917     1 1s    1.43920     1 2px   0.32699     1 2pz  -0.38772     1 3d0  -0.53117
                                    1 3d2+ -0.36897     2 1s    0.33455     2 1s   -1.44724     2 2px   0.32839     2 2pz  -0.39115
                                    2 3d0   0.53526     2 3d2+  0.36805     3 1s   -0.31920     4 1s   -0.25983     5 1s    0.26365
                                    6 1s    0.31974
   31.1     0.00000     2.26293     1 1s    0.50042     1 1s   -0.33970     1 2px   0.26900     1 2px  -0.30653     1 3d2-  0.26700
                                    1 3d1+  0.40037     1 3d2+ -0.39005     2 1s    0.49809     2 1s   -0.32711     2 2px  -0.26896
                                    2 2px   0.30297     2 3d2-  0.26638     2 3d1+  0.39966     2 3d2+ -0.39222
   32.1     0.00000     2.34059     1 2py   0.34083     1 3d0   0.47979     1 3d2- -0.43083     1 3d1- -0.35689     2 2py  -0.33612
                                    2 3d0   0.47427     2 3d2- -0.42947     2 3d1- -0.35237     3 1s   -0.26187     4 1s    0.43248
                                    5 1s    0.42633     6 1s   -0.26353
   33.1     0.00000     2.53133     1 1s   -0.62157     1 2px  -0.26919     1 2py   0.33793     1 3d2- -0.43377     1 3d1- -0.59811
                                    2 1s    0.61895     2 2px  -0.27184     2 2py   0.34302     2 3d2-  0.42814     2 3d1-  0.60139
                                    3 1s   -0.36043     4 1s    0.46382     5 1s   -0.46540     6 1s    0.36125
   34.1     0.00000     2.64606     1 2py   0.27350     1 3d2-  0.58386     1 3d2+  0.38873     1 3d1- -0.38625     2 2py  -0.27074
                                    2 3d2-  0.58959     2 3d2+  0.38786     2 3d1- -0.37965     4 1s    0.26172     5 1s    0.25749
   35.1     0.00000     2.67183     1 3d0  -0.41204     1 3d1+  0.44129     1 3d2+  0.36829     1 3d1- -0.41076     2 3d0  -0.41135
                                    2 3d1+  0.44294     2 3d2+  0.36912     2 3d1- -0.41885     3 1s   -0.29760     4 1s    0.31056
                                    5 1s    0.31567     6 1s   -0.30570
   36.1     0.00000     2.96724     1 1s    1.73692     1 2px   0.44311     1 2px   0.87213     1 2pz  -0.44750     1 3d2- -0.34987
                                    1 3d1+ -0.70191     1 3d2+  0.64824     2 1s   -1.73666     2 2px   0.44321     2 2px   0.87225
                                    2 2pz  -0.44737     2 3d2-  0.34912     2 3d1+  0.70240     2 3d2+ -0.64821


 HOMO      8.1    -0.389040 =     -10.5863eV
 LUMO      9.1     0.060721 =       1.6523eV
 LUMO-HOMO         0.449762 =      12.2386eV


 **********************************************************************************************************************************
 DATASETS  * FILE   NREC   LENGTH (MB)   RECORD NAMES
              1      19       31.13       500      610      700      900      950      970     1000      129      960     1100   
                                          VAR    BASINP    GEOM    SYMINP    ZMAT    AOBASIS   BASIS     P2S    ABASIS      S 
                                         1400     1410     1200     1210     1080     1600     1650     1300     1700   
                                           T        V       H0       H01     AOSYM     SMH    MOLCAS    ERIS     OPER   

              2       4        2.86       700     1000      520     2100   
                                         GEOM     BASIS   MCVARS     RHF  

 PROGRAMS   *        TOTAL    HF-SCF       INT
 CPU TIMES  *         0.40      0.11      0.18
 REAL TIME  *         0.78 SEC
 DISK USED  *        36.24 MB
 **********************************************************************************************************************************


 PROGRAM * MULTI (Direct Multiconfiguration SCF)       Authors: P.J. Knowles, H.-J. Werner (1984)


 Number of closed-shell orbitals:   7 (   7 )
 Number of active  orbitals:        2 (   2 )
 Number of external orbitals:      27 (  27 )

 State symmetry 1

 Number of electrons:     2    Spin symmetry=Singlet   Space symmetry=1
 Number of states:        3
 Number of CSFs:          3   (4 determinants, 4 intermediate states)

 Molecular orbitals read from record     2100.2  Type=RHF/CANONICAL (state 1.1)

 Wavefunction dump at record             2140.2

 Convergence thresholds  0.10E-01 (gradient)  0.10E-05 (energy)  0.10E-02 (step length)

 Weight factors for state symmetry  1:    0.33333   0.33333   0.33333

 Number of orbital rotations:      257   (    14 Core/Active    189 Core/Virtual   0 Active/Active     54 Active/Virtual)
 Total number of variables:        269

 Micro-Iterations solved by the two-step solver

 ITER. MIC  NCI  NEG     ENERGY(VAR)     ENERGY(PROJ)   ENERGY CHANGE     GRAD(0)  GRAD(ORB)   GRAD(CI)     STEP       TIME

   1    7    5    0     -77.68008753     -77.70006717   -0.01997964    0.16637348 0.00200845 0.00000000  0.15D+00      0.12
   2    6    5    0     -77.69971080     -77.69973653   -0.00002572    0.00743854 0.00000649 0.00000000  0.52D-02      0.21
   3    5    4    0     -77.69973657     -77.69973657   -0.00000000    0.00001741 0.00000000 0.00000000  0.24D-04      0.29

 ** WVFN ****  CONVERGENCE REACHED, FINAL GRADIENT:  0.30D-09



 Results for state 1.1
 =====================

 !MCSCF STATE  1.1 Energy             -77.832132914611
 Nuclear energy                        31.92771698
 Kinetic energy                        77.62502754
 One electron energy                 -167.07968674
 Two electron energy                   57.31983684
 Virial ratio                           2.00266802

 !MCSCF STATE  1.1 Dipole moment        0.00031343    -0.00051878    -0.00036658
 Dipole moment /Debye                   0.00079660    -0.00131853    -0.00093169

 Results for state 2.1
 =====================

 !MCSCF STATE  2.1 Energy             -77.727303747384
 Nuclear energy                        31.92771698
 Kinetic energy                        77.69588884
 One electron energy                 -166.75235723
 Two electron energy                   57.09733650
 Virial ratio                           2.00040433

 !MCSCF STATE  2.1 Dipole moment        0.00037301    -0.00104243     0.00014568
 Dipole moment /Debye                   0.00094803    -0.00264942     0.00037026

 Results for state 3.1
 =====================

 !MCSCF STATE  3.1 Energy             -77.539773061692
 Nuclear energy                        31.92771698
 Kinetic energy                        77.74986253
 One electron energy                 -166.46637674
 Two electron energy                   56.99888669
 Virial ratio                           1.99729788

 !MCSCF STATE  3.1 Dipole moment        0.00095949    -0.00182120     0.00053157
 Dipole moment /Debye                   0.00243862    -0.00462872     0.00135104

 State-averaged charge density matrix saved on record  2140.2 (density set 1)

 !MCSCF expec         <1.1|DMX|1.1>     0.000313427531 au =     0.000796601143 Debye
 !MCSCF trans         <2.1|DMX|1.1>    -0.001110069829 au =    -0.002821331276 Debye
 !MCSCF expec         <2.1|DMX|2.1>     0.000373008468 au =     0.000948030862 Debye
 !MCSCF trans         <3.1|DMX|1.1>     0.000057726938 au =     0.000146717630 Debye
 !MCSCF trans         <3.1|DMX|2.1>    -0.001194515933 au =    -0.003035957804 Debye
 !MCSCF expec         <3.1|DMX|3.1>     0.000959489981 au =     0.002438620545 Debye

 !MCSCF expec         <1.1|DMY|1.1>    -0.000518784039 au =    -0.001318531138 Debye
 !MCSCF trans         <2.1|DMY|1.1>     0.000557235882 au =     0.001416259572 Debye
 !MCSCF expec         <2.1|DMY|2.1>    -0.001042428543 au =    -0.002649415536 Debye
 !MCSCF trans         <3.1|DMY|1.1>     0.000018735341 au =     0.000047617369 Debye
 !MCSCF trans         <3.1|DMY|2.1>     0.000560423014 au =     0.001424359923 Debye
 !MCSCF expec         <3.1|DMY|3.1>    -0.001821199156 au =    -0.004628723350 Debye

 !MCSCF expec         <1.1|DMZ|1.1>    -0.000366577881 au =    -0.000931687011 Debye
 !MCSCF trans         <2.1|DMZ|1.1>     0.000245229445 au =     0.000623270253 Debye
 !MCSCF expec         <2.1|DMZ|2.1>     0.000145682893 au =     0.000370264726 Debye
 !MCSCF trans         <3.1|DMZ|1.1>    -0.000063528083 au =    -0.000161461704 Debye
 !MCSCF trans         <3.1|DMZ|2.1>     0.000305604088 au =     0.000776717238 Debye
 !MCSCF expec         <3.1|DMZ|3.1>     0.000531574042 au =     0.001351037954 Debye


 NATURAL ORBITALS (state averaged)
 =================================

  Orbital  Occupation    Energy     Coefficients
    1.1     2.00000   -11.26341     1 1s    0.85727     2 1s    0.50754
    2.1     2.00000   -11.26253     1 1s   -0.50763     2 1s    0.85732
    3.1     2.00000    -1.04922     1 1s    0.27746     2 1s    0.27786
    4.1     2.00000    -0.76494     1 1s   -0.33573     2 1s    0.33507
    5.1     2.00000    -0.61883     1 2py   0.29849     2 2py   0.30113
    6.1     2.00000    -0.53835     1 2px   0.25706     2 2px  -0.25675
    7.1     2.00000    -0.42151     1 2pz   0.32413     1 2pz   0.27791     2 2pz   0.32430     2 2pz   0.27808
    8.1     1.00000    -0.23357     1 2px   0.30770     2 2px  -0.30784     4 1s   -0.29270     5 1s   -0.29256
    9.1     1.00000    -0.08834     1 1s    0.28248     1 2pz   0.40044     1 2pz   0.42028     2 1s    0.28137     2 2pz  -0.40068
                                    2 2pz  -0.42075
   10.1    -0.00000     0.21989     1 1s   -1.08211     1 2px   0.48415     1 2py   0.36277     1 2pz   0.39286     2 1s   -1.07489
                                    2 2px  -0.48378     2 2py  -0.36428     2 2pz  -0.39035     3 1s    0.53056     4 1s    1.09888
                                    5 1s    1.09763     6 1s    0.52375
   11.1    -0.00000     0.25270     1 1s   -1.34020     1 2py  -0.31980     1 2pz   0.40247     2 1s    1.34562     2 2py  -0.30358
                                    2 2pz   0.39935     3 1s    1.27675     6 1s   -1.26577
   12.1    -0.00000     0.30499     1 1s   -0.56354     1 2px   0.34085     1 2py  -0.96740     1 2pz   0.38531     2 1s   -0.60351
                                    2 2px  -0.34000     2 2py   0.97084     2 2pz  -0.39680     3 1s    1.34774     4 1s   -0.42653
                                    5 1s   -0.41786     6 1s    1.37734
   13.1    -0.00000     0.32012     1 1s   -1.19077     1 2py   0.82937     1 2pz   0.37098     2 1s    1.18844     2 2py   0.83410
                                    2 2pz   0.36943     4 1s    1.73286     5 1s   -1.73537
   14.1    -0.00000     0.42833     1 1s    2.07162     1 2px   1.78405     1 2py  -0.46044     1 2pz  -0.78353     2 1s   -2.06818
                                    2 2px   1.78576     2 2py  -0.46378     2 2pz  -0.78201     3 1s    0.45553     6 1s   -0.46030
   15.1    -0.00000     0.69536     1 2px   0.52695     1 2px  -0.87250     2 2px  -0.52768     2 2px   0.87316     4 1s   -0.26045
                                    4 1s    0.49178     5 1s   -0.25972     5 1s    0.49176
   16.1    -0.00000     0.77602     1 1s   -0.76476     1 2py  -0.36420     1 2px  -0.60314     1 2py   0.77365     1 2pz   0.34549
                                    2 1s    0.75453     2 2py  -0.39057     2 2px  -0.61303     2 2py   0.83466     2 2pz   0.35285
                                    3 1s   -0.46751     4 1s    0.29544     5 1s   -0.30994     6 1s    0.47262
   17.1    -0.00000     0.79145     1 2py   0.55947     1 2pz   0.33951     1 2py  -1.16507     1 2pz  -0.47065     2 2py  -0.54457
                                    2 2pz  -0.30067     2 2py   1.12926     2 2pz   0.42067     4 1s   -0.28309     5 1s   -0.26484
   18.1    -0.00000     0.79979     1 2pz   0.70895     1 2pz  -0.68719     2 2pz   0.72762     2 2pz  -0.71499
   19.1    -0.00000     0.86669     1 1s   -0.34799     1 2px  -0.29077     1 2pz  -0.63657     1 2px   0.50808     1 2py  -0.64865
                                    1 2pz   0.92633     2 1s   -0.34674     2 2px   0.28828     2 2pz   0.63311     2 2px  -0.49666
                                    2 2py   0.63616     2 2pz  -0.92795     3 1s    0.29797     6 1s    0.29420
   20.1    -0.00000     0.98006     1 2px   0.69090     1 2py   0.39972     1 2px  -1.03018     1 2py  -0.84007     2 2px   0.69097
                                    2 2py   0.39967     2 2px  -1.03037     2 2py  -0.84100     4 1s   -1.04100     5 1s    1.04185
   21.1    -0.00000     1.08779     1 1s   -0.26360     1 2px   0.50008     1 2py  -0.48119     1 2px  -0.90766     1 2py   0.78457
                                    2 2px   0.47201     2 2py  -0.47614     2 2px  -0.87874     2 2py   0.78604     3 1s    0.60119
                                    3 1s   -1.33152     5 1s   -0.25959     6 1s   -0.53875     6 1s    1.25004
   22.1    -0.00000     1.09808     1 1s   -0.69668     1 1s    1.23071     1 2px   0.32424     1 2py   0.35975     1 2px  -0.36315
                                    1 2py  -0.39998     2 1s   -0.70619     2 1s    1.23458     2 2px  -0.34969     2 2py  -0.32996
                                    2 2px   0.40563     2 2py   0.35397     4 1s    0.66843     4 1s   -1.12406     5 1s    0.65495
                                    5 1s   -1.09930
   23.1    -0.00000     1.11996     1 1s   -0.41989     1 1s    0.60020     1 2py  -0.32856     1 2py   0.27859     2 1s   -0.41566
                                    2 1s    0.57181     2 2py   0.38159     2 2py  -0.35695     3 1s    0.76567     3 1s   -0.95605
                                    5 1s    0.29512     6 1s    0.79946     6 1s   -1.04017
   24.1    -0.00000     1.14027     1 1s   -0.39068     1 1s    0.32480     1 2py   0.36810     1 2px  -0.46147     1 2py  -0.33728
                                    2 1s    0.41430     2 1s   -0.36047     2 2py   0.35598     2 2pz   0.25252     2 2px  -0.47101
                                    2 2py  -0.32690     4 1s    0.78446     4 1s   -1.13630     5 1s   -0.78449     5 1s    1.13596
                                    6 1s    0.28693
   25.1    -0.00000     1.24830     1 1s   -1.22669     1 1s    2.04016     1 2px  -0.54118     1 2py   0.52468     1 2pz  -0.96045
                                    2 1s   -1.24180     2 1s    2.09804     2 2px   0.52881     2 2py  -0.52110     2 2pz   0.97409
                                    3 1s   -0.41917     3 1s   -0.75319     4 1s   -0.34566     4 1s   -0.45281     5 1s   -0.34816
                                    5 1s   -0.45775     6 1s   -0.41838     6 1s   -0.76632
   26.1    -0.00000     1.28756     1 1s   -1.57225     1 1s    5.09319     1 2px   1.37096     1 2py  -0.79840     1 2pz  -1.22117
                                    2 1s    1.56324     2 1s   -5.07977     2 2px   1.37554     2 2py  -0.80195     2 2pz  -1.21275
                                    3 1s   -0.26176     4 1s   -0.27109     4 1s   -0.63203     5 1s    0.26902     5 1s    0.62697
                                    6 1s    0.26187
   27.1    -0.00000     1.68950     1 1s   -0.62488     1 3d0  -0.34841     1 3d2-  0.30115     1 3d2+  0.32233     2 1s    0.62598
                                    2 3d0   0.34847     2 3d2- -0.30100     2 3d2+ -0.32230
   28.1    -0.00000     1.90696     1 1s    0.31380     1 1s   -0.65092     1 2pz   0.33481     1 3d0   0.35999     1 3d1+  0.30803
                                    1 3d2+  0.34717     1 3d1-  0.30506     2 1s    0.27210     2 1s   -0.48728     2 2pz  -0.29224
                                    2 3d0   0.34357     2 3d1+  0.35120     2 3d2+  0.36352     2 3d1-  0.34211
   29.1    -0.00000     1.91509     1 1s   -0.34784     1 1s    1.44215     1 2px   0.34719     1 2pz  -0.36574     1 3d2- -0.33612
                                    1 3d1+  0.40467     1 3d1-  0.36123     2 1s    0.38163     2 1s   -1.50873     2 2px   0.32764
                                    2 2pz  -0.40203     2 3d2-  0.33174     2 3d1+ -0.36678     2 3d1- -0.32562     3 1s   -0.33066
                                    6 1s    0.35579
   30.1    -0.00000     2.16227     1 1s   -0.33363     1 1s    1.43386     1 2px   0.32351     1 2pz  -0.38349     1 3d0  -0.53525
                                    1 3d2+ -0.37042     2 1s    0.33876     2 1s   -1.44168     2 2px   0.32483     2 2pz  -0.38679
                                    2 3d0   0.53937     2 3d2+  0.36970     3 1s   -0.32000     4 1s   -0.25639     5 1s    0.26028
                                    6 1s    0.32050
   31.1    -0.00000     2.25827     1 1s    0.49260     1 1s   -0.33627     1 2px   0.27292     1 2px  -0.29691     1 3d2-  0.29172
                                    1 3d1+  0.40764     1 3d2+ -0.39005     2 1s    0.49067     2 1s   -0.32616     2 2px  -0.27282
                                    2 2px   0.29403     2 3d2-  0.29119     2 3d1+  0.40714     2 3d2+ -0.39188
   32.1    -0.00000     2.33217     1 2py   0.36009     1 3d0   0.48245     1 3d2- -0.42105     1 3d1- -0.37343     2 2py  -0.35503
                                    2 3d0   0.47655     2 3d2- -0.41959     2 3d1- -0.36868     3 1s   -0.27538     4 1s    0.41875
                                    5 1s    0.41235     6 1s   -0.27719
   33.1    -0.00000     2.52477     1 1s   -0.60780     1 2px  -0.26121     1 2py   0.33894     1 3d2- -0.43629     1 3d1- -0.59937
                                    2 1s    0.60529     2 2px  -0.26397     2 2py   0.34432     2 3d2-  0.43161     2 3d1-  0.60304
                                    3 1s   -0.36289     4 1s    0.45380     5 1s   -0.45576     6 1s    0.36433
   34.1    -0.00000     2.63873     1 2py   0.30934     1 3d2-  0.54851     1 3d2+  0.43388     1 3d1- -0.44426     2 2py  -0.30724
                                    2 3d2-  0.55298     2 3d2+  0.43312     2 3d1- -0.43919     4 1s    0.29837     5 1s    0.29522
   35.1    -0.00000     2.67492     1 3d0  -0.44029     1 3d2- -0.28023     1 3d1+  0.47578     1 3d2+  0.30468     1 3d1- -0.35118
                                    2 3d0  -0.43980     2 3d2- -0.28776     2 3d1+  0.47726     2 3d2+  0.30563     2 3d1- -0.35940
                                    3 1s   -0.31814     4 1s    0.25887     5 1s    0.26389     6 1s   -0.32662
   36.1    -0.00000     2.96231     1 1s    1.76789     1 2px   0.43683     1 2px   0.88445     1 2pz  -0.45574     1 3d2- -0.34779
                                    1 3d1+ -0.70478     1 3d2+  0.64559     2 1s   -1.76763     2 2px   0.43692     2 2px   0.88458
                                    2 2pz  -0.45562     2 3d2-  0.34700     2 3d1+  0.70534     2 3d2+ -0.64555


 Natural orbital dump (state averaged) at molpro section  2140.2    (Orbital set 2)



 **********************************************************************************************************************************
 DATASETS  * FILE   NREC   LENGTH (MB)   RECORD NAMES
              1      20       31.86       500      610      700      900      950      970     1000      129      960     1100   
                                          VAR    BASINP    GEOM    SYMINP    ZMAT    AOBASIS   BASIS     P2S    ABASIS      S 
                                         1400     1410     1200     1210     1080     1600     1650     1300     1700     1380   
                                           T        V       H0       H01     AOSYM     SMH    MOLCAS    ERIS     OPER     JKOP   

              2       5        5.42       700     1000      520     2100     2140   
                                         GEOM     BASIS   MCVARS     RHF     MCSCF   

 PROGRAMS   *        TOTAL     MULTI    HF-SCF       INT
 CPU TIMES  *         0.74      0.34      0.11      0.18
 REAL TIME  *         1.16 SEC
 DISK USED  *        39.04 MB
 **********************************************************************************************************************************
 Molecular orbitals read from record     2140.2  Type=MCSCF/NATURAL (state averaged)
 Occupation numbers read from record     2140.2  Type=MCSCF/NATURAL (state averaged)
 Orbital energies read from record       2140.2  Type=MCSCF/NATURAL (state averaged)
 Redundancy group numbers read from rec  2140.2  Type=MCSCF/NATURAL (state averaged)

 MULTI/6-31G* energy=    -77.539773061692

           MULTI          HF-SCF
    -77.53977306    -77.83850627
 **********************************************************************************************************************************
 Molpro calculation terminated
