
 Primary working directories    : /scratch.local/johan406.molpro_temp/molpro.7Lv8gYJLo1
 Secondary working directories  : /scratch.local/johan406.molpro_temp/molpro.7Lv8gYJLo1
 Wavefunction directory         : /home/goodpast/johan406/wfu/
 Main file repository           : /scratch.local/johan406.molpro_temp/molpro.7Lv8gYJLo1/

 id        : roweumn

 Nodes     nprocs
 acn09        1

 Using customized tuning parameters: mindgm=1; mindgv=20; mindgc=4; mindgr=1; noblas=0; minvec=7
 default implementation of scratch files=df  


 Variables initialized (934), CPU time= 0.01 sec
                                                                                 !leave this line blank
 
 gprint, orbitals=30
 memory, 125., m
 symmetry, nosym
 nelect=16
 basis=6-31g*
 
 geometry={
 C -0.6215 0.1327 0.3011
 C 0.6316 -0.1826 -0.3615
 H -1.3192 0.9597 -0.1897
 H -0.9572 -0.8625 -0.135
 H 0.9674 0.8126 0.0746
 H 1.3256 -1.0071 0.128
 }
 
 hf
 {multi,
 closed 7
 occ 9
 wf,spin=0;STATE,3
 }
 
 Commands  initialized (763), CPU time= 0.01 sec, 617 directives.
 Default parameters read. Elapsed time= 0.07 sec

 Checking input...
 Passed
1


                                         ***  PROGRAM SYSTEM MOLPRO  ***
                                       Copyright, TTI GmbH Stuttgart, 2015
                                    Version 2019.2 linked Oct 25 2019 22:50:27


 **********************************************************************************************************************************
 LABEL *                                                                                 
  64 bit serial version                                                                  DATE: 07-Feb-23          TIME: 16:02:23  
 **********************************************************************************************************************************

 SHA1:             8dbd9ae1082e4ce945b0f27595c9eb2d4aa09004
 **********************************************************************************************************************************


 Variable memory set to  125000000 words,  buffer space 

 SETTING NELECT         =        16.00000000                                  
 SETTING BASIS          =    6-31G*
 ZSYMEL=NOSYM


Geometry recognized as XYZ



 Recomputing integrals since basis changed


 Using spherical harmonics

 Library entry C      S 6-31G                selected for orbital group  1
 Library entry C      P 6-31G                selected for orbital group  1
 Library entry C      D 6-31G*               selected for orbital group  1
 Library entry H      S 6-31G                selected for orbital group  2


 PROGRAM * SEWARD (Integral evaluation for generally contracted gaussian basis sets)     Author: Roland Lindh, 1990

 Geometry written to block  1 of record 700


 Point group  C1  



 ATOMIC COORDINATES

 NR  ATOM    CHARGE       X              Y              Z

   1  C       6.00   -1.174464786    0.250766657    0.568996536
   2  C       6.00    1.193551020   -0.345063990   -0.683135994
   3  H       1.00   -2.492926704    1.813570162   -0.358481046
   4  H       1.00   -1.808845846   -1.629888782   -0.255113027
   5  H       1.00    1.828121053    1.535591449    0.140973569
   6  H       1.00    2.505020951   -1.903143180    0.241884944

 Bond lengths in Bohr (Angstrom)

 1-2  2.744148118  1-3  2.245197383  1-4  2.149060442  2-5  2.149116232  2-6  2.236789636
     ( 1.452140647)     ( 1.188107289)     ( 1.137233811)     ( 1.137263334)     ( 1.183658101)

 Bond angles

  1-2-5   83.67441697   1-2-6  117.93689408   2-1-3  117.99466396   2-1-4   83.66987783

  3-1-4  106.10350150   5-2-6  106.13209456

 NUCLEAR CHARGE:                   16
 NUMBER OF PRIMITIVE AOS:          72
 NUMBER OF SYMMETRY AOS:           70
 NUMBER OF CONTRACTIONS:           36   (   36A   )
 NUMBER OF CORE ORBITALS:           2   (    2A   )
 NUMBER OF VALENCE ORBITALS:       12   (   12A   )


 NUCLEAR REPULSION ENERGY   31.89993158

 Eigenvalues of metric

         1 0.913E-02 0.327E-01 0.612E-01 0.766E-01 0.828E-01 0.226E+00 0.236E+00 0.272E+00


 Contracted 2-electron integrals neglected if value below      1.0D-11
 AO integral compression algorithm  1   Integral accuracy      1.0D-11

     1.573 MB (compressed) written to integral file ( 58.9%)


 NUMBER OF SORTED TWO-ELECTRON INTEGRALS:     222111.     BUFFER LENGTH:  32768
 NUMBER OF SEGMENTS:   1  SEGMENT LENGTH:     222111      RECORD LENGTH: 524288

 Memory used in sort:       0.78 MW

 SORT1 READ      284735. AND WROTE      212530. INTEGRALS IN      1 RECORDS. CPU TIME:     0.01 SEC, REAL TIME:     0.01 SEC
 SORT2 READ      212530. AND WROTE      222111. INTEGRALS IN      6 RECORDS. CPU TIME:     0.02 SEC, REAL TIME:     0.02 SEC

 FILE SIZES:   FILE 1:    31.7 MBYTE,  FILE 4:     4.2 MBYTE,   TOTAL:     35.9 MBYTE

 OPERATOR DM      FOR CENTER  0  COORDINATES:    0.000000    0.000000    0.000000


 **********************************************************************************************************************************
 DATASETS  * FILE   NREC   LENGTH (MB)   RECORD NAMES
              1      19       31.13       500      610      700      900      950      970     1000      129      960     1100   
                                          VAR    BASINP    GEOM    SYMINP    ZMAT    AOBASIS   BASIS     P2S    ABASIS      S 
                                         1400     1410     1200     1210     1080     1600     1650     1300     1700   
                                           T        V       H0       H01     AOSYM     SMH    MOLCAS    ERIS     OPER   

 PROGRAMS   *        TOTAL       INT
 CPU TIMES  *         0.28      0.19
 REAL TIME  *         0.75 SEC
 DISK USED  *        36.24 MB
 **********************************************************************************************************************************


 PROGRAM * RHF-SCF (CLOSED SHELL)       Authors: W. Meyer, H.-J. Werner


 NUMBER OF ELECTRONS:       8+    8-    SPACE SYMMETRY=1    SPIN SYMMETRY: Singlet 
 CONVERGENCE THRESHOLDS:    1.00E-05 (Density)    1.00E-07 (Energy)
 MAX. NUMBER OF ITERATIONS:       60
 INTERPOLATION TYPE:            DIIS
 INTERPOLATION STEPS:              2 (START)      1 (STEP)
 LEVEL SHIFTS:                  0.00 (CLOSED)  0.00 (OPEN) 



 Orbital guess generated from atomic densities. Full valence occupancy:    8

 Molecular orbital dump at record        2100.2

 Initial occupancy:   8

 ITERATION    DDIFF          GRAD             ENERGY        2-EL.EN.            DIPOLE MOMENTS         DIIS   ORB.
    1      0.000D+00      0.000D+00       -77.81716815    115.138089   -0.00320    0.00188    0.00140    0    start
    2      0.000D+00      0.691D-02       -77.83465864    114.082660    0.00057   -0.00101   -0.00166    1    diag
    3      0.715D-02      0.228D-02       -77.83667792    114.523612   -0.00106   -0.00001    0.00112    2    diag
    4      0.296D-02      0.827D-03       -77.83710955    114.386460    0.00072   -0.00113   -0.00119    3    diag
    5      0.157D-02      0.279D-03       -77.83723141    114.394305   -0.00094   -0.00007    0.00156    4    diag
    6      0.932D-03      0.131D-03       -77.83726615    114.395795    0.00210   -0.00196   -0.00320    5    diag
    7      0.424D-03      0.839D-04       -77.83727801    114.396731   -0.00008   -0.00058    0.00024    6    diag
    8      0.292D-03      0.270D-04       -77.83727964    114.397720    0.00025   -0.00080   -0.00030    7    diag
    9      0.128D-03      0.685D-05       -77.83727973    114.397817    0.00023   -0.00078   -0.00027    8    diag
   10      0.295D-04      0.187D-05       -77.83727973    114.397806    0.00023   -0.00079   -0.00027    9    orth
   11      0.489D-05      0.430D-06       -77.83727973    114.397811    0.00023   -0.00079   -0.00027    0    orth

 Final occupancy:   8

 !RHF STATE  1.1 Energy               -77.837279731613
 Nuclear energy                        31.89993158
 One-electron energy                 -166.93611705
 Two-electron energy                   57.19890573
 Virial quotient                       -1.00366185
 !RHF STATE  1.1 Dipole moment          0.00022815    -0.00078513    -0.00027385
 Dipole moment /Debye                   0.00057985    -0.00199547    -0.00069601

 ELECTRON ORBITALS
 =================

  Orbital  Occupation    Energy     Coefficients
    1.1     2.00000   -11.26813     1 1s    0.83653     2 1s    0.54107
    2.1     2.00000   -11.26717     1 1s   -0.54121     2 1s    0.83662
    3.1     2.00000    -1.03460     1 1s    0.28213     2 1s    0.28262
    4.1     2.00000    -0.76113     1 1s   -0.31252     2 1s    0.31173
    5.1     2.00000    -0.61580     1 2py   0.30566     2 2py   0.30812
    6.1     2.00000    -0.53916     1 2px   0.30088     2 2px  -0.30069
    7.1     2.00000    -0.39398     1 2pz   0.30754     1 2pz   0.28238     2 2pz   0.30898     2 2pz   0.28336
    8.1     2.00000    -0.38917     1 2px   0.26550     2 2px  -0.26720     4 1s   -0.28366     5 1s   -0.28382
    9.1     0.00000     0.06049     1 1s    0.42043     1 2pz   0.32414     1 2pz   0.44780     2 1s    0.41807     2 2pz  -0.32447
                                    2 2pz  -0.44868
   10.1     0.00000     0.23276     1 1s   -1.06801     1 2px   0.49057     1 2py   0.34168     1 2pz   0.46075     2 1s   -1.05393
                                    2 2px  -0.48985     2 2py  -0.34585     2 2pz  -0.45610     3 1s    0.56394     4 1s    1.08331
                                    5 1s    1.08293     6 1s    0.54945
   11.1     0.00000     0.25218     1 1s   -1.27118     1 2py  -0.35178     1 2pz   0.39215     2 1s    1.28521     2 2py  -0.33232
                                    2 2pz   0.39092     3 1s    1.27025     6 1s   -1.26294
   12.1     0.00000     0.30269     1 1s   -0.48544     1 2px   0.33376     1 2py  -0.97028     1 2pz   0.40956     2 1s   -0.52227
                                    2 2px  -0.33204     2 2py   0.97792     2 2pz  -0.42034     3 1s    1.30796     4 1s   -0.47434
                                    5 1s   -0.47383     6 1s    1.33989
   13.1     0.00000     0.33703     1 1s   -1.09532     1 2px   0.26308     1 2py   0.77069     1 2pz   0.33359     2 1s    1.09516
                                    2 2px   0.26311     2 2py   0.77075     2 2pz   0.33352     4 1s    1.72106     5 1s   -1.72083
   14.1     0.00000     0.42233     1 1s    2.23185     1 2px   1.77384     1 2py  -0.56189     1 2pz  -0.84878     2 1s   -2.22813
                                    2 2px   1.77570     2 2py  -0.56561     2 2pz  -0.84707     3 1s    0.44170     6 1s   -0.44693
   15.1     0.00000     0.69949     1 2px   0.54184     1 2px  -0.89124     2 2px  -0.54272     2 2px   0.89224     4 1s    0.43872
                                    5 1s    0.43872
   16.1     0.00000     0.78093     1 1s   -0.62925     1 2py  -0.37190     1 2px  -0.52876     1 2py   0.74084     1 2pz   0.31653
                                    2 1s    0.61517     2 2py  -0.40771     2 2px  -0.53888     2 2py   0.81917     2 2pz   0.32582
                                    3 1s   -0.46672     4 1s    0.28178     5 1s   -0.30000     6 1s    0.47288
   17.1     0.00000     0.79316     1 2py   0.58646     1 2pz   0.35707     1 2py  -1.18275     1 2pz  -0.41990     2 2py  -0.56654
                                    2 2pz  -0.30317     2 2py   1.13999     2 2pz   0.35900     4 1s   -0.28366     5 1s   -0.26060
   18.1     0.00000     0.80008     1 2pz   0.70344     1 2px  -0.28007     1 2pz  -0.61801     2 2pz   0.72867     2 2px  -0.27574
                                    2 2pz  -0.65006
   19.1     0.00000     0.86979     1 1s   -0.38997     1 1s    0.27020     1 2px  -0.27989     1 2py   0.25167     1 2pz  -0.65837
                                    1 2px   0.47632     1 2py  -0.65442     1 2pz   0.87298     2 1s   -0.38844     2 1s    0.25426
                                    2 2px   0.27699     2 2pz   0.65494     2 2px  -0.46436     2 2py   0.64058     2 2pz  -0.87486
                                    3 1s    0.25703     6 1s    0.25322
   20.1     0.00000     0.97416     1 1s   -0.26939     1 2px   0.69781     1 2py   0.38975     1 2px  -1.11167     1 2py  -0.81851
                                    2 1s    0.26501     2 2px   0.69806     2 2py   0.38989     2 2px  -1.11203     2 2py  -0.81955
                                    4 1s   -1.07568     5 1s    1.07636
   21.1     0.00000     1.08066     1 1s   -0.30178     1 2px   0.47367     1 2py  -0.47593     1 2px  -0.88765     1 2py   0.77858
                                    2 2px   0.45112     2 2py  -0.45687     2 2px  -0.86506     2 2py   0.76547     3 1s    0.62392
                                    3 1s   -1.35745     6 1s   -0.55029     6 1s    1.26265
   22.1     0.00000     1.10853     1 1s   -0.66234     1 1s    1.05396     1 2px   0.25512     2 1s   -0.68136     2 1s    1.05146
                                    2 2px  -0.29724     2 2px   0.32315     3 1s    0.72286     3 1s   -0.95404     6 1s    0.77810
                                    6 1s   -1.07793
   23.1     0.00000     1.12769     1 1s   -0.51197     1 1s    0.95526     1 2py   0.42420     1 2px  -0.30746     1 2py  -0.42088
                                    2 1s   -0.51371     2 1s    0.96838     2 2py  -0.42992     2 2px   0.29665     2 2py   0.43127
                                    4 1s    0.67072     4 1s   -1.14644     5 1s    0.67141     5 1s   -1.15185
   24.1     0.00000     1.17990     1 1s   -0.37547     1 1s    0.30578     1 2py   0.37526     1 2pz   0.25105     1 2px  -0.38751
                                    1 2py  -0.35686     2 1s    0.38288     2 1s   -0.31716     2 2py   0.37149     2 2pz   0.25301
                                    2 2px  -0.39102     2 2py  -0.35334     4 1s    0.79132     4 1s   -1.11850     5 1s   -0.79148
                                    5 1s    1.11896
   25.1     0.00000     1.25589     1 1s   -1.19741     1 1s    1.98053     1 2px  -0.52711     1 2py   0.51240     1 2pz  -0.96552
                                    2 1s   -1.20903     2 1s    2.02887     2 2px   0.51719     2 2py  -0.51008     2 2pz   0.97717
                                    3 1s   -0.42335     3 1s   -0.72934     4 1s   -0.37311     4 1s   -0.41196     5 1s   -0.37580
                                    5 1s   -0.41520     6 1s   -0.42267     6 1s   -0.74177
   26.1     0.00000     1.29508     1 1s   -1.56300     1 1s    5.08275     1 2px   1.35795     1 2py  -0.82835     1 2pz  -1.23458
                                    2 1s    1.55595     2 1s   -5.07267     2 2px   1.36161     2 2py  -0.83079     2 2pz  -1.22799
                                    4 1s   -0.27019     4 1s   -0.66025     5 1s    0.26909     5 1s    0.65548
   27.1     0.00000     1.69534     1 1s   -0.59095     1 3d0  -0.35584     1 3d2-  0.29559     1 3d2+  0.32009     2 1s    0.59199
                                    2 3d0   0.35581     2 3d2- -0.29546     2 3d2+ -0.32016
   28.1     0.00000     1.90974     1 1s    0.32398     1 1s   -0.66888     1 2pz   0.34102     1 3d0   0.36313     1 3d1+  0.30770
                                    1 3d2+  0.34021     1 3d1-  0.30330     2 1s    0.27452     2 1s   -0.47449     2 2pz  -0.29029
                                    2 3d0   0.34433     2 3d1+  0.35672     2 3d2+  0.35855     2 3d1-  0.34599
   29.1     0.00000     1.91724     1 1s   -0.35651     1 1s    1.48085     1 2px   0.36254     1 2pz  -0.37551     1 3d2- -0.34197
                                    1 3d1+  0.40198     1 3d1-  0.36227     2 1s    0.39656     2 1s   -1.55823     2 2px   0.34041
                                    2 2pz  -0.41786     2 3d2-  0.33800     2 3d1+ -0.35798     2 3d1- -0.32111     3 1s   -0.32822
                                    6 1s    0.35706
   30.1     0.00000     2.16135     1 1s   -0.32694     1 1s    1.42159     1 2px   0.32258     1 2pz  -0.38307     1 3d0  -0.52835
                                    1 3d2+ -0.36974     2 1s    0.33252     2 1s   -1.42990     2 2px   0.32401     2 2pz  -0.38664
                                    2 3d0   0.53265     2 3d2+  0.36884     3 1s   -0.31627     4 1s   -0.25450     5 1s    0.25867
                                    6 1s    0.31670
   31.1     0.00000     2.26374     1 1s    0.50117     1 1s   -0.34142     1 2px   0.26961     1 2px  -0.30727     1 3d2-  0.26353
                                    1 3d1+  0.40131     1 3d2+ -0.39008     2 1s    0.49875     2 1s   -0.32828     2 2px  -0.26958
                                    2 2px   0.30355     2 3d2-  0.26299     2 3d1+  0.40058     2 3d2+ -0.39229
   32.1     0.00000     2.33978     1 2py   0.33860     1 3d0   0.47682     1 3d2- -0.43540     1 3d1- -0.35573     2 2py  -0.33344
                                    2 3d0   0.47085     2 3d2- -0.43428     2 3d1- -0.35118     3 1s   -0.26020     4 1s    0.43498
                                    5 1s    0.42837     6 1s   -0.26231
   33.1     0.00000     2.52844     1 1s   -0.64396     1 2px  -0.27410     1 2py   0.34054     1 3d2- -0.43076     1 3d1- -0.59780
                                    2 1s    0.64113     2 2px  -0.27693     2 2py   0.34600     2 3d2-  0.42458     2 3d1-  0.60149
                                    3 1s   -0.35236     4 1s    0.46713     5 1s   -0.46873     6 1s    0.35337
   34.1     0.00000     2.64534     1 2py   0.26116     1 3d2-  0.59495     1 3d1+ -0.26016     1 3d2+  0.36076     1 3d1- -0.36075
                                    2 2py  -0.25784     2 3d2-  0.60156     2 3d1+ -0.26189     2 3d2+  0.35974     2 3d1- -0.35303
   35.1     0.00000     2.66994     1 3d0   0.40088     1 3d1+ -0.42442     1 3d2+ -0.39591     1 3d1-  0.43293     2 3d0   0.40028
                                    2 3d1+ -0.42594     2 3d2+ -0.39674     2 3d1-  0.44076     3 1s    0.27840     4 1s   -0.32643
                                    5 1s   -0.33129     6 1s    0.28635
   36.1     0.00000     2.96774     1 1s    1.73801     1 2px   0.44379     1 2px   0.87203     1 2pz  -0.44799     1 3d2- -0.34986
                                    1 3d1+ -0.70239     1 3d2+  0.64856     2 1s   -1.73777     2 2px   0.44387     2 2px   0.87215
                                    2 2pz  -0.44788     2 3d2-  0.34909     2 3d1+  0.70291     2 3d2+ -0.64844


 HOMO      8.1    -0.389173 =     -10.5899eV
 LUMO      9.1     0.060494 =       1.6461eV
 LUMO-HOMO         0.449667 =      12.2361eV


 **********************************************************************************************************************************
 DATASETS  * FILE   NREC   LENGTH (MB)   RECORD NAMES
              1      19       31.13       500      610      700      900      950      970     1000      129      960     1100   
                                          VAR    BASINP    GEOM    SYMINP    ZMAT    AOBASIS   BASIS     P2S    ABASIS      S 
                                         1400     1410     1200     1210     1080     1600     1650     1300     1700   
                                           T        V       H0       H01     AOSYM     SMH    MOLCAS    ERIS     OPER   

              2       4        2.86       700     1000      520     2100   
                                         GEOM     BASIS   MCVARS     RHF  

 PROGRAMS   *        TOTAL    HF-SCF       INT
 CPU TIMES  *         0.39      0.11      0.19
 REAL TIME  *         0.99 SEC
 DISK USED  *        36.24 MB
 **********************************************************************************************************************************


 PROGRAM * MULTI (Direct Multiconfiguration SCF)       Authors: P.J. Knowles, H.-J. Werner (1984)


 Number of closed-shell orbitals:   7 (   7 )
 Number of active  orbitals:        2 (   2 )
 Number of external orbitals:      27 (  27 )

 State symmetry 1

 Number of electrons:     2    Spin symmetry=Singlet   Space symmetry=1
 Number of states:        3
 Number of CSFs:          3   (4 determinants, 4 intermediate states)

 Molecular orbitals read from record     2100.2  Type=RHF/CANONICAL (state 1.1)

 Wavefunction dump at record             2140.2

 Convergence thresholds  0.10E-01 (gradient)  0.10E-05 (energy)  0.10E-02 (step length)

 Weight factors for state symmetry  1:    0.33333   0.33333   0.33333

 Number of orbital rotations:      257   (    14 Core/Active    189 Core/Virtual   0 Active/Active     54 Active/Virtual)
 Total number of variables:        269

 Micro-Iterations solved by the two-step solver

 ITER. MIC  NCI  NEG     ENERGY(VAR)     ENERGY(PROJ)   ENERGY CHANGE     GRAD(0)  GRAD(ORB)   GRAD(CI)     STEP       TIME

   1    7    5    0     -77.67873740     -77.69875004   -0.02001264    0.16625771 0.00201924 0.00000000  0.15D+00      0.12
   2    6    5    0     -77.69838930     -77.69841568   -0.00002638    0.00753288 0.00000677 0.00000000  0.53D-02      0.21
   3    5    4    0     -77.69841573     -77.69841573   -0.00000000    0.00001792 0.00000000 0.00000000  0.24D-04      0.28

 ** WVFN ****  CONVERGENCE REACHED, FINAL GRADIENT:  0.32D-09



 Results for state 1.1
 =====================

 !MCSCF STATE  1.1 Energy             -77.830908102183
 Nuclear energy                        31.89993158
 Kinetic energy                        77.61391019
 One electron energy                 -167.02632992
 Two electron energy                   57.29549023
 Virial ratio                           2.00279586

 !MCSCF STATE  1.1 Dipole moment        0.00016703    -0.00063654    -0.00026910
 Dipole moment /Debye                   0.00042452    -0.00161782    -0.00068395

 Results for state 2.1
 =====================

 !MCSCF STATE  2.1 Energy             -77.725969366424
 Nuclear energy                        31.89993158
 Kinetic energy                        77.68450256
 One electron energy                 -166.69758867
 Two electron energy                   57.07168771
 Virial ratio                           2.00053378

 !MCSCF STATE  2.1 Dipole moment        0.00048160    -0.00110268     0.00022222
 Dipole moment /Debye                   0.00122402    -0.00280256     0.00056479

 Results for state 3.1
 =====================

 !MCSCF STATE  3.1 Energy             -77.538369730050
 Nuclear energy                        31.89993158
 Kinetic energy                        77.73797328
 One electron energy                 -166.40971962
 Two electron energy                   56.97141830
 Virial ratio                           1.99743235

 !MCSCF STATE  3.1 Dipole moment        0.00135281    -0.00181974     0.00063169
 Dipole moment /Debye                   0.00343828    -0.00462502     0.00160550

 State-averaged charge density matrix saved on record  2140.2 (density set 1)

 !MCSCF expec         <1.1|DMX|1.1>     0.000167028752 au =     0.000424516936 Debye
 !MCSCF trans         <2.1|DMX|1.1>    -0.001178797075 au =    -0.002996007070 Debye
 !MCSCF expec         <2.1|DMX|2.1>     0.000481597906 au =     0.001224019606 Debye
 !MCSCF trans         <3.1|DMX|1.1>     0.000037247650 au =     0.000094667882 Debye
 !MCSCF trans         <3.1|DMX|2.1>    -0.001248271719 au =    -0.003172582435 Debye
 !MCSCF expec         <3.1|DMX|3.1>     0.001352811527 au =     0.003438278720 Debye

 !MCSCF expec         <1.1|DMY|1.1>    -0.000636542258 au =    -0.001617823072 Debye
 !MCSCF trans         <2.1|DMY|1.1>     0.000544341121 au =     0.001383486508 Debye
 !MCSCF expec         <2.1|DMY|2.1>    -0.001102684222 au =    -0.002802560164 Debye
 !MCSCF trans         <3.1|DMY|1.1>     0.000013811742 au =     0.000035103647 Debye
 !MCSCF trans         <3.1|DMY|2.1>     0.000550857201 au =     0.001400047645 Debye
 !MCSCF expec         <3.1|DMY|3.1>    -0.001819740493 au =    -0.004625016041 Debye

 !MCSCF expec         <1.1|DMZ|1.1>    -0.000269102936 au =    -0.000683946640 Debye
 !MCSCF trans         <2.1|DMZ|1.1>     0.000151815147 au =     0.000385850340 Debye
 !MCSCF expec         <2.1|DMZ|2.1>     0.000222221490 au =     0.000564793695 Debye
 !MCSCF trans         <3.1|DMZ|1.1>    -0.000056196922 au =    -0.000142828973 Debye
 !MCSCF trans         <3.1|DMZ|2.1>     0.000203135939 au =     0.000516286240 Debye
 !MCSCF expec         <3.1|DMZ|3.1>     0.000631694691 au =     0.001605502593 Debye


 NATURAL ORBITALS (state averaged)
 =================================

  Orbital  Occupation    Energy     Coefficients
    1.1     2.00000   -11.26402     1 1s    0.86078     2 1s    0.50155
    2.1     2.00000   -11.26313     1 1s   -0.50164     2 1s    0.86084
    3.1     2.00000    -1.04926     1 1s    0.27747     2 1s    0.27786
    4.1     2.00000    -0.76377     1 1s   -0.33654     2 1s    0.33590
    5.1     2.00000    -0.61828     1 2py   0.29813     2 2py   0.30085
    6.1     2.00000    -0.53689     1 2px   0.25700     2 2px  -0.25666
    7.1     2.00000    -0.42167     1 2pz   0.32407     1 2pz   0.27769     2 2pz   0.32426     2 2pz   0.27788
    8.1     1.00000    -0.08848     1 1s    0.28347     1 2pz   0.40015     1 2pz   0.41959     2 1s    0.28228     2 2pz  -0.40037
                                    2 2pz  -0.42005
    9.1     1.00000    -0.23379     1 2px   0.30750     2 2px  -0.30762     4 1s   -0.29257     5 1s   -0.29246
   10.1    -0.00000     0.21990     1 1s   -1.08108     1 2px   0.48459     1 2py   0.36075     1 2pz   0.39440     2 1s   -1.07232
                                    2 2px  -0.48420     2 2py  -0.36293     2 2pz  -0.39147     3 1s    0.53085     4 1s    1.09850
                                    5 1s    1.09747     6 1s    0.52232
   11.1    -0.00000     0.25060     1 1s   -1.32030     1 2py  -0.32033     1 2pz   0.39758     2 1s    1.32773     2 2py  -0.30291
                                    2 2pz   0.39497     3 1s    1.26542     6 1s   -1.25500
   12.1    -0.00000     0.30421     1 1s   -0.54865     1 2px   0.33683     1 2py  -0.96452     1 2pz   0.38249     2 1s   -0.58935
                                    2 2px  -0.33576     2 2py   0.96890     2 2pz  -0.39422     3 1s    1.33300     4 1s   -0.42899
                                    5 1s   -0.42165     6 1s    1.36400
   13.1    -0.00000     0.32012     1 1s   -1.19742     1 2py   0.82934     1 2pz   0.37290     2 1s    1.19487     2 2py   0.83297
                                    2 2pz   0.37155     4 1s    1.73473     5 1s   -1.73603
   14.1    -0.00000     0.42829     1 1s    2.08226     1 2px   1.78361     1 2py  -0.45628     1 2pz  -0.78676     2 1s   -2.07869
                                    2 2px   1.78540     2 2py  -0.45992     2 2pz  -0.78515     3 1s    0.44565     6 1s   -0.45073
   15.1    -0.00000     0.69506     1 2px   0.52643     1 2px  -0.87046     2 2px  -0.52717     2 2px   0.87133     4 1s   -0.26098
                                    4 1s    0.49209     5 1s   -0.26016     5 1s    0.49218
   16.1    -0.00000     0.77734     1 1s   -0.78672     1 2py  -0.36154     1 2px  -0.59460     1 2py   0.76857     1 2pz   0.37049
                                    2 1s    0.77582     2 2py  -0.39102     2 2px  -0.60534     2 2py   0.83600     2 2pz   0.37961
                                    3 1s   -0.46238     4 1s    0.29825     5 1s   -0.31439     6 1s    0.46802
   17.1    -0.00000     0.79159     1 2py   0.55910     1 2pz   0.34631     1 2py  -1.16215     1 2pz  -0.48282     2 2py  -0.54336
                                    2 2pz  -0.30050     2 2py   1.12343     2 2pz   0.42477     4 1s   -0.28334     5 1s   -0.26304
   18.1    -0.00000     0.79995     1 2pz   0.70294     1 2pz  -0.67146     2 2pz   0.72478     2 2pz  -0.70410
   19.1    -0.00000     0.86683     1 1s   -0.34968     1 2px  -0.29331     1 2pz  -0.63495     1 2px   0.50918     1 2py  -0.65451
                                    1 2pz   0.92016     2 1s   -0.34828     2 2px   0.29051     2 2pz   0.63115     2 2px  -0.49662
                                    2 2py   0.64060     2 2pz  -0.92202     3 1s    0.30095     6 1s    0.29680
   20.1    -0.00000     0.98000     1 2px   0.68832     1 2py   0.40166     1 2px  -1.02603     1 2py  -0.84388     2 2px   0.68853
                                    2 2py   0.40182     2 2px  -1.02635     2 2py  -0.84508     4 1s   -1.04269     5 1s    1.04356
   21.1    -0.00000     1.08439     1 1s   -0.27609     1 2px   0.50510     1 2py  -0.47133     1 2px  -0.91663     1 2py   0.76851
                                    2 2px   0.47616     2 2py  -0.46433     2 2px  -0.88701     2 2py   0.76868     3 1s    0.60633
                                    3 1s   -1.33440     6 1s   -0.53778     6 1s    1.24548
   22.1    -0.00000     1.09788     1 1s   -0.72220     1 1s    1.26529     1 2px   0.33300     1 2py   0.33403     1 2px  -0.36655
                                    1 2py  -0.37927     2 1s   -0.73451     2 1s    1.27113     2 2px  -0.36172     2 2py  -0.30156
                                    2 2px   0.41559     2 2py   0.32859     4 1s    0.65375     4 1s   -1.09957     5 1s    0.64126
                                    5 1s   -1.07548     6 1s   -0.31854
   23.1    -0.00000     1.11613     1 1s   -0.36710     1 1s    0.50794     1 2py  -0.35039     1 2py   0.30129     2 1s   -0.36702
                                    2 1s    0.48245     2 2py   0.40252     2 2py  -0.38009     3 1s    0.75308     3 1s   -0.93398
                                    4 1s    0.31068     5 1s    0.37324     6 1s    0.79061     6 1s   -1.02496
   24.1    -0.00000     1.14029     1 1s   -0.39167     1 1s    0.33755     1 2py   0.37794     1 2px  -0.44206     1 2py  -0.35466
                                    2 1s    0.41071     2 1s   -0.36583     2 2py   0.36651     2 2pz   0.25119     2 2px  -0.44951
                                    2 2py  -0.34464     4 1s    0.78664     4 1s   -1.14387     5 1s   -0.78495     5 1s    1.14099
                                    6 1s    0.25885
   25.1    -0.00000     1.24825     1 1s   -1.22690     1 1s    2.03332     1 2px  -0.53897     1 2py   0.52089     1 2pz  -0.95964
                                    2 1s   -1.23929     2 1s    2.08330     2 2px   0.52895     2 2py  -0.51876     2 2pz   0.97156
                                    3 1s   -0.42248     3 1s   -0.73875     4 1s   -0.34198     4 1s   -0.45736     5 1s   -0.34437
                                    5 1s   -0.46091     6 1s   -0.42139     6 1s   -0.75201
   26.1    -0.00000     1.28831     1 1s   -1.56908     1 1s    5.08925     1 2px   1.37614     1 2py  -0.80120     1 2pz  -1.22080
                                    2 1s    1.56206     2 1s   -5.07917     2 2px   1.37984     2 2py  -0.80379     2 2pz  -1.21411
                                    3 1s   -0.25034     4 1s   -0.27152     4 1s   -0.63155     5 1s    0.27040     5 1s    0.62672
                                    6 1s    0.25207
   27.1    -0.00000     1.68940     1 1s   -0.62578     1 3d0  -0.34874     1 3d2-  0.30118     1 3d2+  0.32189     2 1s    0.62684
                                    2 3d0   0.34873     2 3d2- -0.30102     2 3d2+ -0.32193
   28.1    -0.00000     1.90613     1 1s    0.31636     1 1s   -0.66090     1 2pz   0.33648     1 3d0   0.36128     1 3d1+  0.30306
                                    1 3d2+  0.34569     1 3d1-  0.30183     2 1s    0.26625     2 1s   -0.46454     2 2pz  -0.28542
                                    2 3d0   0.34170     2 3d1+  0.35446     2 3d2+  0.36515     2 3d1-  0.34586
   29.1    -0.00000     1.91328     1 1s   -0.34820     1 1s    1.44256     1 2px   0.35057     1 2pz  -0.36406     1 3d2- -0.33831
                                    1 3d1+  0.40692     1 3d1-  0.36139     2 1s    0.38847     2 1s   -1.52125     2 2px   0.32715
                                    2 2pz  -0.40717     2 3d2-  0.33334     2 3d1+ -0.36190     2 3d1- -0.31879     3 1s   -0.32885
                                    6 1s    0.35870
   30.1    -0.00000     2.16077     1 1s   -0.33147     1 1s    1.41672     1 2px   0.31925     1 2pz  -0.37897     1 3d0  -0.53247
                                    1 3d2+ -0.37111     2 1s    0.33678     2 1s   -1.42479     2 2px   0.32059     2 2pz  -0.38238
                                    2 3d0   0.53681     2 3d2+  0.37043     3 1s   -0.31719     4 1s   -0.25118     5 1s    0.25543
                                    6 1s    0.31756
   31.1    -0.00000     2.25911     1 1s    0.49315     1 1s   -0.33730     1 2px   0.27339     1 2px  -0.29756     1 3d2-  0.28925
                                    1 3d1+  0.40855     1 3d2+ -0.39024     2 1s    0.49118     2 1s   -0.32693     2 2px  -0.27329
                                    2 2px   0.29461     2 3d2-  0.28882     2 3d1+  0.40804     2 3d2+ -0.39208
   32.1    -0.00000     2.33118     1 2py   0.35821     1 3d0   0.47979     1 3d2- -0.42528     1 3d1- -0.37262     2 2py  -0.35267
                                    2 3d0   0.47338     2 3d2- -0.42405     2 3d1- -0.36784     3 1s   -0.27376     4 1s    0.42112
                                    5 1s    0.41424     6 1s   -0.27607
   33.1    -0.00000     2.52180     1 1s   -0.63033     1 2px  -0.26614     1 2py   0.34162     1 3d2- -0.43328     1 3d1- -0.59907
                                    2 1s    0.62761     2 2px  -0.26906     2 2py   0.34737     2 3d2-  0.42807     2 3d1-  0.60317
                                    3 1s   -0.35475     4 1s    0.45707     5 1s   -0.45906     6 1s    0.35640
   34.1    -0.00000     2.63848     1 2py   0.30455     1 3d2-  0.55817     1 3d2+  0.41944     1 3d1- -0.43227     2 2py  -0.30196
                                    2 3d2-  0.56328     2 3d2+  0.41855     2 3d1- -0.42633     4 1s    0.28873     5 1s    0.28488
   35.1    -0.00000     2.67252     1 3d0   0.43735     1 3d2-  0.25442     1 3d1+ -0.46861     1 3d2+ -0.32442     1 3d1-  0.36545
                                    2 3d0   0.43689     2 3d2-  0.26204     2 3d1+ -0.47005     2 3d2+ -0.32542     2 3d1-  0.37371
                                    3 1s    0.30521     4 1s   -0.26945     5 1s   -0.27442     6 1s    0.31380
   36.1    -0.00000     2.96276     1 1s    1.76901     1 2px   0.43751     1 2px   0.88436     1 2pz  -0.45623     1 3d2- -0.34778
                                    1 3d1+ -0.70526     1 3d2+  0.64591     2 1s   -1.76876     2 2px   0.43758     2 2px   0.88448
                                    2 2pz  -0.45614     2 3d2-  0.34697     2 3d1+  0.70585     2 3d2+ -0.64578


 Natural orbital dump (state averaged) at molpro section  2140.2    (Orbital set 2)



 **********************************************************************************************************************************
 DATASETS  * FILE   NREC   LENGTH (MB)   RECORD NAMES
              1      20       31.86       500      610      700      900      950      970     1000      129      960     1100   
                                          VAR    BASINP    GEOM    SYMINP    ZMAT    AOBASIS   BASIS     P2S    ABASIS      S 
                                         1400     1410     1200     1210     1080     1600     1650     1300     1700     1380   
                                           T        V       H0       H01     AOSYM     SMH    MOLCAS    ERIS     OPER     JKOP   

              2       5        5.42       700     1000      520     2100     2140   
                                         GEOM     BASIS   MCVARS     RHF     MCSCF   

 PROGRAMS   *        TOTAL     MULTI    HF-SCF       INT
 CPU TIMES  *         0.73      0.33      0.11      0.19
 REAL TIME  *         1.38 SEC
 DISK USED  *        39.04 MB
 **********************************************************************************************************************************
 Molecular orbitals read from record     2140.2  Type=MCSCF/NATURAL (state averaged)
 Occupation numbers read from record     2140.2  Type=MCSCF/NATURAL (state averaged)
 Orbital energies read from record       2140.2  Type=MCSCF/NATURAL (state averaged)
 Redundancy group numbers read from rec  2140.2  Type=MCSCF/NATURAL (state averaged)

 MULTI/6-31G* energy=    -77.538369730050

           MULTI          HF-SCF
    -77.53836973    -77.83727973
 **********************************************************************************************************************************
 Molpro calculation terminated
