
 Primary working directories    : /scratch.local/johan406.molpro_temp/molpro.ToWHPbGCNA
 Secondary working directories  : /scratch.local/johan406.molpro_temp/molpro.ToWHPbGCNA
 Wavefunction directory         : /home/goodpast/johan406/wfu/
 Main file repository           : /scratch.local/johan406.molpro_temp/molpro.ToWHPbGCNA/

 id        : roweumn

 Nodes     nprocs
 acn09        1

 Using customized tuning parameters: mindgm=1; mindgv=20; mindgc=4; mindgr=1; noblas=0; minvec=7
 default implementation of scratch files=df  


 Variables initialized (934), CPU time= 0.01 sec
                                                                                 !leave this line blank
 
 gprint, orbitals=30
 memory, 125., m
 symmetry, nosym
 nelect=16
 basis=6-31g*
 
 geometry={
 C -0.6214 0.1326 0.3012
 C 0.6315 -0.1825 -0.3616
 H -1.3209 0.9617 -0.1908
 H -0.9571 -0.8623 -0.1349
 H 0.9673 0.8124 0.0745
 H 1.3272 -1.0091 0.1291
 }
 
 hf
 {multi,
 closed 7
 occ 9
 wf,spin=0;STATE,3
 }
 
 Commands  initialized (763), CPU time= 0.01 sec, 617 directives.
 Default parameters read. Elapsed time= 0.08 sec

 Checking input...
 Passed
1


                                         ***  PROGRAM SYSTEM MOLPRO  ***
                                       Copyright, TTI GmbH Stuttgart, 2015
                                    Version 2019.2 linked Oct 25 2019 22:50:27


 **********************************************************************************************************************************
 LABEL *                                                                                 
  64 bit serial version                                                                  DATE: 07-Feb-23          TIME: 16:02:28  
 **********************************************************************************************************************************

 SHA1:             8dbd9ae1082e4ce945b0f27595c9eb2d4aa09004
 **********************************************************************************************************************************


 Variable memory set to  125000000 words,  buffer space 

 SETTING NELECT         =        16.00000000                                  
 SETTING BASIS          =    6-31G*
 ZSYMEL=NOSYM


Geometry recognized as XYZ



 Recomputing integrals since basis changed


 Using spherical harmonics

 Library entry C      S 6-31G                selected for orbital group  1
 Library entry C      P 6-31G                selected for orbital group  1
 Library entry C      D 6-31G*               selected for orbital group  1
 Library entry H      S 6-31G                selected for orbital group  2


 PROGRAM * SEWARD (Integral evaluation for generally contracted gaussian basis sets)     Author: Roland Lindh, 1990

 Geometry written to block  1 of record 700


 Point group  C1  



 ATOMIC COORDINATES

 NR  ATOM    CHARGE       X              Y              Z

   1  C       6.00   -1.174275814    0.250577684    0.569185509
   2  C       6.00    1.193362048   -0.344875018   -0.683324967
   3  H       1.00   -2.496139238    1.817349614   -0.360559745
   4  H       1.00   -1.808656874   -1.629510837   -0.254924054
   5  H       1.00    1.827932080    1.535213504    0.140784596
   6  H       1.00    2.508044513   -1.906922632    0.243963643

 Bond lengths in Bohr (Angstrom)

 1-2  2.743912436  1-3  2.250893918  1-4  2.148564346  2-5  2.148620149  2-6  2.242375280
     ( 1.452015930)     ( 1.191121765)     ( 1.136971288)     ( 1.137000818)     ( 1.186613897)

 Bond angles

  1-2-5   83.67726502   1-2-6  117.92383779   2-1-3  117.98466494   2-1-4   83.67272521

  3-1-4  106.09687262   5-2-6  106.12768732

 NUCLEAR CHARGE:                   16
 NUMBER OF PRIMITIVE AOS:          72
 NUMBER OF SYMMETRY AOS:           70
 NUMBER OF CONTRACTIONS:           36   (   36A   )
 NUMBER OF CORE ORBITALS:           2   (    2A   )
 NUMBER OF VALENCE ORBITALS:       12   (   12A   )


 NUCLEAR REPULSION ENERGY   31.88534179

 Eigenvalues of metric

         1 0.912E-02 0.328E-01 0.612E-01 0.771E-01 0.829E-01 0.226E+00 0.236E+00 0.272E+00


 Contracted 2-electron integrals neglected if value below      1.0D-11
 AO integral compression algorithm  1   Integral accuracy      1.0D-11

     1.573 MB (compressed) written to integral file ( 58.8%)


 NUMBER OF SORTED TWO-ELECTRON INTEGRALS:     222111.     BUFFER LENGTH:  32768
 NUMBER OF SEGMENTS:   1  SEGMENT LENGTH:     222111      RECORD LENGTH: 524288

 Memory used in sort:       0.78 MW

 SORT1 READ      284735. AND WROTE      212530. INTEGRALS IN      1 RECORDS. CPU TIME:     0.00 SEC, REAL TIME:     0.00 SEC
 SORT2 READ      212530. AND WROTE      222111. INTEGRALS IN      6 RECORDS. CPU TIME:     0.02 SEC, REAL TIME:     0.03 SEC

 FILE SIZES:   FILE 1:    31.7 MBYTE,  FILE 4:     4.2 MBYTE,   TOTAL:     35.9 MBYTE

 OPERATOR DM      FOR CENTER  0  COORDINATES:    0.000000    0.000000    0.000000


 **********************************************************************************************************************************
 DATASETS  * FILE   NREC   LENGTH (MB)   RECORD NAMES
              1      19       31.13       500      610      700      900      950      970     1000      129      960     1100   
                                          VAR    BASINP    GEOM    SYMINP    ZMAT    AOBASIS   BASIS     P2S    ABASIS      S 
                                         1400     1410     1200     1210     1080     1600     1650     1300     1700   
                                           T        V       H0       H01     AOSYM     SMH    MOLCAS    ERIS     OPER   

 PROGRAMS   *        TOTAL       INT
 CPU TIMES  *         0.28      0.19
 REAL TIME  *         0.49 SEC
 DISK USED  *        36.24 MB
 **********************************************************************************************************************************


 PROGRAM * RHF-SCF (CLOSED SHELL)       Authors: W. Meyer, H.-J. Werner


 NUMBER OF ELECTRONS:       8+    8-    SPACE SYMMETRY=1    SPIN SYMMETRY: Singlet 
 CONVERGENCE THRESHOLDS:    1.00E-05 (Density)    1.00E-07 (Energy)
 MAX. NUMBER OF ITERATIONS:       60
 INTERPOLATION TYPE:            DIIS
 INTERPOLATION STEPS:              2 (START)      1 (STEP)
 LEVEL SHIFTS:                  0.00 (CLOSED)  0.00 (OPEN) 



 Orbital guess generated from atomic densities. Full valence occupancy:    8

 Molecular orbital dump at record        2100.2

 Initial occupancy:   8

 ITERATION    DDIFF          GRAD             ENERGY        2-EL.EN.            DIPOLE MOMENTS         DIIS   ORB.
    1      0.000D+00      0.000D+00       -77.81652063    115.112498   -0.00324    0.00189    0.00141    0    start
    2      0.000D+00      0.691D-02       -77.83400602    114.055452    0.00056   -0.00102   -0.00166    1    diag
    3      0.714D-02      0.228D-02       -77.83602577    114.497266   -0.00107   -0.00002    0.00112    2    diag
    4      0.296D-02      0.828D-03       -77.83645775    114.359788    0.00072   -0.00115   -0.00119    3    diag
    5      0.157D-02      0.279D-03       -77.83657937    114.367651   -0.00094   -0.00009    0.00156    4    diag
    6      0.931D-03      0.131D-03       -77.83661407    114.369144    0.00209   -0.00198   -0.00320    5    diag
    7      0.423D-03      0.839D-04       -77.83662593    114.370083   -0.00009   -0.00060    0.00024    6    diag
    8      0.292D-03      0.270D-04       -77.83662756    114.371073    0.00024   -0.00082   -0.00030    7    diag
    9      0.128D-03      0.682D-05       -77.83662765    114.371168    0.00022   -0.00080   -0.00027    8    diag
   10      0.294D-04      0.186D-05       -77.83662765    114.371157    0.00022   -0.00080   -0.00027    9    orth
   11      0.488D-05      0.428D-06       -77.83662765    114.371163    0.00022   -0.00080   -0.00027    0    orth

 Final occupancy:   8

 !RHF STATE  1.1 Energy               -77.836627651841
 Nuclear energy                        31.88534179
 One-electron energy                 -166.90755087
 Two-electron energy                   57.18558142
 Virial quotient                       -1.00372557
 !RHF STATE  1.1 Dipole moment          0.00022334    -0.00080413    -0.00027119
 Dipole moment /Debye                   0.00056763    -0.00204376    -0.00068926

 ELECTRON ORBITALS
 =================

  Orbital  Occupation    Energy     Coefficients
    1.1     2.00000   -11.26840     1 1s    0.83746     2 1s    0.53962
    2.1     2.00000   -11.26743     1 1s   -0.53977     2 1s    0.83755
    3.1     2.00000    -1.03454     1 1s    0.28212     2 1s    0.28261
    4.1     2.00000    -0.76054     1 1s   -0.31294     2 1s    0.31216
    5.1     2.00000    -0.61554     1 2py   0.30552     2 2py   0.30801
    6.1     2.00000    -0.53848     1 2px   0.30096     2 2px  -0.30077
    7.1     2.00000    -0.39404     1 2pz   0.30748     1 2pz   0.28225     2 2pz   0.30897     2 2pz   0.28326
    8.1     2.00000    -0.38923     1 2px   0.26522     2 2px  -0.26698     4 1s   -0.28356     5 1s   -0.28371
    9.1     0.00000     0.06036     1 1s    0.42097     1 2pz   0.32393     1 2pz   0.44709     2 1s    0.41857     2 2pz  -0.32427
                                    2 2pz  -0.44799
   10.1     0.00000     0.23279     1 1s   -1.06749     1 2px   0.49083     1 2py   0.34054     1 2pz   0.46176     2 1s   -1.05238
                                    2 2px  -0.49003     2 2py  -0.34500     2 2pz  -0.45679     3 1s    0.56420     4 1s    1.08308
                                    5 1s    1.08265     6 1s    0.54864
   11.1     0.00000     0.25117     1 1s   -1.26241     1 2py  -0.35116     1 2pz   0.39001     2 1s    1.27757     2 2py  -0.33143
                                    2 2pz   0.38920     3 1s    1.26446     6 1s   -1.25779
   12.1     0.00000     0.30234     1 1s   -0.47800     1 2px   0.33163     1 2py  -0.96901     1 2pz   0.40826     2 1s   -0.51482
                                    2 2px  -0.32991     2 2py   0.97672     2 2pz  -0.41906     3 1s    1.30091     4 1s   -0.47615
                                    5 1s   -0.47570     6 1s    1.33290
   13.1     0.00000     0.33709     1 1s   -1.09661     1 2px   0.26253     1 2py   0.77102     1 2pz   0.33402     2 1s    1.09647
                                    2 2px   0.26258     2 2py   0.77107     2 2pz   0.33397     4 1s    1.72185     5 1s   -1.72162
   14.1     0.00000     0.42228     1 1s    2.23606     1 2px   1.77328     1 2py  -0.56003     1 2pz  -0.85013     2 1s   -2.23239
                                    2 2px   1.77512     2 2py  -0.56375     2 2pz  -0.84844     3 1s    0.43723     6 1s   -0.44238
   15.1     0.00000     0.69942     1 2px   0.54160     1 2px  -0.89022     2 2px  -0.54249     2 2px   0.89116     4 1s    0.43895
                                    5 1s    0.43896
   16.1     0.00000     0.78154     1 1s   -0.63686     1 2py  -0.37045     1 2px  -0.52314     1 2py   0.73776     1 2pz   0.32950
                                    2 1s    0.62263     2 2py  -0.40779     2 2px  -0.53353     2 2py   0.81912     2 2pz   0.33996
                                    3 1s   -0.46348     4 1s    0.28332     5 1s   -0.30225     6 1s    0.46983
   17.1     0.00000     0.79324     1 2py   0.58619     1 2pz   0.36029     1 2py  -1.18090     1 2pz  -0.42529     2 2py  -0.56590
                                    2 2pz  -0.30364     2 2py   1.13725     2 2pz   0.36158     4 1s   -0.28363     5 1s   -0.25982
   18.1     0.00000     0.80018     1 2pz   0.69990     1 2px  -0.28983     1 2pz  -0.61031     2 2pz   0.72630     2 2px  -0.28542
                                    2 2pz  -0.64396
   19.1     0.00000     0.86989     1 1s   -0.39069     1 1s    0.27226     1 2px  -0.28117     1 2py   0.25390     1 2pz  -0.65745
                                    1 2px   0.47691     1 2py  -0.65739     1 2pz   0.87015     2 1s   -0.38912     2 1s    0.25590
                                    2 2px   0.27821     2 2pz   0.65393     2 2px  -0.46468     2 2py   0.64320     2 2pz  -0.87208
                                    3 1s    0.25882     6 1s    0.25492
   20.1     0.00000     0.97411     1 1s   -0.27127     1 2px   0.69692     1 2py   0.39041     1 2px  -1.11017     1 2py  -0.81997
                                    2 1s    0.26672     2 2px   0.69717     2 2py   0.39056     2 2px  -1.11052     2 2py  -0.82106
                                    4 1s   -1.07620     5 1s    1.07692
   21.1     0.00000     1.07898     1 1s   -0.30505     1 2px   0.47517     1 2py  -0.47296     1 2px  -0.88902     1 2py   0.77294
                                    2 2px   0.45238     2 2py  -0.45378     2 2px  -0.86615     2 2py   0.75992     3 1s    0.62451
                                    3 1s   -1.35640     6 1s   -0.54950     6 1s    1.25987
   22.1     0.00000     1.10640     1 1s   -0.65742     1 1s    1.04398     1 2px   0.25044     2 1s   -0.67742     2 1s    1.04244
                                    2 2px  -0.29352     2 2px   0.31942     3 1s    0.72461     3 1s   -0.95348     6 1s    0.78103
                                    6 1s   -1.07983
   23.1     0.00000     1.12793     1 1s    0.51579     1 1s   -0.96107     1 2py  -0.42219     1 2px   0.30942     1 2py   0.41977
                                    2 1s    0.51768     2 1s   -0.97423     2 2py   0.42744     2 2px  -0.29917     2 2py  -0.42945
                                    4 1s   -0.67289     4 1s    1.14763     5 1s   -0.67337     5 1s    1.15262
   24.1     0.00000     1.18001     1 1s   -0.37584     1 1s    0.31008     1 2py   0.37758     1 2pz   0.25084     1 2px  -0.38287
                                    1 2py  -0.36100     2 1s    0.38300     2 1s   -0.32107     2 2py   0.37393     2 2pz   0.25273
                                    2 2px  -0.38627     2 2py  -0.35760     4 1s    0.79128     4 1s   -1.12015     5 1s   -0.79142
                                    5 1s    1.12060
   25.1     0.00000     1.25583     1 1s   -1.19744     1 1s    1.97640     1 2px  -0.52687     1 2py   0.51092     1 2pz  -0.96489
                                    2 1s   -1.20903     2 1s    2.02477     2 2px   0.51683     2 2py  -0.50868     2 2pz   0.97657
                                    3 1s   -0.42454     3 1s   -0.72304     4 1s   -0.37109     4 1s   -0.41437     5 1s   -0.37377
                                    5 1s   -0.41753     6 1s   -0.42384     6 1s   -0.73550
   26.1     0.00000     1.29540     1 1s   -1.56199     1 1s    5.08072     1 2px   1.35954     1 2py  -0.82941     1 2pz  -1.23457
                                    2 1s    1.55496     2 1s   -5.07071     2 2px   1.36323     2 2py  -0.83185     2 2pz  -1.22801
                                    4 1s   -0.27057     4 1s   -0.66018     5 1s    0.26953     5 1s    0.65539
   27.1     0.00000     1.69531     1 1s   -0.59107     1 3d0  -0.35603     1 3d2-  0.29553     1 3d2+  0.31995     2 1s    0.59215
                                    2 3d0   0.35602     2 3d2- -0.29539     2 3d2+ -0.32001
   28.1     0.00000     1.90937     1 1s    0.32537     1 1s   -0.67474     1 2pz   0.34203     1 3d0   0.36385     1 3d1+  0.30506
                                    1 3d2+  0.33942     1 3d1-  0.30154     2 1s    0.27120     2 1s   -0.46198     2 2pz  -0.28650
                                    2 3d0   0.34320     2 3d1+  0.35850     2 3d2+  0.35937     2 3d1-  0.34802
   29.1     0.00000     1.91640     1 1s   -0.35645     1 1s    1.48030     1 2px   0.36403     1 2pz  -0.37449     1 3d2- -0.34301
                                    1 3d1+  0.40327     1 3d1-  0.36256     2 1s    0.39997     2 1s   -1.56407     2 2px   0.33994
                                    2 2pz  -0.42043     2 3d2-  0.33887     2 3d1+ -0.35535     2 3d1- -0.31751     3 1s   -0.32720
                                    6 1s    0.35851
   30.1     0.00000     2.16059     1 1s   -0.32577     1 1s    1.41258     1 2px   0.32027     1 2pz  -0.38071     1 3d0  -0.52694
                                    1 3d2+ -0.37011     2 1s    0.33150     2 1s   -1.42110     2 2px   0.32171     2 2pz  -0.38438
                                    2 3d0   0.53134     2 3d2+  0.36922     3 1s   -0.31479     4 1s   -0.25196     5 1s    0.25621
                                    6 1s    0.31526
   31.1     0.00000     2.26395     1 1s    0.50147     1 1s   -0.34222     1 2px   0.26991     1 2px  -0.30761     1 3d2-  0.26186
                                    1 3d1+  0.40174     1 3d2+ -0.39001     2 1s    0.49898     2 1s   -0.32876     2 2px  -0.26989
                                    2 2px   0.30379     2 3d2-  0.26132     2 3d1+  0.40098     2 3d2+ -0.39227
   32.1     0.00000     2.33939     1 2py   0.33728     1 3d0   0.47543     1 3d2- -0.43772     1 3d1- -0.35494     2 2py  -0.33203
                                    2 3d0   0.46933     2 3d2- -0.43659     2 3d1- -0.35034     3 1s   -0.25935     4 1s    0.43603
                                    5 1s    0.42930     6 1s   -0.26152
   33.1     0.00000     2.52703     1 1s   -0.65492     1 2px  -0.27653     1 2py   0.34189     1 3d2- -0.42908     1 3d1- -0.59768
                                    2 1s    0.65204     2 2px  -0.27944     2 2py   0.34746     2 3d2-  0.42302     2 3d1-  0.60148
                                    3 1s   -0.34842     4 1s    0.46876     5 1s   -0.47042     6 1s    0.34959
   34.1     0.00000     2.64482     1 2py   0.25426     1 3d2-  0.59947     1 3d1+ -0.27513     1 3d2+  0.34566     1 3d1- -0.34679
                                    2 2py  -0.25084     2 3d2-  0.60629     2 3d1+ -0.27690     2 3d2+  0.34461     2 3d1- -0.33882
   35.1     0.00000     2.66908     1 3d0   0.39399     1 3d1+ -0.41481     1 3d2+ -0.40929     1 3d1-  0.44404     2 3d0   0.39341
                                    2 3d1+ -0.41626     2 3d2+ -0.41009     2 3d1-  0.45161     3 1s    0.26867     4 1s   -0.33431
                                    5 1s   -0.33900     6 1s    0.27631
   36.1     0.00000     2.96788     1 1s    1.73836     1 2px   0.44388     1 2px   0.87193     1 2pz  -0.44821     1 3d2- -0.34994
                                    1 3d1+ -0.70255     1 3d2+  0.64859     2 1s   -1.73813     2 2px   0.44395     2 2px   0.87204
                                    2 2pz  -0.44811     2 3d2-  0.34916     2 3d1+  0.70308     2 3d2+ -0.64847


 HOMO      8.1    -0.389230 =     -10.5915eV
 LUMO      9.1     0.060361 =       1.6425eV
 LUMO-HOMO         0.449591 =      12.2340eV


 **********************************************************************************************************************************
 DATASETS  * FILE   NREC   LENGTH (MB)   RECORD NAMES
              1      19       31.13       500      610      700      900      950      970     1000      129      960     1100   
                                          VAR    BASINP    GEOM    SYMINP    ZMAT    AOBASIS   BASIS     P2S    ABASIS      S 
                                         1400     1410     1200     1210     1080     1600     1650     1300     1700   
                                           T        V       H0       H01     AOSYM     SMH    MOLCAS    ERIS     OPER   

              2       4        2.86       700     1000      520     2100   
                                         GEOM     BASIS   MCVARS     RHF  

 PROGRAMS   *        TOTAL    HF-SCF       INT
 CPU TIMES  *         0.38      0.10      0.19
 REAL TIME  *         0.67 SEC
 DISK USED  *        36.24 MB
 **********************************************************************************************************************************


 PROGRAM * MULTI (Direct Multiconfiguration SCF)       Authors: P.J. Knowles, H.-J. Werner (1984)


 Number of closed-shell orbitals:   7 (   7 )
 Number of active  orbitals:        2 (   2 )
 Number of external orbitals:      27 (  27 )

 State symmetry 1

 Number of electrons:     2    Spin symmetry=Singlet   Space symmetry=1
 Number of states:        3
 Number of CSFs:          3   (4 determinants, 4 intermediate states)

 Molecular orbitals read from record     2100.2  Type=RHF/CANONICAL (state 1.1)

 Wavefunction dump at record             2140.2

 Convergence thresholds  0.10E-01 (gradient)  0.10E-05 (energy)  0.10E-02 (step length)

 Weight factors for state symmetry  1:    0.33333   0.33333   0.33333

 Number of orbital rotations:      257   (    14 Core/Active    189 Core/Virtual   0 Active/Active     54 Active/Virtual)
 Total number of variables:        269

 Micro-Iterations solved by the two-step solver

 ITER. MIC  NCI  NEG     ENERGY(VAR)     ENERGY(PROJ)   ENERGY CHANGE     GRAD(0)  GRAD(ORB)   GRAD(CI)     STEP       TIME

   1    7    5    0     -77.67806582     -77.69809732   -0.02003150    0.16621388 0.00202365 0.00000000  0.15D+00      0.12
   2    5    5    0     -77.69773434     -77.69776105   -0.00002671    0.00758036 0.00000695 0.00000000  0.53D-02      0.21
   3    5    4    0     -77.69776110     -77.69776110   -0.00000000    0.00001818 0.00000000 0.00000000  0.25D-04      0.30

 ** WVFN ****  CONVERGENCE REACHED, FINAL GRADIENT:  0.33D-09



 Results for state 1.1
 =====================

 !MCSCF STATE  1.1 Energy             -77.830255711033
 Nuclear energy                        31.88534179
 Kinetic energy                        77.60849164
 One electron energy                 -166.99822554
 Two electron energy                   57.28262804
 Virial ratio                           2.00285747

 !MCSCF STATE  1.1 Dipole moment        0.00016468    -0.00065311    -0.00026451
 Dipole moment /Debye                   0.00041854    -0.00165993    -0.00067228

 Results for state 2.1
 =====================

 !MCSCF STATE  2.1 Energy             -77.725306529095
 Nuclear energy                        31.88534179
 Kinetic energy                        77.67892146
 One electron energy                 -166.66871882
 Two electron energy                   57.05807050
 Virial ratio                           2.00059714

 !MCSCF STATE  2.1 Dipole moment        0.00047584    -0.00113319     0.00023483
 Dipole moment /Debye                   0.00120937    -0.00288009     0.00059685

 Results for state 3.1
 =====================

 !MCSCF STATE  3.1 Energy             -77.537721066229
 Nuclear energy                        31.88534179
 Kinetic energy                        77.73211574
 One electron energy                 -166.37979771
 Two electron energy                   56.95673485
 Virial ratio                           1.99749917

 !MCSCF STATE  3.1 Dipole moment        0.00136499    -0.00186900     0.00064742
 Dipole moment /Debye                   0.00346923    -0.00475021     0.00164548

 State-averaged charge density matrix saved on record  2140.2 (density set 1)

 !MCSCF expec         <1.1|DMX|1.1>     0.000164678767 au =     0.000418544260 Debye
 !MCSCF trans         <2.1|DMX|1.1>    -0.001222358929 au =    -0.003106723008 Debye
 !MCSCF expec         <2.1|DMX|2.1>     0.000475835172 au =     0.001209373156 Debye
 !MCSCF trans         <3.1|DMX|1.1>     0.000040125124 au =     0.000101981212 Debye
 !MCSCF trans         <3.1|DMX|2.1>    -0.001295565154 au =    -0.003292782483 Debye
 !MCSCF expec         <3.1|DMX|3.1>     0.001364990709 au =     0.003469233086 Debye

 !MCSCF expec         <1.1|DMY|1.1>    -0.000653110533 au =    -0.001659932667 Debye
 !MCSCF trans         <2.1|DMY|1.1>     0.000554543824 au =     0.001409417493 Debye
 !MCSCF expec         <2.1|DMY|2.1>    -0.001133187978 au =    -0.002880087902 Debye
 !MCSCF trans         <3.1|DMY|1.1>     0.000014559596 au =     0.000037004377 Debye
 !MCSCF trans         <3.1|DMY|2.1>     0.000560729082 au =     0.001425137821 Debye
 !MCSCF expec         <3.1|DMY|3.1>    -0.001868997398 au =    -0.004750206407 Debye

 !MCSCF expec         <1.1|DMZ|1.1>    -0.000264511828 au =    -0.000672277971 Debye
 !MCSCF trans         <2.1|DMZ|1.1>     0.000161600680 au =     0.000410721056 Debye
 !MCSCF expec         <2.1|DMZ|2.1>     0.000234834763 au =     0.000596851336 Debye
 !MCSCF trans         <3.1|DMZ|1.1>    -0.000057553195 au =    -0.000146276049 Debye
 !MCSCF trans         <3.1|DMZ|2.1>     0.000214378225 au =     0.000544859410 Debye
 !MCSCF expec         <3.1|DMZ|3.1>     0.000647422323 au =     0.001645475628 Debye


 NATURAL ORBITALS (state averaged)
 =================================

  Orbital  Occupation    Energy     Coefficients
    1.1     2.00000   -11.26433     1 1s    0.86195     2 1s    0.49954
    2.1     2.00000   -11.26343     1 1s   -0.49963     2 1s    0.86201
    3.1     2.00000    -1.04926     1 1s    0.27747     2 1s    0.27786
    4.1     2.00000    -0.76324     1 1s   -0.33690     2 1s    0.33627
    5.1     2.00000    -0.61801     1 2py   0.29795     2 2py   0.30071
    6.1     2.00000    -0.53619     1 2px   0.25692     2 2px  -0.25658
    7.1     2.00000    -0.42174     1 2pz   0.32403     1 2pz   0.27759     2 2pz   0.32423     2 2pz   0.27778
    8.1     1.00000    -0.23388     1 2px   0.30743     2 2px  -0.30757     4 1s   -0.29249     5 1s   -0.29238
    9.1     1.00000    -0.08857     1 1s    0.28389     1 2pz   0.40001     1 2pz   0.41922     2 1s    0.28269     2 2pz  -0.40023
                                    2 2pz  -0.41969
   10.1    -0.00000     0.21990     1 1s   -1.08051     1 2px   0.48477     1 2py   0.35985     1 2pz   0.39508     2 1s   -1.07131
                                    2 2px  -0.48434     2 2py  -0.36213     2 2pz  -0.39202     3 1s    0.53081     4 1s    1.09849
                                    5 1s    1.09740     6 1s    0.52185
   11.1    -0.00000     0.24956     1 1s   -1.31102     1 2py  -0.32024     1 2pz   0.39536     2 1s    1.31899     2 2py  -0.30267
                                    2 2pz   0.39290     3 1s    1.25986     6 1s   -1.24972
   12.1    -0.00000     0.30382     1 1s   -0.54166     1 2px   0.33482     1 2py  -0.96316     1 2pz   0.38118     2 1s   -0.58223
                                    2 2px  -0.33372     2 2py   0.96775     2 2pz  -0.39289     3 1s    1.32615     4 1s   -0.43040
                                    5 1s   -0.42336     6 1s    1.35727
   13.1    -0.00000     0.32015     1 1s   -1.20042     1 2py   0.82926     1 2pz   0.37381     2 1s    1.19801     2 2py   0.83274
                                    2 2pz   0.37254     4 1s    1.73551     5 1s   -1.73677
   14.1    -0.00000     0.42823     1 1s    2.08614     1 2px   1.78299     1 2py  -0.45439     1 2pz  -0.78799     2 1s   -2.08262
                                    2 2px   1.78478     2 2py  -0.45803     2 2pz  -0.78638     3 1s    0.44123     6 1s   -0.44623
   15.1    -0.00000     0.69496     1 2px   0.52617     1 2px  -0.86949     2 2px  -0.52693     2 2px   0.87032     4 1s   -0.26130
                                    4 1s    0.49222     5 1s   -0.26047     5 1s    0.49230
   16.1    -0.00000     0.77793     1 1s   -0.79709     1 2py  -0.36025     1 2px  -0.59037     1 2py   0.76632     1 2pz   0.38316
                                    2 1s    0.78623     2 2py  -0.39084     2 2px  -0.60134     2 2py   0.83600     2 2pz   0.39329
                                    3 1s   -0.45955     4 1s    0.29964     5 1s   -0.31633     6 1s    0.46534
   17.1    -0.00000     0.79165     1 2py   0.55877     1 2pz   0.34904     1 2py  -1.16031     1 2pz  -0.48798     2 2py  -0.54282
                                    2 2pz  -0.30117     2 2py   1.12087     2 2pz   0.42759     4 1s   -0.28316     5 1s   -0.26231
   18.1    -0.00000     0.80004     1 2pz   0.69997     1 2pz  -0.66365     2 2pz   0.72272     2 2pz  -0.69773
   19.1    -0.00000     0.86689     1 1s   -0.35047     1 2px  -0.29454     1 2py   0.25096     1 2pz  -0.63405     1 2px   0.50964
                                    1 2py  -0.65724     1 2pz   0.91711     2 1s   -0.34904     2 2px   0.29170     2 2pz   0.63017
                                    2 2px  -0.49679     2 2py   0.64299     2 2pz  -0.91903     3 1s    0.30255     6 1s    0.29830
   20.1    -0.00000     0.97991     1 2px   0.68716     1 2py   0.40244     1 2px  -1.02426     1 2py  -0.84546     2 2px   0.68736
                                    2 2py   0.40261     2 2px  -1.02457     2 2py  -0.84672     4 1s   -1.04313     5 1s    1.04405
   21.1    -0.00000     1.08276     1 1s   -0.28048     1 2px   0.50679     1 2py  -0.46705     1 2px  -0.91979     1 2py   0.76137
                                    2 2px   0.47842     2 2py  -0.45891     2 2px  -0.89084     2 2py   0.76054     3 1s    0.60787
                                    3 1s   -1.33440     6 1s   -0.53793     6 1s    1.24395
   22.1    -0.00000     1.09771     1 1s    0.73770     1 1s   -1.28551     1 2px  -0.33778     1 2py  -0.31661     1 2px   0.36878
                                    1 2py   0.36450     2 1s    0.75032     2 1s   -1.29092     2 2px   0.36746     2 2py   0.28302
                                    2 2px  -0.41960     2 2py  -0.31208     3 1s    0.28549     4 1s   -0.64266     4 1s    1.08170
                                    5 1s   -0.62982     5 1s    1.05681     6 1s    0.36586
   23.1    -0.00000     1.11439     1 1s   -0.33263     1 1s    0.44767     1 2py  -0.36442     1 2py   0.31671     2 1s   -0.33428
                                    2 1s    0.42392     2 2py   0.41459     2 2py  -0.39334     3 1s    0.74377     3 1s   -0.91922
                                    4 1s    0.36469     5 1s   -0.26730     5 1s    0.42179     6 1s    0.78180     6 1s   -1.01043
   24.1    -0.00000     1.14034     1 1s   -0.39185     1 1s    0.34288     1 2py   0.38191     1 2px  -0.43362     1 2py  -0.36195
                                    2 1s    0.40919     2 1s   -0.36862     2 2py   0.37159     2 2pz   0.25056     2 2px  -0.44042
                                    2 2py  -0.35292     4 1s    0.78701     4 1s   -1.14654     5 1s   -0.78553     5 1s    1.14405
   25.1    -0.00000     1.24824     1 1s   -1.22635     1 1s    2.02818     1 2px  -0.53854     1 2py   0.51934     1 2pz  -0.95883
                                    2 1s   -1.23873     2 1s    2.07829     2 2px   0.52838     2 2py  -0.51728     2 2pz   0.97079
                                    3 1s   -0.42401     3 1s   -0.73184     4 1s   -0.34011     4 1s   -0.45939     5 1s   -0.34250
                                    5 1s   -0.46287     6 1s   -0.42291     6 1s   -0.74512
   26.1    -0.00000     1.28862     1 1s   -1.56803     1 1s    5.08716     1 2px   1.37782     1 2py  -0.80242     1 2pz  -1.22082
                                    2 1s    1.56102     2 1s   -5.07714     2 2px   1.38155     2 2py  -0.80501     2 2pz  -1.21416
                                    4 1s   -0.27185     4 1s   -0.63159     5 1s    0.27078     5 1s    0.62674
   27.1    -0.00000     1.68935     1 1s   -0.62611     1 3d0  -0.34891     1 3d2-  0.30118     1 3d2+  0.32175     2 1s    0.62721
                                    2 3d0   0.34891     2 3d2- -0.30101     2 3d2+ -0.32178
   28.1    -0.00000     1.90573     1 1s    0.31790     1 1s   -0.66717     1 2pz   0.33760     1 3d0   0.36205     1 3d1+  0.30025
                                    1 3d2+  0.34478     1 3d1-  0.29995     2 1s    0.26289     2 1s   -0.45173     2 2pz  -0.28157
                                    2 3d0   0.34049     2 3d1+  0.35644     2 3d2+  0.36600     2 3d1-  0.34800
   29.1    -0.00000     1.91241     1 1s   -0.34805     1 1s    1.44169     1 2px   0.35210     1 2pz  -0.36288     1 3d2- -0.33933
                                    1 3d1+  0.40835     1 3d1-  0.36178     2 1s    0.39191     2 1s   -1.52709     2 2px   0.32653
                                    2 2pz  -0.40976     2 3d2-  0.33410     2 3d1+ -0.35919     2 3d1- -0.31504     3 1s   -0.32773
                                    6 1s    0.36021
   30.1    -0.00000     2.15998     1 1s   -0.33033     1 1s    1.40793     1 2px   0.31700     1 2pz  -0.37667     1 3d0  -0.53108
                                    1 3d2+ -0.37145     2 1s    0.33578     2 1s   -1.41621     2 2px   0.31835     2 2pz  -0.38018
                                    2 3d0   0.53552     2 3d2+  0.37078     3 1s   -0.31577     5 1s    0.25303     6 1s    0.31618
   31.1    -0.00000     2.25932     1 1s    0.49339     1 1s   -0.33783     1 2px   0.27362     1 2px  -0.29791     1 3d2-  0.28802
                                    1 3d1+  0.40894     1 3d2+ -0.39026     2 1s    0.49136     2 1s   -0.32720     2 2px  -0.27353
                                    2 2px   0.29487     2 3d2-  0.28758     2 3d1+  0.40842     2 3d2+ -0.39214
   32.1    -0.00000     2.33070     1 2py   0.35702     1 3d0   0.47851     1 3d2- -0.42748     1 3d1- -0.37198     2 2py  -0.35139
                                    2 3d0   0.47197     2 3d2- -0.42625     2 3d1- -0.36715     3 1s   -0.27294     4 1s    0.42214
                                    5 1s    0.41514     6 1s   -0.27531
   33.1    -0.00000     2.52036     1 1s   -0.64135     1 2px  -0.26857     1 2py   0.34300     1 3d2- -0.43160     1 3d1- -0.59896
                                    2 1s    0.63858     2 2px  -0.27158     2 2py   0.34887     2 3d2-  0.42652     2 3d1-  0.60315
                                    3 1s   -0.35079     4 1s    0.45869     5 1s   -0.46074     6 1s    0.35258
   34.1    -0.00000     2.63822     1 2py   0.30162     1 3d2-  0.56286     1 3d2+  0.41144     1 3d1- -0.42534     2 2py  -0.29898
                                    2 3d2-  0.56810     2 3d2+  0.41053     2 3d1- -0.41925     4 1s    0.28333     5 1s    0.27939
   35.1    -0.00000     2.67134     1 3d0   0.43508     1 3d1+ -0.46433     1 3d2+ -0.33464     1 3d1-  0.37336     2 3d0   0.43462
                                    2 3d1+ -0.46572     2 3d2+ -0.33562     2 3d1-  0.38150     3 1s    0.29879     4 1s   -0.27522
                                    5 1s   -0.28012     6 1s    0.30719
   36.1    -0.00000     2.96289     1 1s    1.76937     1 2px   0.43759     1 2px   0.88426     1 2pz  -0.45646     1 3d2- -0.34786
                                    1 3d1+ -0.70542     1 3d2+  0.64595     2 1s   -1.76914     2 2px   0.43767     2 2px   0.88438
                                    2 2pz  -0.45637     2 3d2-  0.34705     2 3d1+  0.70601     2 3d2+ -0.64582


 Natural orbital dump (state averaged) at molpro section  2140.2    (Orbital set 2)



 **********************************************************************************************************************************
 DATASETS  * FILE   NREC   LENGTH (MB)   RECORD NAMES
              1      20       31.86       500      610      700      900      950      970     1000      129      960     1100   
                                          VAR    BASINP    GEOM    SYMINP    ZMAT    AOBASIS   BASIS     P2S    ABASIS      S 
                                         1400     1410     1200     1210     1080     1600     1650     1300     1700     1380   
                                           T        V       H0       H01     AOSYM     SMH    MOLCAS    ERIS     OPER     JKOP   

              2       5        5.42       700     1000      520     2100     2140   
                                         GEOM     BASIS   MCVARS     RHF     MCSCF   

 PROGRAMS   *        TOTAL     MULTI    HF-SCF       INT
 CPU TIMES  *         0.73      0.35      0.10      0.19
 REAL TIME  *         1.06 SEC
 DISK USED  *        39.04 MB
 **********************************************************************************************************************************
 Molecular orbitals read from record     2140.2  Type=MCSCF/NATURAL (state averaged)
 Occupation numbers read from record     2140.2  Type=MCSCF/NATURAL (state averaged)
 Orbital energies read from record       2140.2  Type=MCSCF/NATURAL (state averaged)
 Redundancy group numbers read from rec  2140.2  Type=MCSCF/NATURAL (state averaged)

 MULTI/6-31G* energy=    -77.537721066229

           MULTI          HF-SCF
    -77.53772107    -77.83662765
 **********************************************************************************************************************************
 Molpro calculation terminated
