
 Primary working directories    : /scratch.local/johan406.molpro_temp/molpro.MDrN8MZbrY
 Secondary working directories  : /scratch.local/johan406.molpro_temp/molpro.MDrN8MZbrY
 Wavefunction directory         : /home/goodpast/johan406/wfu/
 Main file repository           : /scratch.local/johan406.molpro_temp/molpro.MDrN8MZbrY/

 id        : roweumn

 Nodes     nprocs
 acn09        1

 Using customized tuning parameters: mindgm=1; mindgv=20; mindgc=4; mindgr=1; noblas=0; minvec=7
 default implementation of scratch files=df  


 Variables initialized (934), CPU time= 0.01 sec
                                                                                 !leave this line blank
 
 gprint, orbitals=30
 memory, 125., m
 symmetry, nosym
 nelect=16
 basis=6-31g*
 
 geometry={
 C -0.6202 0.1315 0.3018
 C 0.6307 -0.1813 -0.3621
 H -1.3326 0.976 -0.1986
 H -0.9559 -0.8615 -0.1343
 H 0.9664 0.8116 0.0739
 H 1.3384 -1.0228 0.1366
 }
 
 hf
 {multi,
 closed 7
 occ 9
 wf,spin=0;STATE,3
 }
 
 Commands  initialized (763), CPU time= 0.01 sec, 617 directives.
 Default parameters read. Elapsed time= 0.08 sec

 Checking input...
 Passed
1


                                         ***  PROGRAM SYSTEM MOLPRO  ***
                                       Copyright, TTI GmbH Stuttgart, 2015
                                    Version 2019.2 linked Oct 25 2019 22:50:27


 **********************************************************************************************************************************
 LABEL *                                                                                 
  64 bit serial version                                                                  DATE: 07-Feb-23          TIME: 16:03:03  
 **********************************************************************************************************************************

 SHA1:             8dbd9ae1082e4ce945b0f27595c9eb2d4aa09004
 **********************************************************************************************************************************


 Variable memory set to  125000000 words,  buffer space 

 SETTING NELECT         =        16.00000000                                  
 SETTING BASIS          =    6-31G*
 ZSYMEL=NOSYM


Geometry recognized as XYZ



 Recomputing integrals since basis changed


 Using spherical harmonics

 Library entry C      S 6-31G                selected for orbital group  1
 Library entry C      P 6-31G                selected for orbital group  1
 Library entry C      D 6-31G*               selected for orbital group  1
 Library entry H      S 6-31G                selected for orbital group  2


 PROGRAM * SEWARD (Integral evaluation for generally contracted gaussian basis sets)     Author: Roland Lindh, 1990

 Geometry written to block  1 of record 700


 Point group  C1  



 ATOMIC COORDINATES

 NR  ATOM    CHARGE       X              Y              Z

   1  C       6.00   -1.172008142    0.248498985    0.570319344
   2  C       6.00    1.191850267   -0.342607346   -0.684269830
   3  H       1.00   -2.518249034    1.844372698   -0.375299608
   4  H       1.00   -1.806389202   -1.627999056   -0.253790219
   5  H       1.00    1.826231327    1.533701723    0.139650761
   6  H       1.00    2.529209445   -1.932811880    0.258136589

 Bond lengths in Bohr (Angstrom)

 1-2  2.740661831  1-3  2.292023701  1-4  2.145423222  2-5  2.145185351  2-6  2.281536738
     ( 1.450295784)     ( 1.212886709)     ( 1.135309077)     ( 1.135183201)     ( 1.207337248)

 Bond angles

  1-2-5   83.71921652   1-2-6  117.82793213   2-1-3  117.89910967   2-1-4   83.71649646

  3-1-4  106.07179765   5-2-6  106.11931788

 NUCLEAR CHARGE:                   16
 NUMBER OF PRIMITIVE AOS:          72
 NUMBER OF SYMMETRY AOS:           70
 NUMBER OF CONTRACTIONS:           36   (   36A   )
 NUMBER OF CORE ORBITALS:           2   (    2A   )
 NUMBER OF VALENCE ORBITALS:       12   (   12A   )


 NUCLEAR REPULSION ENERGY   31.79199241

 Eigenvalues of metric

         1 0.909E-02 0.340E-01 0.610E-01 0.805E-01 0.837E-01 0.227E+00 0.236E+00 0.272E+00


 Contracted 2-electron integrals neglected if value below      1.0D-11
 AO integral compression algorithm  1   Integral accuracy      1.0D-11

     1.573 MB (compressed) written to integral file ( 58.8%)


 NUMBER OF SORTED TWO-ELECTRON INTEGRALS:     222111.     BUFFER LENGTH:  32768
 NUMBER OF SEGMENTS:   1  SEGMENT LENGTH:     222111      RECORD LENGTH: 524288

 Memory used in sort:       0.78 MW

 SORT1 READ      284735. AND WROTE      212530. INTEGRALS IN      1 RECORDS. CPU TIME:     0.00 SEC, REAL TIME:     0.00 SEC
 SORT2 READ      212530. AND WROTE      222111. INTEGRALS IN      6 RECORDS. CPU TIME:     0.02 SEC, REAL TIME:     0.03 SEC

 FILE SIZES:   FILE 1:    31.7 MBYTE,  FILE 4:     4.2 MBYTE,   TOTAL:     35.9 MBYTE

 OPERATOR DM      FOR CENTER  0  COORDINATES:    0.000000    0.000000    0.000000


 **********************************************************************************************************************************
 DATASETS  * FILE   NREC   LENGTH (MB)   RECORD NAMES
              1      19       31.13       500      610      700      900      950      970     1000      129      960     1100   
                                          VAR    BASINP    GEOM    SYMINP    ZMAT    AOBASIS   BASIS     P2S    ABASIS      S 
                                         1400     1410     1200     1210     1080     1600     1650     1300     1700   
                                           T        V       H0       H01     AOSYM     SMH    MOLCAS    ERIS     OPER   

 PROGRAMS   *        TOTAL       INT
 CPU TIMES  *         0.27      0.17
 REAL TIME  *         0.49 SEC
 DISK USED  *        36.24 MB
 **********************************************************************************************************************************


 PROGRAM * RHF-SCF (CLOSED SHELL)       Authors: W. Meyer, H.-J. Werner


 NUMBER OF ELECTRONS:       8+    8-    SPACE SYMMETRY=1    SPIN SYMMETRY: Singlet 
 CONVERGENCE THRESHOLDS:    1.00E-05 (Density)    1.00E-07 (Energy)
 MAX. NUMBER OF ITERATIONS:       60
 INTERPOLATION TYPE:            DIIS
 INTERPOLATION STEPS:              2 (START)      1 (STEP)
 LEVEL SHIFTS:                  0.00 (CLOSED)  0.00 (OPEN) 



 Orbital guess generated from atomic densities. Full valence occupancy:    8

 Molecular orbital dump at record        2100.2

 Initial occupancy:   8

 ITERATION    DDIFF          GRAD             ENERGY        2-EL.EN.            DIPOLE MOMENTS         DIIS   ORB.
    1      0.000D+00      0.000D+00       -77.81176249    114.953139   -0.00384    0.00219    0.00151    0    start
    2      0.000D+00      0.690D-02       -77.82923310    113.879180    0.00075   -0.00121   -0.00201    1    diag
    3      0.709D-02      0.230D-02       -77.83125720    114.328657   -0.00106   -0.00011    0.00117    2    diag
    4      0.297D-02      0.831D-03       -77.83169128    114.188762    0.00101   -0.00140   -0.00146    3    diag
    5      0.158D-02      0.277D-03       -77.83180944    114.196644   -0.00080   -0.00024    0.00163    4    diag
    6      0.920D-03      0.131D-03       -77.83184220    114.198153    0.00233   -0.00217   -0.00334    5    diag
    7      0.397D-03      0.863D-04       -77.83185529    114.199130    0.00021   -0.00084    0.00004    6    diag
    8      0.312D-03      0.267D-04       -77.83185692    114.200135    0.00051   -0.00103   -0.00045    7    diag
    9      0.129D-03      0.660D-05       -77.83185701    114.200217    0.00049   -0.00102   -0.00043    8    diag
   10      0.285D-04      0.178D-05       -77.83185701    114.200210    0.00049   -0.00102   -0.00043    9    orth
   11      0.471D-05      0.417D-06       -77.83185701    114.200214    0.00049   -0.00102   -0.00043    0    orth

 Final occupancy:   8

 !RHF STATE  1.1 Energy               -77.831857011826
 Nuclear energy                        31.79199241
 One-electron energy                 -166.72395660
 Two-electron energy                   57.10010718
 Virial quotient                       -1.00414542
 !RHF STATE  1.1 Dipole moment          0.00048578    -0.00101897    -0.00042762
 Dipole moment /Debye                   0.00123465    -0.00258980    -0.00108683

 ELECTRON ORBITALS
 =================

  Orbital  Occupation    Energy     Coefficients
    1.1     2.00000   -11.27023     1 1s    0.85723     2 1s    0.50764
    2.1     2.00000   -11.26922     1 1s   -0.50779     2 1s    0.85732
    3.1     2.00000    -1.03437     1 1s    0.28204     2 1s    0.28262
    4.1     2.00000    -0.75639     1 1s   -0.31574     2 1s    0.31485
    5.1     2.00000    -0.61372     1 2py   0.30416     2 2py   0.30726
    6.1     2.00000    -0.53370     1 2px   0.30193     2 2px  -0.30170
    7.1     2.00000    -0.39455     1 2pz   0.30711     1 2pz   0.28126     2 2pz   0.30901     2 2pz   0.28256
    8.1     2.00000    -0.38969     1 2px   0.26276     2 2px  -0.26505     4 1s   -0.28288     5 1s   -0.28303
    9.1     0.00000     0.05953     1 1s    0.42520     1 2pz   0.32232     1 2pz   0.44201     2 1s    0.42211     2 2pz  -0.32278
                                    2 2pz  -0.44322
   10.1     0.00000     0.23299     1 1s   -1.06925     1 2px   0.49328     1 2py   0.33025     1 2pz   0.47125     2 1s   -1.03504
                                    2 2px  -0.49130     2 2py  -0.34012     2 2pz  -0.46019     3 1s    0.57249     4 1s    1.08062
                                    5 1s    1.07953     6 1s    0.53732
   11.1     0.00000     0.24395     1 1s   -1.19563     1 2py  -0.34964     1 2pz   0.37259     2 1s    1.23009     2 2py  -0.32278
                                    2 2pz   0.37879     3 1s    1.22201     6 1s   -1.22429
   12.1     0.00000     0.29988     1 1s   -0.42326     1 2px   0.31635     1 2py  -0.96088     1 2pz   0.39811     2 1s   -0.46461
                                    2 2px  -0.31478     2 2py   0.96947     2 2pz  -0.41027     3 1s    1.24966     4 1s   -0.49042
                                    5 1s   -0.48933     6 1s    1.28572
   13.1     0.00000     0.33740     1 1s   -1.10700     1 2px   0.25747     1 2py   0.77284     1 2pz   0.33759     2 1s    1.10731
                                    2 2px   0.25748     2 2py   0.77356     2 2pz   0.33746     4 1s    1.72660     5 1s   -1.72729
   14.1     0.00000     0.42221     1 1s    2.27073     1 2px   1.77193     1 2py  -0.54598     1 2pz  -0.86107     2 1s   -2.26669
                                    2 2px   1.77414     2 2py  -0.55021     2 2pz  -0.85914     3 1s    0.40550     6 1s   -0.41122
   15.1     0.00000     0.69863     1 2px   0.53972     1 2px  -0.88344     2 2px  -0.54074     2 2px   0.88408     4 1s    0.44089
                                    5 1s    0.44081
   16.1     0.00000     0.78577     1 1s   -0.67230     1 2py  -0.34590     1 2pz  -0.27191     1 2px  -0.46278     1 2py   0.69056
                                    1 2pz   0.43293     2 1s    0.65439     2 2py  -0.40507     2 2pz  -0.29709     2 2px  -0.47769
                                    2 2py   0.81578     2 2pz   0.45932     3 1s   -0.42525     4 1s    0.29022     5 1s   -0.31937
                                    6 1s    0.43476
   17.1     0.00000     0.79377     1 2py   0.58611     1 2pz   0.38655     1 2py  -1.17261     1 2pz  -0.46706     2 2py  -0.55949
                                    2 2pz  -0.30001     2 2py   1.11476     2 2pz   0.37206     4 1s   -0.28604     5 1s   -0.25256
   18.1     0.00000     0.80128     1 2pz   0.65689     1 2px  -0.37434     1 2py   0.27269     1 2pz  -0.52922     2 2pz   0.69432
                                    2 2px  -0.37003     2 2pz  -0.57835     3 1s   -0.28241     6 1s    0.27424
   19.1     0.00000     0.87049     1 1s    0.39464     1 1s   -0.28628     1 2px   0.29010     1 2py  -0.26892     1 2pz   0.65167
                                    1 2px  -0.48144     1 2py   0.67704     1 2pz  -0.85076     2 1s    0.39274     2 1s   -0.26532
                                    2 2px  -0.28632     2 2py   0.25992     2 2pz  -0.64717     2 2px   0.46601     2 2py  -0.65861
                                    2 2pz   0.85327     3 1s   -0.27280     6 1s   -0.26783
   20.1     0.00000     0.97399     1 1s   -0.28430     1 2px   0.68913     1 2py   0.39683     1 2px  -1.09598     1 2py  -0.83313
                                    2 1s    0.27757     2 2px   0.68925     2 2py   0.39703     2 2px  -1.09623     2 2py  -0.83474
                                    4 1s   -1.08097     5 1s    1.08240
   21.1     0.00000     1.06728     1 1s   -0.32921     1 1s    0.25308     1 2px   0.48904     1 2py  -0.45237     1 2px  -0.90263
                                    1 2py   0.73144     2 2px   0.46202     2 2py  -0.43068     2 2px  -0.87515     2 2py   0.71859
                                    3 1s    0.63169     3 1s   -1.35236     6 1s   -0.53763     6 1s    1.23164
   22.1     0.00000     1.09206     1 1s   -0.64456     1 1s    1.01604     2 1s   -0.67387     2 1s    1.02132     2 2px  -0.27922
                                    2 2px   0.31084     3 1s    0.72272     3 1s   -0.93445     6 1s    0.79424     6 1s   -1.09314
   23.1     0.00000     1.12963     1 1s   -0.51475     1 1s    0.95707     1 2px   0.25181     1 2py   0.41583     1 2px  -0.31266
                                    1 2py  -0.41780     2 1s   -0.51647     2 1s    0.97092     2 2py  -0.41916     2 2px   0.30275
                                    2 2py   0.42514     4 1s    0.68395     4 1s   -1.14675     5 1s    0.68191     5 1s   -1.14825
   24.1     0.00000     1.18086     1 1s   -0.37672     1 1s    0.33223     1 2py   0.39091     1 2px  -0.35352     1 2py  -0.38447
                                    2 1s    0.38448     2 1s   -0.34441     2 2py   0.38869     2 2pz   0.25142     2 2px  -0.35731
                                    2 2py  -0.38256     4 1s    0.79005     4 1s   -1.12682     5 1s   -0.79169     5 1s    1.12997
   25.1     0.00000     1.25518     1 1s   -1.19398     1 1s    1.93642     1 2px  -0.52734     1 2py   0.50206     1 2pz  -0.95739
                                    2 1s   -1.21122     2 1s    2.00511     2 2px   0.51209     2 2py  -0.49761     2 2pz   0.97392
                                    3 1s   -0.43325     3 1s   -0.67694     4 1s   -0.35570     4 1s   -0.42985     5 1s   -0.35944
                                    5 1s   -0.43507     6 1s   -0.43261     6 1s   -0.69199
   26.1     0.00000     1.29806     1 1s   -1.55771     1 1s    5.07594     1 2px   1.37147     1 2py  -0.83436     1 2pz  -1.23750
                                    2 1s    1.54671     2 1s   -5.06006     2 2px   1.37714     2 2py  -0.83848     2 2pz  -1.22760
                                    4 1s   -0.27321     4 1s   -0.66024     5 1s    0.27122     5 1s    0.65394
   27.1     0.00000     1.69511     1 1s   -0.59288     1 3d0  -0.35729     1 3d2-  0.29522     1 3d2+  0.31866     2 1s    0.59418
                                    2 3d0   0.35735     2 3d2- -0.29509     2 3d2+ -0.31864
   28.1     0.00000     1.90664     1 1s    0.36497     1 1s   -0.84198     1 2pz   0.37973     1 3d0   0.37692     1 3d2+  0.31714
                                    1 3d1-  0.25684     2 3d0   0.31708     2 3d1+  0.39780     2 3d2+  0.37205     2 3d1-  0.38520
                                    3 1s    0.27451
   29.1     0.00000     1.90999     1 1s   -0.32487     1 1s    1.40738     1 2px   0.38455     1 2pz  -0.33509     1 3d2- -0.34639
                                    1 3d1+  0.43453     1 3d1-  0.38766     2 1s    0.44259     2 1s   -1.62877     2 2px   0.31741
                                    2 2pz  -0.45822     2 3d2-  0.33857     2 3d1+ -0.30269     2 3d1- -0.25925     3 1s   -0.29673
                                    6 1s    0.38140
   30.1     0.00000     2.15567     1 1s   -0.31646     1 1s    1.34791     1 2px   0.30440     1 2pz  -0.36343     1 3d0  -0.51674
                                    1 3d2+ -0.37262     2 1s    0.32349     2 1s   -1.35858     2 2px   0.30578     2 2pz  -0.36819
                                    2 3d0   0.52193     2 3d2+  0.37185     3 1s   -0.30371     6 1s    0.30467
   31.1     0.00000     2.26644     1 1s    0.50466     1 1s   -0.34947     1 2px   0.27219     1 2px  -0.31041     1 3d1+  0.40486
                                    1 3d2+ -0.38968     2 1s    0.50166     2 1s   -0.33340     2 2px  -0.27218     2 2px   0.30584
                                    2 3d1+  0.40391     2 3d2+ -0.39240
   32.1     0.00000     2.33657     1 2py   0.32796     1 3d0   0.46445     1 3d2- -0.45476     1 3d1- -0.34986     2 2py  -0.32161
                                    2 3d0   0.45703     2 3d2- -0.45321     2 3d1- -0.34413     3 1s   -0.25307     4 1s    0.44466
                                    5 1s    0.43653     6 1s   -0.25557
   33.1     0.00000     2.51785     1 1s   -0.73145     1 2px  -0.29320     1 2py   0.35094     1 3d2- -0.41773     1 3d1- -0.59662
                                    2 1s    0.72799     2 2px  -0.29713     2 2py   0.35784     2 3d2-  0.41213     2 3d1-  0.60128
                                    3 1s   -0.32133     4 1s    0.47956     5 1s   -0.48204     6 1s    0.32359
   34.1     0.00000     2.64040     1 3d0   0.32828     1 3d2-  0.60812     1 3d1+ -0.36622     2 3d0   0.32687     2 3d2-  0.61711
                                    2 3d1+ -0.36845
   35.1     0.00000     2.66529     1 2py  -0.29232     1 3d0   0.33392     1 3d1+ -0.33650     1 3d2+ -0.48439     1 3d1-  0.50597
                                    2 2py   0.29479     2 3d0   0.33330     2 3d1+ -0.33783     2 3d2+ -0.48499     2 3d1-  0.51253
                                    4 1s   -0.37630     5 1s   -0.38052
   36.1     0.00000     2.96947     1 1s    1.74178     1 2px   0.44603     1 2px   0.87150     1 2pz  -0.44986     1 3d2- -0.34983
                                    1 3d1+ -0.70425     1 3d2+  0.64945     2 1s   -1.74152     2 2px   0.44613     2 2px   0.87161
                                    2 2pz  -0.44972     2 3d2-  0.34902     2 3d1+  0.70477     2 3d2+ -0.64938


 HOMO      8.1    -0.389689 =     -10.6040eV
 LUMO      9.1     0.059531 =       1.6199eV
 LUMO-HOMO         0.449220 =      12.2239eV


 **********************************************************************************************************************************
 DATASETS  * FILE   NREC   LENGTH (MB)   RECORD NAMES
              1      19       31.13       500      610      700      900      950      970     1000      129      960     1100   
                                          VAR    BASINP    GEOM    SYMINP    ZMAT    AOBASIS   BASIS     P2S    ABASIS      S 
                                         1400     1410     1200     1210     1080     1600     1650     1300     1700   
                                           T        V       H0       H01     AOSYM     SMH    MOLCAS    ERIS     OPER   

              2       4        2.86       700     1000      520     2100   
                                         GEOM     BASIS   MCVARS     RHF  

 PROGRAMS   *        TOTAL    HF-SCF       INT
 CPU TIMES  *         0.38      0.11      0.17
 REAL TIME  *         0.68 SEC
 DISK USED  *        36.24 MB
 **********************************************************************************************************************************


 PROGRAM * MULTI (Direct Multiconfiguration SCF)       Authors: P.J. Knowles, H.-J. Werner (1984)


 Number of closed-shell orbitals:   7 (   7 )
 Number of active  orbitals:        2 (   2 )
 Number of external orbitals:      27 (  27 )

 State symmetry 1

 Number of electrons:     2    Spin symmetry=Singlet   Space symmetry=1
 Number of states:        3
 Number of CSFs:          3   (4 determinants, 4 intermediate states)

 Molecular orbitals read from record     2100.2  Type=RHF/CANONICAL (state 1.1)

 Wavefunction dump at record             2140.2

 Convergence thresholds  0.10E-01 (gradient)  0.10E-05 (energy)  0.10E-02 (step length)

 Weight factors for state symmetry  1:    0.33333   0.33333   0.33333

 Number of orbital rotations:      257   (    14 Core/Active    189 Core/Virtual   0 Active/Active     54 Active/Virtual)
 Total number of variables:        269

 Micro-Iterations solved by the two-step solver

 ITER. MIC  NCI  NEG     ENERGY(VAR)     ENERGY(PROJ)   ENERGY CHANGE     GRAD(0)  GRAD(ORB)   GRAD(CI)     STEP       TIME

   1    8    5    0     -77.67290165     -77.69306142   -0.02015977    0.16578845 0.00204611 0.00000000  0.15D+00      0.12
   2    6    5    0     -77.69268149     -77.69271099   -0.00002950    0.00796850 0.00000829 0.00000000  0.55D-02      0.21
   3    5    4    0     -77.69271105     -77.69271105   -0.00000000    0.00002036 0.00000000 0.00000000  0.28D-04      0.29

 ** WVFN ****  CONVERGENCE REACHED, FINAL GRADIENT:  0.43D-09



 Results for state 1.1
 =====================

 !MCSCF STATE  1.1 Energy             -77.825490031567
 Nuclear energy                        31.79199241
 Kinetic energy                        77.57233741
 One electron energy                 -166.81777221
 Two electron energy                   57.20028977
 Virial ratio                           2.00326344

 !MCSCF STATE  1.1 Dipole moment        0.00045936    -0.00079732    -0.00043359
 Dipole moment /Debye                   0.00116750    -0.00202646    -0.00110202

 Results for state 2.1
 =====================

 !MCSCF STATE  2.1 Energy             -77.720196757284
 Nuclear energy                        31.79199241
 Kinetic energy                        77.64175652
 One electron energy                 -166.48303745
 Two electron energy                   56.97084828
 Virial ratio                           2.00101028

 !MCSCF STATE  2.1 Dipole moment        0.00066356    -0.00152620     0.00024643
 Dipole moment /Debye                   0.00168650    -0.00387896     0.00062632

 Results for state 3.1
 =====================

 !MCSCF STATE  3.1 Energy             -77.532446354126
 Nuclear energy                        31.79199241
 Kinetic energy                        77.69305833
 One electron energy                 -166.18691499
 Two electron energy                   56.86247622
 Virial ratio                           1.99793274

 !MCSCF STATE  3.1 Dipole moment        0.00163042    -0.00263745     0.00078876
 Dipole moment /Debye                   0.00414385    -0.00670328     0.00200470

 State-averaged charge density matrix saved on record  2140.2 (density set 1)

 !MCSCF expec         <1.1|DMX|1.1>     0.000459358259 au =     0.001167495765 Debye
 !MCSCF trans         <2.1|DMX|1.1>    -0.001587231199 au =    -0.004034075070 Debye
 !MCSCF expec         <2.1|DMX|2.1>     0.000663561941 au =     0.001686495757 Debye
 !MCSCF trans         <3.1|DMX|1.1>     0.000072407509 au =     0.000184029477 Debye
 !MCSCF trans         <3.1|DMX|2.1>    -0.001697416341 au =    -0.004314119424 Debye
 !MCSCF expec         <3.1|DMX|3.1>     0.001630424305 au =     0.004143853805 Debye

 !MCSCF expec         <1.1|DMY|1.1>    -0.000797322236 au =    -0.002026458249 Debye
 !MCSCF trans         <2.1|DMY|1.1>     0.000821153126 au =     0.002087026362 Debye
 !MCSCF expec         <2.1|DMY|2.1>    -0.001526202051 au =    -0.003878964609 Debye
 !MCSCF trans         <3.1|DMY|1.1>     0.000022832048 au =     0.000058029478 Debye
 !MCSCF trans         <3.1|DMY|2.1>     0.000827912365 au =     0.002104205508 Debye
 !MCSCF expec         <3.1|DMY|3.1>    -0.002637446467 au =    -0.006703281191 Debye

 !MCSCF expec         <1.1|DMZ|1.1>    -0.000433594457 au =    -0.001102015000 Debye
 !MCSCF trans         <2.1|DMZ|1.1>     0.000257508109 au =     0.000654477459 Debye
 !MCSCF expec         <2.1|DMZ|2.1>     0.000246428277 au =     0.000626317181 Debye
 !MCSCF trans         <3.1|DMZ|1.1>    -0.000080737841 au =    -0.000205201681 Debye
 !MCSCF trans         <3.1|DMZ|2.1>     0.000332878305 au =     0.000846036842 Debye
 !MCSCF expec         <3.1|DMZ|3.1>     0.000788763271 au =     0.002004704953 Debye


 NATURAL ORBITALS (state averaged)
 =================================

  Orbital  Occupation    Energy     Coefficients
    1.1     2.00000   -11.26643     1 1s    0.88413     2 1s    0.45916
    2.1     2.00000   -11.26548     1 1s   -0.45927     2 1s    0.88418
    3.1     2.00000    -1.04953     1 1s    0.27748     2 1s    0.27795
    4.1     2.00000    -0.75952     1 1s   -0.33922     2 1s    0.33851
    5.1     2.00000    -0.61606     1 2py   0.29631     2 2py   0.29971
    6.1     2.00000    -0.53125     1 2px   0.25667     2 2px  -0.25626
    7.1     2.00000    -0.42229     1 2pz   0.32383     1 2pz   0.27682     2 2pz   0.32407     2 2pz   0.27706
    8.1     1.00000    -0.23465     1 2px   0.30675     2 2px  -0.30693     4 1s   -0.29203     5 1s   -0.29185
    9.1     1.00000    -0.08910     1 1s    0.28719     1 2pz   0.39892     1 2pz   0.41665     2 1s    0.28566     2 2pz  -0.39923
                                    2 2pz  -0.41729
   10.1    -0.00000     0.21991     1 1s   -1.07849     1 2px   0.48651     1 2py   0.35243     1 2pz   0.40099     2 1s   -1.06185
                                    2 2px  -0.48555     2 2py  -0.35646     2 2pz  -0.39552     3 1s    0.53321     4 1s    1.09786
                                    5 1s    1.09582     6 1s    0.51698
   11.1    -0.00000     0.24217     1 1s   -1.24455     1 2py  -0.32102     1 2pz   0.37909     2 1s    1.26068     2 2py  -0.29940
                                    2 2pz   0.37856     3 1s    1.22103     6 1s   -1.21347
   12.1    -0.00000     0.30108     1 1s   -0.48925     1 2px   0.32030     1 2py  -0.95498     1 2pz   0.37083     2 1s   -0.53508
                                    2 2px  -0.31931     2 2py   0.96028     2 2pz  -0.38408     3 1s    1.27647     4 1s   -0.44300
                                    5 1s   -0.43483     6 1s    1.31187
   13.1    -0.00000     0.32022     1 1s   -1.22134     1 2py   0.82741     1 2pz   0.38031     2 1s    1.21945     2 2py   0.83190
                                    2 2pz   0.37896     4 1s    1.73975     5 1s   -1.74223
   14.1    -0.00000     0.42809     1 1s    2.11930     1 2px   1.78108     1 2py  -0.44066     1 2pz  -0.79829     2 1s   -2.11538
                                    2 2px   1.78323     2 2py  -0.44479     2 2pz  -0.79644     3 1s    0.40973     6 1s   -0.41530
   15.1    -0.00000     0.69395     1 2px   0.52429     1 2px  -0.86322     2 2px  -0.52514     2 2px   0.86370     4 1s   -0.26306
                                    4 1s    0.49338     5 1s   -0.26219     5 1s    0.49340
   16.1    -0.00000     0.78202     1 1s   -0.85881     1 2py  -0.34067     1 2pz  -0.25390     1 2px  -0.54590     1 2py   0.73210
                                    1 2pz   0.48143     2 1s    0.84684     2 2py  -0.38668     2 2pz  -0.27255     2 2px  -0.56077
                                    2 2py   0.83394     2 2pz   0.50467     3 1s   -0.42862     4 1s    0.30634     5 1s   -0.33061
                                    6 1s    0.43693
   17.1    -0.00000     0.79203     1 2py   0.55808     1 2pz   0.37034     1 2py  -1.15186     1 2pz  -0.52687     2 2py  -0.53769
                                    2 2pz  -0.30084     2 2py   1.10058     2 2pz   0.44105     4 1s   -0.28423     5 1s   -0.25598
   18.1    -0.00000     0.80106     1 2pz   0.66617     1 2px  -0.32416     1 2pz  -0.58654     2 2pz   0.69735     2 2px  -0.32135
                                    2 2pz  -0.63423     3 1s   -0.26436     6 1s    0.25713
   19.1    -0.00000     0.86717     1 1s    0.35487     1 2px   0.30308     1 2py  -0.26504     1 2pz   0.62849     1 2px  -0.51325
                                    1 2py   0.67515     1 2pz  -0.89628     2 1s    0.35314     2 2px  -0.29946     2 2py   0.25630
                                    2 2pz  -0.62355     2 2px   0.49707     2 2py  -0.65677     2 2pz   0.89881     3 1s   -0.31511
                                    6 1s   -0.30971
   20.1    -0.00000     0.97955     1 2px   0.67698     1 2py   0.40995     1 2px  -1.00758     1 2py  -0.85983     2 2px   0.67702
                                    2 2py   0.41015     2 2px  -1.00777     2 2py  -0.86164     4 1s   -1.04759     5 1s    1.04926
   21.1    -0.00000     1.07138     1 1s   -0.31243     1 2px   0.52308     1 2py  -0.43700     1 2px  -0.94328     1 2py   0.70799
                                    2 2px   0.49284     2 2py  -0.42374     2 2px  -0.91258     2 2py   0.70453     3 1s    0.61867
                                    3 1s   -1.33376     6 1s   -0.53027     6 1s    1.22058
   22.1    -0.00000     1.09262     1 1s   -0.80055     1 1s    1.32790     1 2px   0.32154     1 2px  -0.32159     2 1s   -0.82182
                                    2 1s    1.32897     2 2px  -0.37398     2 2px   0.41490     3 1s    0.51920     3 1s   -0.68711
                                    4 1s    0.42968     4 1s   -0.75174     5 1s    0.41154     5 1s   -0.71427     6 1s    0.58020
                                    6 1s   -0.82455
   23.1    -0.00000     1.10669     1 2py   0.46259     1 2py  -0.44120     2 2py  -0.49270     2 2py   0.49029     3 1s   -0.54424
                                    3 1s    0.64572     4 1s    0.54222     4 1s   -0.85242     5 1s    0.55160     5 1s   -0.87659
                                    6 1s   -0.57242     6 1s    0.71090
   24.1    -0.00000     1.14085     1 1s   -0.39009     1 1s    0.36786     1 2py   0.40356     1 2px  -0.38314     1 2py  -0.40094
                                    2 1s    0.40340     2 1s   -0.38822     2 2py   0.39871     2 2px  -0.38884     2 2py  -0.39711
                                    4 1s    0.78703     4 1s   -1.15640     5 1s   -0.78876     5 1s    1.15938
   25.1    -0.00000     1.24790     1 1s   -1.21906     1 1s    1.98184     1 2px  -0.53773     1 2py   0.51005     1 2pz  -0.95015
                                    2 1s   -1.23709     2 1s    2.05214     2 2px   0.52231     2 2py  -0.50585     2 2pz   0.96689
                                    3 1s   -0.43487     3 1s   -0.68189     4 1s   -0.32586     4 1s   -0.47217     5 1s   -0.32925
                                    5 1s   -0.47765     6 1s   -0.43379     6 1s   -0.69776
   26.1    -0.00000     1.29116     1 1s   -1.56335     1 1s    5.08184     1 2px   1.39036     1 2py  -0.80826     1 2pz  -1.22389
                                    2 1s    1.55242     2 1s   -5.06601     2 2px   1.39605     2 2py  -0.81257     2 2pz  -1.21397
                                    4 1s   -0.27417     4 1s   -0.63223     5 1s    0.27224     5 1s    0.62583
   27.1    -0.00000     1.68899     1 1s   -0.62944     1 3d0  -0.34997     1 3d2-  0.30125     1 3d2+  0.32042     2 1s    0.63080
                                    2 3d0   0.35005     2 3d2- -0.30107     2 3d2+ -0.32036
   28.1    -0.00000     1.90277     1 1s    0.36110     1 1s   -0.84799     1 2pz   0.37830     1 3d0   0.37616     1 3d2+  0.31876
                                    1 3d1-  0.25030     2 3d0   0.31123     2 3d1+  0.40053     2 3d2+  0.37959     2 3d1-  0.38821
                                    3 1s    0.27984
   29.1    -0.00000     1.90584     1 1s   -0.31249     1 1s    1.35806     1 2px   0.37414     1 2pz  -0.31875     1 3d2- -0.34235
                                    1 3d1+  0.44251     1 3d1-  0.38996     2 1s    0.43606     2 1s   -1.59284     2 2px   0.30012
                                    2 2pz  -0.44948     2 3d2-  0.33145     2 3d1+ -0.30180     2 3d1- -0.25159     3 1s   -0.29337
                                    6 1s    0.38474
   30.1    -0.00000     2.15484     1 1s   -0.32125     1 1s    1.34480     1 2px   0.30162     1 2pz  -0.35979     1 3d0  -0.52098
                                    1 3d2+ -0.37370     2 1s    0.32797     2 1s   -1.35521     2 2px   0.30290     2 2pz  -0.36437
                                    2 3d0   0.52624     2 3d2+  0.37319     3 1s   -0.30506     6 1s    0.30594
   31.1    -0.00000     2.26192     1 1s    0.49605     1 1s   -0.34289     1 2px   0.27545     1 2px  -0.30064     1 3d2-  0.27796
                                    1 3d1+  0.41200     1 3d2+ -0.39066     2 1s    0.49362     2 1s   -0.33027     2 2px  -0.27535
                                    2 2px   0.29702     2 3d2-  0.27738     2 3d1+  0.41135     2 3d2+ -0.39291
   32.1    -0.00000     2.32720     1 2py   0.34901     1 3d0   0.46868     1 3d2- -0.44351     1 3d1- -0.36833     2 2py  -0.34219
                                    2 3d0   0.46071     2 3d2- -0.44186     2 3d1- -0.36234     3 1s   -0.26698     4 1s    0.43054
                                    5 1s    0.42206     6 1s   -0.26974
   33.1    -0.00000     2.51092     1 1s   -0.71835     1 2px  -0.28529     1 2py   0.35228     1 3d2- -0.42019     1 3d1- -0.59792
                                    2 1s    0.71505     2 2px  -0.28933     2 2py   0.35948     2 3d2-  0.41574     2 3d1-  0.60299
                                    3 1s   -0.32345     4 1s    0.46939     5 1s   -0.47229     6 1s    0.32641
   34.1    -0.00000     2.63621     1 2py   0.27459     1 3d2-  0.58963     1 3d1+ -0.27179     1 3d2+  0.34010     1 3d1- -0.36491
                                    2 2py  -0.27133     2 3d2-  0.59657     2 3d1+ -0.27335     2 3d2+  0.33897     2 3d1- -0.35694
   35.1    -0.00000     2.66492     1 3d0   0.40851     1 3d1+ -0.42267     1 3d2+ -0.40758     1 3d1-  0.43120     2 3d0   0.40790
                                    2 3d1+ -0.42415     2 3d2+ -0.40848     2 3d1-  0.43937     4 1s   -0.31597     5 1s   -0.32105
                                    6 1s    0.25611
   36.1    -0.00000     2.96435     1 1s    1.77288     1 2px   0.43974     1 2px   0.88385     1 2pz  -0.45816     1 3d2- -0.34777
                                    1 3d1+ -0.70712     1 3d2+  0.64682     2 1s   -1.77261     2 2px   0.43983     2 2px   0.88396
                                    2 2pz  -0.45804     2 3d2-  0.34692     2 3d1+  0.70771     2 3d2+ -0.64675


 Natural orbital dump (state averaged) at molpro section  2140.2    (Orbital set 2)



 **********************************************************************************************************************************
 DATASETS  * FILE   NREC   LENGTH (MB)   RECORD NAMES
              1      20       31.86       500      610      700      900      950      970     1000      129      960     1100   
                                          VAR    BASINP    GEOM    SYMINP    ZMAT    AOBASIS   BASIS     P2S    ABASIS      S 
                                         1400     1410     1200     1210     1080     1600     1650     1300     1700     1380   
                                           T        V       H0       H01     AOSYM     SMH    MOLCAS    ERIS     OPER     JKOP   

              2       5        5.42       700     1000      520     2100     2140   
                                         GEOM     BASIS   MCVARS     RHF     MCSCF   

 PROGRAMS   *        TOTAL     MULTI    HF-SCF       INT
 CPU TIMES  *         0.72      0.34      0.11      0.17
 REAL TIME  *         1.48 SEC
 DISK USED  *        39.04 MB
 **********************************************************************************************************************************
 Molecular orbitals read from record     2140.2  Type=MCSCF/NATURAL (state averaged)
 Occupation numbers read from record     2140.2  Type=MCSCF/NATURAL (state averaged)
 Orbital energies read from record       2140.2  Type=MCSCF/NATURAL (state averaged)
 Redundancy group numbers read from rec  2140.2  Type=MCSCF/NATURAL (state averaged)

 MULTI/6-31G* energy=    -77.532446354126

           MULTI          HF-SCF
    -77.53244635    -77.83185701
 **********************************************************************************************************************************
 Molpro calculation terminated
